Control file title. For DL_FIELD 4.10
49946
    1MOL     C1    1   0.965   0.009   2.657  0.2795 -0.2469 -0.5573
    1MOL     C2    2   1.067   0.098   2.735  0.2066  0.5515 -0.5626
    1MOL     C3    3   1.208   0.058   2.691 -0.9321  0.4012  0.0116
    1MOL     C4    4   1.325   0.133   2.768 -0.9624  1.0300  0.1504
    1MOL     C5    5   1.308   0.101   2.920 -0.1749  0.2590 -0.2422
    1MOL     C6    6   1.165   0.151   2.966  0.2213  0.2186 -0.4233
    1MOL     C7    7   1.060   0.070   2.889  0.0842  0.5448  0.7096
    1MOL     C8    8   0.947   0.044   2.504  0.1356 -0.3673  0.3603
    1MOL     H9    9   0.988   7.675   2.662  0.8967 -0.1451 -1.0689
    1MOL    H10   10   1.054   0.205   2.721  0.7824  0.7813  0.5443
    1MOL    H11   11   1.223   7.723   2.706  0.5451  0.4025 -1.3391
    1MOL    H12   12   1.223   0.087   2.587  0.8349 -0.8320 -0.0990
    1MOL    H13   13   1.312   0.241   2.760  0.1977  1.1944  0.5084
    1MOL    H14   14   1.421   0.103   2.728 -1.7245  1.0463 -1.7439
    1MOL    H15   15   1.379   0.139   2.993 -1.4200 -1.3217  1.8196
    1MOL    H16   16   1.322   7.767   2.939  1.7054  0.4772 -0.3577
    1MOL    H17   17   1.157   0.122   3.070  0.3990  2.6007  0.2889
    1MOL    H18   18   1.143   0.258   2.958  0.1225  0.0424 -3.1288
    1MOL    H19   19   0.964   0.097   2.933 -0.5286 -2.4910  1.2871
    1MOL    H20   20   1.064   7.735   2.908  0.8433  0.5656  0.6462
    1MOL    H21   21   0.860   7.772   2.455  0.5332  0.3739 -1.0705
    1MOL    H22   22   1.029   0.008   2.442  1.5012 -0.2201  2.0421
    1MOL    H23   23   0.870   0.017   2.710  0.5722 -0.6733  0.0377
    1MOL    C24   24   0.930   0.197   2.474  0.5404 -0.3270 -0.4098
    1MOL    C25   25   0.904   0.220   2.320  0.3048 -0.3110 -1.4253
    1MOL    C26   26   0.762   0.176   2.274  0.6056 -0.3786 -0.0427
    1MOL    C27   27   0.742   0.219   2.127  0.1832 -0.2385 -0.3431
    1MOL    C28   28   0.852   0.183   2.030 -0.7277  0.5402 -0.3649
    1MOL    C29   29   0.995   0.236   2.086  0.5056  0.1739 -0.9075
    1MOL    C30   30   1.007   0.166   2.223  0.4915 -0.3161  0.5127
    1MOL    C31   31   0.820   0.263   2.570 -0.2182 -0.3558 -1.1082
    1MOL    H32   32   1.030   0.234   2.496  1.2564 -3.2749  1.5558
    1MOL    H33   33   0.900   0.329   2.319 -0.5509 -0.3015  0.1412
    1MOL    H34   34   0.685   0.215   2.341  0.6081 -0.3270 -0.0693
    1MOL    H35   35   0.755   0.068   2.280 -1.5833 -0.2714 -0.1870
    1MOL    H36   36   0.641   0.196   2.092 -0.2371  1.6164 -0.4270
    1MOL    H37   37   0.732   0.328   2.122  0.7073 -0.0676  1.8260
    1MOL    H38   38   0.838   0.225   1.930 -4.0584  0.7979  0.1614
    1MOL    H39   39   0.860   0.075   2.023  0.1734  0.5817 -0.1193
    1MOL    H40   40   1.080   0.214   2.021  2.2975  1.7113  0.8274
    1MOL    H41   41   0.983   0.344   2.102 -0.5763 -0.1899  0.8524
    1MOL    H42   42   0.991   0.060   2.204 -0.5438 -0.1005  0.1687
    1MOL    H43   43   1.111   0.186   2.250  1.1599  0.8872 -2.7116
    1MOL    H44   44   0.843   0.258   2.677 -1.8151  2.6394 -0.5701
    1MOL    H45   45   0.726   0.209   2.583 -0.4863  0.8298  2.4780
    1MOL    C46   46   0.782   0.415   2.541  0.6764 -0.2468 -0.3327
    1MOL    C47   47   0.914   0.502   2.549  0.1787 -0.5270 -0.0821
    1MOL    C48   48   0.979   0.511   2.692  0.5173  0.1403 -0.8490
    1MOL    C49   49   1.104   0.598   2.682  0.0975  0.5351  0.5643
    1MOL    C50   50   1.087   0.730   2.614 -0.4355 -0.1323  0.2706
    1MOL    C51   51   1.024   0.715   2.476 -0.0184  0.7310  0.4446
    1MOL    C52   52   0.891   0.643   2.492  0.9988 -0.6453  1.0717
    1MOL    C53   53   0.678   0.467   2.637 -0.1513  0.5572 -0.1880
    1MOL    H54   54   0.748   0.426   2.439 -1.5801 -2.0138  0.1808
    1MOL    H55   55   0.985   0.447   2.487  1.5470  2.5639 -1.3569
    1MOL    H56   56   0.914   0.563   2.763 -0.1080 -0.7252 -0.7754
    1MOL    H57   57   1.004   0.414   2.736  0.9752  0.2582 -0.8578
    1MOL    H58   58   1.196   0.544   2.658 -0.2923 -0.4940  1.3382
    1MOL    H59   59   1.117   0.621   2.788 -0.9537 -0.0900  0.8364
    1MOL    H60   60   1.024   0.799   2.671  0.6094  1.2760 -0.2595
    1MOL    H61   61   1.184   0.777   2.599  0.2484 -1.0040  1.8218
    1MOL    H62   62   1.081   0.668   2.396 -2.3153  0.8218 -1.3041
    1MOL    H63   63   1.002   0.816   2.441  0.0479  0.7270  0.3935
    1MOL    H64   64   0.818   0.688   2.559  2.8156 -0.8777  3.2544
    1MOL    H65   65   0.848   0.629   2.392  2.7346  1.2680  0.0293
    1MOL    H66   66   0.702   0.562   2.686 -0.7022  0.4905  0.2305
    1MOL    H67   67   0.671   0.403   2.725 -4.1218  1.4572  0.2736
    1MOL    C68   68   0.536   0.483   2.573  0.0653 -0.8001 -0.5611
    1MOL    C69   69   0.423   0.496   2.686 -0.0843 -0.9138 -0.0056
    1MOL    C70   70   0.397   0.361   2.748 -0.0019  0.3025  0.2586
    1MOL    C71   71   0.273   0.367   2.840  0.3398  0.1536  1.5072
    1MOL    C72   72   0.299   0.470   2.948  0.3852  0.0659  0.3580
    1MOL    C73   73   0.326   0.611   2.891 -0.4868 -0.4923  0.5631
    1MOL    C74   74   0.450   0.597   2.803  0.9874 -0.8077 -0.8115
    1MOL    C75   75   0.529   0.603   2.472  0.4513 -0.4398  0.6651
    1MOL    H76   76   0.525   0.389   2.517  2.7419  0.1350 -2.7839
    1MOL    H77   77   0.327   0.526   2.645  0.4227  1.0329  0.1872
    1MOL    H78   78   0.475   0.310   2.805 -1.7434 -0.2810  2.1967
    1MOL    H79   79   0.364   0.296   2.667  1.9833 -0.0697 -0.2748
    1MOL    H80   80   0.182   0.397   2.788 -1.3667 -0.8717  3.7628
    1MOL    H81   81   0.260   0.266   2.880  0.9345  0.8828  3.6161
    1MOL    H82   82   0.380   0.436   3.013  1.2131  0.4311 -0.4844
    1MOL    H83   83   0.217   0.481   3.020 -0.2830  0.1482 -0.4126
    1MOL    H84   84   0.340   0.686   2.969 -1.8466  0.6964 -0.3147
    1MOL    H85   85   0.234   0.635   2.838 -0.4350  1.4635  1.3338
    1MOL    H86   86   0.537   0.575   2.864 -0.4616 -2.0735  0.8835
    1MOL    H87   87   0.469   0.695   2.760 -1.6036  0.0466 -0.1028
    1MOL    H88   88   0.534   0.692   2.534 -0.8301 -0.1243  0.3273
    1MOL    H89   89   0.618   0.612   2.411 -0.1597  0.4216 -0.1201
    1MOL    C90   90   0.410   0.599   2.370 -0.3609 -0.0612 -0.1914
    1MOL    C91   91   0.368   0.742   2.328 -0.0163 -0.2437  1.0996
    1MOL    C92   92   0.307   0.821   2.440  0.3774  0.1594  0.1804
    1MOL    C93   93   0.250   0.958   2.403 -0.1637  0.4568  0.5861
    1MOL    C94   94   0.365   1.041   2.338 -0.2327  0.2671  0.6602
    1MOL    C95   95   0.434   0.966   2.217 -0.4399 -0.6765 -0.2726
    1MOL    C96   96   0.479   0.821   2.253 -0.4008  0.3377 -0.2218
    1MOL    C97   97   0.427   0.497   2.255 -0.4271  0.7028  0.2977
    1MOL    H98   98   0.323   0.563   2.425 -0.2055  0.1029  0.1587
    1MOL    H99   99   0.290   0.722   2.254  1.4788 -0.0417 -0.5735
    1MOL   H100  100   0.377   0.844   2.520 -0.3716 -1.1759  1.2534
    1MOL   H101  101   0.226   0.766   2.489  0.0041  0.6632  0.1367
    1MOL   H102  102   0.218   1.012   2.492 -2.3390 -1.7994  1.1923
    1MOL   H103  103   0.170   0.966   2.330  2.7672  0.3433 -2.7844
    1MOL   H104  104   0.445   1.070   2.406  0.1009 -0.3542  0.5421
    1MOL   H105  105   0.325   1.131   2.292 -0.1192 -0.7906 -1.6154
    1MOL   H106  106   0.357   0.952   2.142 -3.6087  0.3847  2.6203
    1MOL   H107  107   0.509   1.027   2.167 -0.3765 -0.9670 -0.5319
    1MOL   H108  108   0.508   0.757   2.170  1.4794  0.6546  0.1692
    1MOL   H109  109   0.563   0.828   2.323 -0.1598 -0.1605 -0.4561
    1MOL   H110  110   0.524   0.516   2.210 -1.1566  0.2743 -1.5386
    1MOL   H111  111   0.428   0.392   2.285 -2.1302  0.8864  1.0675
    1MOL   C112  112   0.314   0.490   2.148  0.0250  0.1054 -0.4965
    1MOL   C113  113   0.167   0.454   2.198 -0.4735 -0.7821 -0.5138
    1MOL   C114  114   0.146   0.301   2.233  0.2293 -0.3214  0.2215
    1MOL   C115  115   0.004   0.260   2.280 -0.5968 -0.4863  0.3494
    1MOL   C116  116   7.669   0.325   2.195  0.3938 -0.1189  0.0518
    1MOL   C117  117   7.695   0.473   2.158 -0.2303 -0.5330 -0.1158
    1MOL   C118  118   0.060   0.478   2.095  0.8961 -0.0945  0.2863
    1MOL   C119  119   0.358   0.403   2.021  0.6649 -0.3252  0.2808
    1MOL   H120  120   0.318   0.589   2.103 -0.3807  0.5426  0.4034
    1MOL   H121  121   0.157   0.518   2.285  2.6907 -0.5148 -0.2854
    1MOL   H122  122   0.213   0.271   2.314  1.7523  2.5337  0.0919
    1MOL   H123  123   0.161   0.229   2.153 -1.9499 -2.0191  1.2891
    1MOL   H124  124   7.769   0.152   2.293 -0.4196 -0.4857  0.4566
    1MOL   H125  125   7.754   0.303   2.378 -0.2829 -1.4185  0.8408
    1MOL   H126  126   7.661   0.274   2.099  1.4754  0.3228 -0.2769
    1MOL   H127  127   7.572   0.305   2.240  0.0969  0.2348 -0.4252
    1MOL   H128  128   7.626   0.524   2.090  0.0922  0.2838  0.1653
    1MOL   H129  129   7.695   0.540   2.244 -1.3293 -0.7984  0.1047
    1MOL   H130  130   0.074   0.576   2.050  0.9825 -0.3626 -0.2630
    1MOL   H131  131   0.069   0.410   2.011  0.2087 -1.4808  1.3114
    1MOL   H132  132   0.271   0.349   1.982 -0.8116  1.4198  1.0783
    1MOL   H133  133   0.418   0.316   2.050 -0.2871 -0.5850  1.4996
    1MOL   C134  134   0.418   0.470   1.890  0.4975 -0.0632 -0.6179
    1MOL   C135  135   0.411   0.359   1.780  0.2671  0.1319  0.0340
    1MOL   C136  136   0.516   0.389   1.668 -0.3067  0.1360 -0.5759
    1MOL   C137  137   0.517   0.312   1.539 -0.0279  0.1938  0.1398
    1MOL   C138  138   0.375   0.279   1.490 -0.3456  0.1108 -0.1815
    1MOL   C139  139   0.284   0.230   1.603  0.0671  0.0897 -0.0199
    1MOL   C140  140   0.270   0.337   1.710 -0.2175 -0.2526  0.6056
    1MOL   C141  141   0.558   0.529   1.927  0.2740 -0.1560  0.1555
    1MOL   H142  142   0.351   0.550   1.859 -2.2078 -1.7003  0.8219
    1MOL   H143  143   0.440   0.260   1.815  0.2372 -0.5180 -1.7018
    1MOL   H144  144   0.497   0.495   1.646 -2.7517  0.1988  1.6122
    1MOL   H145  145   0.621   0.390   1.696 -0.7274  0.0566  1.0703
    1MOL   H146  146   0.574   0.220   1.552 -0.8470  0.1763  4.1189
    1MOL   H147  147   0.574   0.367   1.465  1.1540  0.0658  0.9448
    1MOL   H148  148   0.342   0.368   1.436  1.5335  0.2167 -1.1796
    1MOL   H149  149   0.378   0.196   1.419  1.1459 -1.7623  2.0124
    1MOL   H150  150   0.326   0.135   1.637  0.5796 -0.4222 -1.9872
    1MOL   H151  151   0.185   0.196   1.573 -0.2389 -0.8581  2.0076
    1MOL   H152  152   0.233   0.430   1.667  0.3234 -1.4674 -2.6174
    1MOL   H153  153   0.188   0.303   1.773 -1.5060  0.6025 -0.5627
    1MOL   H154  154   0.633   0.450   1.927  1.9672  1.3845 -0.9676
    1MOL   H155  155   0.561   0.564   2.030 -0.6693 -1.3054  0.5731
    1MOL   C156  156   0.614   0.656   1.860 -0.2097  0.4607 -0.8090
    1MOL   C157  157   0.761   0.675   1.897  0.1066  0.0361 -0.6384
    1MOL   C158  158   0.825   0.800   1.821  0.3178  0.1432 -0.2357
    1MOL   C159  159   0.978   0.808   1.847 -0.0147 -0.6285  0.6139
    1MOL   C160  160   1.013   0.820   1.995  0.2537 -0.1224 -0.2516
    1MOL   C161  161   0.960   0.693   2.058 -1.0996  0.7402 -0.5512
    1MOL   C162  162   0.800   0.682   2.047  0.2139  0.4086  0.4017
    1MOL   C163  163   0.519   0.782   1.871 -0.7637  0.0127 -0.8214
    1MOL   H164  164   0.621   0.634   1.754  0.1678 -1.7822 -0.3523
    1MOL   H165  165   0.815   0.589   1.858  1.5103 -0.1084  1.5345
    1MOL   H166  166   0.803   0.789   1.715 -2.1646  0.6645  0.1980
    1MOL   H167  167   0.783   0.894   1.858  0.1553  0.5716 -1.4846
    1MOL   H168  168   1.030   0.727   1.796  0.9332  0.6493 -0.4415
    1MOL   H169  169   1.014   0.901   1.804  0.8066 -0.9464  0.6088
    1MOL   H170  170   0.961   0.906   2.039  1.0742  0.4344 -0.3669
    1MOL   H171  171   1.118   0.843   2.010  0.4562  0.7124 -2.7518
    1MOL   H172  172   0.973   0.688   2.166  0.5312 -1.4557 -0.8081
    1MOL   H173  173   1.003   0.599   2.023 -0.1618  0.1784  2.0120
    1MOL   H174  174   0.774   0.590   2.098  1.5489 -1.3165 -1.8881
    1MOL   H175  175   0.748   0.766   2.093  0.4831 -0.2231  1.8860
    1MOL   H176  176   0.576   0.866   1.912  0.0997 -0.7611 -0.4043
    1MOL   H177  177   0.453   0.770   1.957 -2.3769  1.6367 -1.8141
    1MOL   C178  178   0.421   0.815   1.750 -0.8739 -0.5904  0.2776
    1MOL   C179  179   0.308   0.907   1.799 -0.5084  0.0956  0.2367
    1MOL   C180  180   0.352   1.043   1.848 -0.2118 -0.5427 -1.1056
    1MOL   C181  181   0.228   1.124   1.894  0.2269  0.4324  0.1264
    1MOL   C182  182   0.118   1.062   1.976 -0.6483 -0.1754 -0.1099
    1MOL   C183  183   0.079   0.931   1.908  0.2002 -0.5317  0.4934
    1MOL   C184  184   0.208   0.844   1.898 -0.1240 -0.8678 -0.1607
    1MOL   C185  185   0.499   0.875   1.624  0.3439  0.0543  0.0522
    1MOL   H186  186   0.385   0.715   1.726  0.5376 -1.5798  2.0996
    1MOL   H187  187   0.240   0.919   1.715  1.6908  0.6317 -1.5100
    1MOL   H188  188   0.423   1.040   1.930 -1.7491 -1.1680  0.2373
    1MOL   H189  189   0.411   1.097   1.774  1.5639 -1.2493 -0.2055
    1MOL   H190  190   0.186   1.160   1.800  1.3803  3.2350  0.6433
    1MOL   H191  191   0.259   1.205   1.960 -0.3525  1.4795 -0.8615
    1MOL   H192  192   0.147   1.048   2.080 -1.7917 -1.0864  0.0892
    1MOL   H193  193   0.039   1.137   1.977  0.5265  1.0924  0.1050
    1MOL   H194  194   0.017   0.928   1.818  1.6946  0.3279 -0.5976
    1MOL   H195  195   0.016   0.877   1.978  1.1495 -1.4183  0.6753
    1MOL   H196  196   0.257   0.814   1.990  2.6970 -1.7964 -1.8859
    1MOL   H197  197   0.182   0.751   1.846  1.3069 -0.5690 -1.4699
    1MOL   H198  198   0.567   0.956   1.650  0.2861 -0.3964  1.6731
    1MOL   H199  199   0.561   0.788   1.601  0.0994 -0.1582  0.2006
    1MOL   C200  200   0.416   0.923   1.498 -0.0441  1.4262 -0.5128
    1MOL   C201  201   0.498   0.979   1.385  1.1002 -0.1743 -0.6392
    1MOL   C202  202   0.526   1.132   1.405 -0.6514 -0.1541  0.0436
    1MOL   C203  203   0.611   1.181   1.287  0.1829 -0.6934  0.1379
    1MOL   C204  204   0.733   1.096   1.251  0.8192  0.0965 -0.2644
    1MOL   C205  205   0.692   0.959   1.220  0.4322  0.1754 -0.0627
    1MOL   C206  206   0.613   0.890   1.334 -0.1859  0.5622  0.1242
    1MOL   C207  207   0.315   0.812   1.452 -0.5079  0.3199 -0.0231
    1MOL   H208  208   0.348   1.005   1.523  0.0538  1.7905 -1.4209
    1MOL   H209  209   0.426   0.978   1.304 -1.4448  1.0936  1.5213
    1MOL   H210  210   0.590   1.149   1.492  1.0135 -3.7676 -0.3794
    1MOL   H211  211   0.428   1.177   1.416 -0.3453  0.5601 -0.1047
    1MOL   H212  212   0.553   1.181   1.195 -0.2772  1.6964  0.3767
    1MOL   H213  213   0.641   1.285   1.304 -1.7563 -0.2424  0.9337
    1MOL   H214  214   0.798   1.134   1.173 -0.9988  2.1562 -0.8307
    1MOL   H215  215   0.800   1.086   1.336 -3.7673 -1.9625  3.3388
    1MOL   H216  216   0.626   0.942   1.135  0.7031  2.0083 -0.6681
    1MOL   H217  217   0.781   0.907   1.185  0.1013 -0.0148 -0.6285
    1MOL   H218  218   0.582   0.787   1.320 -0.0507  0.2542  1.9385
    1MOL   H219  219   0.680   0.877   1.419 -0.4818  1.3734  0.4886
    1MOL   H220  220   0.374   0.728   1.413  0.1408  0.2974  0.9811
    1MOL   H221  221   0.277   0.768   1.545 -2.8239 -0.2641 -1.2100
    1MOL   C222  222   0.204   0.856   1.351 -0.1524  0.1300  0.0756
    1MOL   C223  223   0.115   0.737   1.332  0.6246 -0.1438 -0.5477
    1MOL   C224  224   0.035   0.690   1.452  0.2845  0.2633 -0.9597
    1MOL   C225  225   7.700   0.582   1.430 -0.0340 -0.0766  0.3275
    1MOL   C226  226   7.767   0.464   1.357 -0.0994  0.6050  1.2676
    1MOL   C227  227   0.070   0.518   1.235 -0.2145 -0.5863  0.3222
    1MOL   C228  228   0.180   0.615   1.273  0.0534  0.8485  0.5823
    1MOL   C229  229   0.132   0.990   1.395  0.1613 -0.0133  0.0339
    1MOL   H230  230   0.243   0.874   1.251  0.3831  0.1287  0.2833
    1MOL   H231  231   0.050   0.764   1.249 -0.6475 -1.2475  0.0571
    1MOL   H232  232   0.102   0.661   1.532 -2.5810 -3.3515  0.2781
    1MOL   H233  233   7.758   0.779   1.492 -0.3344 -0.3330 -0.3773
    1MOL   H234  234   7.614   0.626   1.379  1.0273  2.8114  0.9375
    1MOL   H235  235   7.644   0.556   1.520  0.3939  0.9683  0.9036
    1MOL   H236  236   0.066   0.404   1.413 -0.2209 -1.1156 -0.3735
    1MOL   H237  237   7.690   0.395   1.320  0.5494  0.0149  1.0153
    1MOL   H238  238   0.010   0.576   1.165 -1.2439 -1.6972  0.2534
    1MOL   H239  239   0.120   0.445   1.171  1.9240  2.3790 -1.4887
    1MOL   H240  240   0.259   0.571   1.334  0.8403  0.4662 -0.6807
    1MOL   H241  241   0.230   0.637   1.178  1.5473 -0.4920  1.0325
    1MOL   H242  242   0.202   1.073   1.390 -1.0530  0.9543 -1.0793
    1MOL   H243  243   0.105   0.978   1.500  2.1718  1.0607  0.7060
    1MOL   C244  244   0.005   1.036   1.313 -0.1793  1.2090  0.5350
    1MOL   C245  245   0.040   1.089   1.173  0.5081  0.3042 -0.0740
    1MOL   C246  246   0.060   0.984   1.057  0.0250 -0.4417  0.8218
    1MOL   C247  247   0.054   1.060   0.924  0.0829  0.1378 -0.1371
    1MOL   C248  248   0.163   1.174   0.908  0.2873 -0.2798 -0.7657
    1MOL   C249  249   0.151   1.273   1.023 -0.5479 -0.7484  0.2766
    1MOL   C250  250   0.151   1.205   1.161  0.4878  0.0575  0.3691
    1MOL   C251  251   7.697   1.129   1.409 -0.4736  0.2025  0.3927
    1MOL   H252  252   7.716   0.947   1.302 -1.2181  1.7620  1.7372
    1MOL   H253  253   7.722   1.137   1.134 -1.8004 -0.8972  3.5492
    1MOL   H254  254   7.759   0.903   1.051 -2.8075  1.9915  1.4568
    1MOL   H255  255   0.160   0.941   1.070 -0.2100 -1.0547  0.6516
    1MOL   H256  256   0.088   0.981   0.856  4.3950  0.1084  1.8624
    1MOL   H257  257   7.727   1.097   0.899 -0.4946 -0.7215  0.8489
    1MOL   H258  258   0.264   1.134   0.905  0.9332  1.2944 -0.5790
    1MOL   H259  259   0.146   1.229   0.815 -1.3872 -1.2402 -1.0462
    1MOL   H260  260   0.067   1.342   1.009 -0.6155 -0.9763 -0.4811
    1MOL   H261  261   0.243   1.331   1.015 -0.2938 -1.3102 -1.1587
    1MOL   H262  262   0.246   1.155   1.181 -0.2962 -1.2435  0.8626
    1MOL   H263  263   0.143   1.275   1.245  0.6822  1.1041 -0.4745
    1MOL   H264  264   7.766   1.209   1.435 -0.0272  0.2739 -0.9601
    1MOL   H265  265   7.679   1.076   1.503  2.3373 -4.6177 -1.5684
    1MOL   C266  266   7.564   1.187   1.349  0.1344 -0.4880 -0.0120
    1MOL   C267  267   7.483   1.090   1.257  0.7274  0.5925 -0.1418
    1MOL   C268  268   7.392   1.160   1.153  0.5257  0.4934 -0.3314
    1MOL   C269  269   7.319   1.051   1.071  0.5411  0.4723  0.0299
    1MOL   C270  270   7.249   0.942   1.152  0.7118  0.5847 -0.3059
    1MOL   C271  271   7.341   0.881   1.253 -0.5308  0.3773  0.1221
    1MOL   C272  272   7.402   0.988   1.339 -0.4353 -0.3210  0.5693
    1MOL   C273  273   7.478   1.255   1.459  0.2481  0.1971  0.3867
    1MOL   H274  274   7.599   1.264   1.280 -1.3030  1.1941  1.0676
    1MOL   H275  275   7.547   1.029   1.193  1.1469  0.2944  0.5566
    1MOL   H276  276   7.325   1.230   1.203  0.0116 -0.4486  0.3035
    1MOL   H277  277   7.438   1.219   1.073  1.0648  0.6508  0.0929
    1MOL   H278  278   7.388   1.005   1.000  0.8349  1.6282 -0.4468
    1MOL   H279  279   7.243   1.102   1.012 -1.6118 -1.2930  1.1743
    1MOL   H280  280   7.168   0.993   1.205  0.5009 -0.7190  0.6477
    1MOL   H281  281   7.192   0.870   1.092  3.4404 -1.6133 -0.3927
    1MOL   H282  282   7.423   0.831   1.203  0.1873  0.5317  1.1457
    1MOL   H283  283   7.290   0.805   1.312  2.0326 -1.2040  0.3762
    1MOL   H284  284   7.470   0.943   1.411 -1.5832  1.4608  2.8441
    1MOL   H285  285   7.325   1.045   1.393 -1.5097 -1.3282  0.1321
    1MOL   H286  286   7.467   1.186   1.542  0.2075 -0.1833  0.0647
    1MOL   H287  287   7.386   1.275   1.404 -0.0618  0.9024  1.1485
    1MOL   C288  288   7.533   1.396   1.504  0.0042 -0.2993 -0.7989
    1MOL   C289  289   7.488   1.428   1.652 -0.1662  0.5454 -0.2205
    1MOL   C290  290   7.336   1.422   1.670 -0.1977 -0.2347  0.6059
    1MOL   C291  291   7.305   1.478   1.813 -0.0333  0.0301  0.2483
    1MOL   C292  292   7.370   1.383   1.920 -0.1243 -0.1539  1.0504
    1MOL   C293  293   7.521   1.377   1.894  0.2723  0.0402 -0.1010
    1MOL   C294  294   7.552   1.331   1.750 -0.1647  0.0477 -0.2317
    1MOL   C295  295   7.494   1.501   1.402  0.5889  0.0457  0.2194
    1MOL   H296  296   7.642   1.391   1.505 -0.0690 -2.1566  0.5714
    1MOL   H297  297   7.540   1.519   1.681  0.3752 -0.2033  1.1813
    1MOL   H298  298   7.300   1.499   1.602  2.1177 -0.1390 -0.5246
    1MOL   H299  299   7.288   1.327   1.647 -0.2504  0.0750 -0.5995
    1MOL   H300  300   7.342   1.581   1.813  0.4958 -0.1532 -1.2004
    1MOL   H301  301   7.198   1.494   1.830 -0.3782  1.5229 -2.9949
    1MOL   H302  302   7.323   1.287   1.901  1.9186 -1.0631  0.4388
    1MOL   H303  303   7.349   1.416   2.022 -1.6028 -0.9353  1.0095
    1MOL   H304  304   7.572   1.315   1.969  2.5698  0.3355 -1.3505
    1MOL   H305  305   7.564   1.476   1.908  0.6938 -0.0760 -0.5426
    1MOL   H306  306   7.519   1.228   1.743 -0.9844  0.0248  3.0395
    1MOL   H307  307   7.660   1.333   1.741  0.0253 -0.8120  1.6468
    1MOL   H308  308   7.504   1.463   1.300 -3.7813 -1.0837  0.1456
    1MOL   H309  309   7.387   1.519   1.402 -0.0827 -3.4558 -0.0496
    1MOL   C310  310   7.557   1.642   1.424  0.3956  0.3168 -0.2533
    1MOL   C311  311   7.717   1.638   1.440 -0.2931 -0.1207  0.6214
    1MOL   C312  312   0.016   1.580   1.313  0.1977 -0.4954  0.1636
    1MOL   C313  313   0.169   1.553   1.346 -0.3072  0.7023 -0.0991
    1MOL   C314  314   0.247   1.680   1.389 -0.3538 -0.0572  0.4059
    1MOL   C315  315   0.167   1.742   1.501 -0.3300  0.8652  0.2369
    1MOL   C316  316   0.021   1.764   1.485  0.1179  0.0823 -0.3805
    1MOL   C317  317   7.517   1.749   1.322 -0.4673 -1.8364 -1.1468
    1MOL   H318  318   7.529   1.676   1.523  0.2668  1.0700 -0.5380
    1MOL   H319  319   7.741   1.575   1.525  0.3275 -2.0667 -0.9376
    1MOL   H320  320   7.733   1.488   1.296 -1.0221  0.5826 -1.9695
    1MOL   H321  321   0.007   1.649   1.229 -0.7533  0.1360  0.7660
    1MOL   H322  322   0.225   1.514   1.261 -0.1559 -0.1700  0.3952
    1MOL   H323  323   0.178   1.475   1.422  0.3251  1.9441  1.1313
    1MOL   H324  324   0.350   1.674   1.424  0.0866  0.9750 -0.7269
    1MOL   H325  325   0.255   1.746   1.304 -1.3534 -0.4061  0.0256
    1MOL   H326  326   0.181   1.664   1.576 -0.9698  0.3494 -0.1711
    1MOL   H327  327   0.210   1.838   1.528  0.0669  1.2444 -1.6707
    1MOL   H328  328   0.010   1.852   1.421  1.2833  1.5794  1.4331
    1MOL   H329  329   7.737   1.800   1.571  0.7495 -2.1705  1.0297
    1MOL   H330  330   7.520   1.699   1.225  0.3733  0.8757 -2.5678
    1MOL   H331  331   7.598   1.821   1.318  0.5701 -2.7259  2.1568
    1MOL   C332  332   7.377   1.803   1.352 -0.3073 -0.5120  0.3317
    1MOL   C333  333   7.330   1.881   1.228  0.3611  0.4354  0.3412
    1MOL   C334  334   7.305   1.787   1.110 -0.0117 -0.2935  0.2070
    1MOL   C335  335   7.235   1.859   0.995  0.2134 -0.3575  0.4115
    1MOL   C336  336   7.304   1.989   0.943  0.0733 -0.7805  0.2978
    1MOL   C337  337   7.355   2.074   1.069  0.4249 -0.1336  0.6217
    1MOL   C338  338   7.421   1.997   1.182  0.1515 -0.9241  1.0118
    1MOL   C339  339   7.401   1.907   1.470  0.2956 -0.3738 -0.2502
    1MOL   H340  340   7.310   1.722   1.383  2.3697 -2.1635  1.9597
    1MOL   H341  341   7.229   1.918   1.247  0.0940  0.0286 -0.2863
    1MOL   H342  342   7.399   1.754   1.065 -1.4165 -2.2912 -1.2930
    1MOL   H343  343   7.248   1.696   1.120  0.1404 -0.1566  2.3791
    1MOL   H344  344   7.231   1.794   0.907  3.6086  0.0779 -0.1233
    1MOL   H345  345   7.137   1.887   1.033  0.3484  1.7454 -0.7511
    1MOL   H346  346   7.388   1.971   0.876  1.0992  0.3829  1.2580
    1MOL   H347  347   7.229   2.035   0.879 -1.3024 -1.3479  1.4606
    1MOL   H348  348   7.274   2.140   1.101  1.3333  2.7506 -2.6846
    1MOL   H349  349   7.434   2.144   1.042  0.0789 -1.0014 -2.9038
    1MOL   H350  350   7.452   2.055   1.269  0.2384 -1.3896  1.2883
    1MOL   H351  351   7.516   1.961   1.142 -1.8782  0.2951 -5.5657
    1MOL   H352  352   7.492   1.964   1.454 -0.1437 -0.1129 -1.8169
    1MOL   H353  353   7.435   1.840   1.550  1.8518 -1.0090 -1.4065
    1MOL   C354  354   7.279   1.998   1.519  0.0294 -0.6186  0.7659
    1MOL   C355  355   7.314   2.088   1.643  0.4459 -0.4066 -0.2921
    1MOL   C356  356   7.441   2.175   1.619  0.6852 -0.1935 -0.0602
    1MOL   C357  357   7.481   2.249   1.750  0.3384 -0.5304 -0.2232
    1MOL   C358  358   7.500   2.152   1.868 -0.0100  0.0896  0.2247
    1MOL   C359  359   7.381   2.065   1.896  0.2690 -0.1217 -0.2050
    1MOL   C360  360   7.341   1.993   1.764  0.0068  0.7356  0.0617
    1MOL   C361  361   7.146   1.920   1.530 -0.0730 -0.1295 -0.2107
    1MOL   H362  362   7.280   2.066   1.434  1.2587 -0.0298  1.2317
    1MOL   H363  363   7.234   2.160   1.662  0.1246  0.2057 -3.6665
    1MOL   H364  364   7.433   2.244   1.536  1.8576 -1.1003 -0.9460
    1MOL   H365  365   7.527   2.108   1.611 -0.3513 -2.0702  3.2302
    1MOL   H366  366   7.569   2.314   1.745 -0.3281  0.5111  1.1547
    1MOL   H367  367   7.403   2.319   1.780 -0.8928 -1.5087 -1.1190
    1MOL   H368  368   7.589   2.091   1.855  1.4645  2.1917  0.2465
    1MOL   H369  369   7.531   2.200   1.960  1.2867  2.3825 -1.3488
    1MOL   H370  370   7.419   2.001   1.976 -0.7826  1.1650  1.3717
    1MOL   H371  371   7.303   2.124   1.945  0.4088 -0.7772  0.8372
    1MOL   H372  372   7.246   1.942   1.780  1.3412 -1.9620 -0.2564
    1MOL   H373  373   7.418   1.918   1.742 -0.1100  0.4255  0.6906
    1MOL   H374  374   7.160   1.828   1.587 -1.6242 -0.4600 -0.3379
    1MOL   H375  375   7.135   1.864   1.437  1.5573  1.0540 -1.1434
    1MOL   C376  376   7.012   2.003   1.569  0.0469 -0.2159  0.8105
    1MOL   C377  377   6.967   2.107   1.455 -0.1315 -0.2412 -0.2500
    1MOL   C378  378   6.880   2.228   1.492 -0.1737 -0.9005  0.5073
    1MOL   C379  379   6.878   2.332   1.380 -0.1715  0.2212 -0.0187
    1MOL   C380  380   6.821   2.279   1.257  0.6919  0.3988  0.3655
    1MOL   C381  381   6.881   2.143   1.207  0.3114  0.4445  0.1795
    1MOL   C382  382   6.909   2.040   1.319  0.5038 -0.1873 -0.5052
    1MOL   C383  383   6.903   1.909   1.610  0.3456 -0.4375  0.4235
    1MOL   H384  384   7.042   2.068   1.651 -0.1442 -1.1722  1.6389
    1MOL   H385  385   7.067   2.140   1.429 -0.0889 -0.3908 -0.2748
    1MOL   H386  386   6.776   2.193   1.494  0.5637 -3.1279  0.4711
    1MOL   H387  387   6.901   2.280   1.585 -1.5668  0.9915 -0.1808
    1MOL   H388  388   6.981   2.355   1.350 -0.3624  2.7606  1.1983
    1MOL   H389  389   6.828   2.424   1.409 -1.9916 -0.8783  0.3580
    1MOL   H390  390   6.714   2.268   1.272  0.2720 -0.4053 -2.9512
    1MOL   H391  391   6.840   2.352   1.178 -0.0774  1.4653  1.1439
    1MOL   H392  392   6.824   2.103   1.122 -0.7804  0.5683  0.8393
    1MOL   H393  393   6.973   2.175   1.160  1.5590 -0.5967  1.8739
    1MOL   H394  394   6.814   1.990   1.338  0.8099 -1.5449 -2.4344
    1MOL   H395  395   6.972   1.960   1.281  0.2573 -0.6700  0.0965
    1MOL   H396  396   6.940   1.809   1.629  1.8882 -0.0490 -0.4381
    1MOL   H397  397   6.840   1.891   1.523  2.0390 -1.1845 -0.6742
    1MOL   C398  398   6.808   1.955   1.723 -0.4287  0.2168  0.5251
    1MOL   C399  399   6.693   1.857   1.747 -0.0796  0.4787 -0.5595
    1MOL   C400  400   6.612   1.828   1.625  0.0993  0.0186  0.8989
    1MOL   C401  401   6.474   1.767   1.663 -0.4105 -0.0596  0.1345
    1MOL   C402  402   6.496   1.633   1.733  0.4230 -0.0895  0.2875
    1MOL   C403  403   6.599   1.645   1.851  0.3394 -0.5137 -0.4181
    1MOL   C404  404   6.727   1.723   1.808  0.0289 -0.5005  0.4544
    1MOL   C405  405   6.884   2.003   1.853 -0.0958 -0.6228 -0.0845
    1MOL   H406  406   6.754   2.038   1.676  1.6671  1.4625  0.2729
    1MOL   H407  407   6.630   1.908   1.820 -0.1811 -0.9079  0.3509
    1MOL   H408  408   6.663   1.759   1.558 -0.5455  0.7887 -0.4091
    1MOL   H409  409   6.602   1.919   1.564 -0.2227  0.7095  1.9713
    1MOL   H410  410   6.413   1.747   1.575  0.6718 -4.5373  0.2790
    1MOL   H411  411   6.413   1.835   1.723  0.0661  1.6406 -1.2788
    1MOL   H412  412   6.544   1.554   1.675  2.7928  1.1358  0.5195
    1MOL   H413  413   6.405   1.586   1.769  0.5702 -0.3352  0.3385
    1MOL   H414  414   6.552   1.689   1.939 -0.2934 -0.3711 -0.8148
    1MOL   H415  415   6.613   1.543   1.884 -2.7943 -1.9165 -3.1044
    1MOL   H416  416   6.794   1.729   1.893 -1.5098 -0.9359  1.7338
    1MOL   H417  417   6.769   1.661   1.729  2.6730 -0.3918  1.7328
    1MOL   H418  418   6.864   1.947   1.945 -1.3953 -0.1313 -0.0691
    1MOL   H419  419   6.991   1.980   1.845  0.5829  2.7104 -1.2294
    1MOL   C420  420   6.870   2.158   1.885 -0.0570 -0.3478 -0.3951
    1MOL   C421  421   6.968   2.213   1.995 -0.3406  0.6039  0.5857
    1MOL   C422  422   6.944   2.161   2.138 -0.5445  0.5096 -0.2098
    1MOL   C423  423   7.053   2.205   2.242  0.1829 -0.1618 -0.3939
    1MOL   C424  424   7.084   2.359   2.229 -0.6852  0.8099 -0.6172
    1MOL   C425  425   7.106   2.405   2.082  0.0780  0.1719  0.8496
    1MOL   C426  426   6.984   2.368   1.994 -0.3116 -0.3257 -0.4143
    1MOL   C427  427   6.724   2.172   1.927 -0.0580  0.0884 -0.2476
    1MOL   H428  428   6.890   2.205   1.788 -0.2284  1.7028  0.5393
    1MOL   H429  429   7.059   2.160   1.969 -0.4779  1.0596 -0.8434
    1MOL   H430  430   6.843   2.196   2.161 -1.0489 -0.0592 -1.5564
    1MOL   H431  431   6.945   2.053   2.130  1.3234  0.5242 -0.2893
    1MOL   H432  432   7.032   2.182   2.346 -0.2035 -0.0281 -0.4408
    1MOL   H433  433   7.146   2.153   2.217  0.1381 -0.0149 -0.8764
    1MOL   H434  434   7.168   2.381   2.294 -2.0152  0.5168  1.2451
    1MOL   H435  435   6.993   2.405   2.267  0.8159  2.0403  1.5522
    1MOL   H436  436   7.193   2.354   2.043 -0.4419 -0.4971  0.5629
    1MOL   H437  437   7.124   2.511   2.064  2.8441 -0.2262  1.0325
    1MOL   H438  438   6.898   2.406   2.049  0.2688  0.2031  0.1331
    1MOL   H439  439   6.999   2.400   1.891 -0.7185 -2.9210 -1.3136
    1MOL   H440  440   6.687   2.105   2.005  0.8108  1.1310  1.0986
    1MOL   H441  441   6.695   2.274   1.954 -0.2216  0.1198 -0.5436
    1MOL   H442  442   6.669   2.153   1.835  2.1076 -1.5631 -1.2319
    2MOL     C1  443   4.703   4.670   5.276 -0.6468  0.2343  0.1324
    2MOL     C2  444   4.731   4.697   5.131 -0.2597 -0.4822 -0.9088
    2MOL     C3  445   4.636   4.817   5.086 -0.9563 -0.0959  0.0348
    2MOL     C4  446   4.634   4.847   4.941  0.5431 -0.1520  0.0677
    2MOL     C5  447   4.596   4.730   4.854  0.0032  0.0175  0.1797
    2MOL     C6  448   4.702   4.618   4.878  0.4753 -0.4228 -0.6507
    2MOL     C7  449   4.703   4.579   5.035 -0.4250  0.1573 -0.1548
    2MOL     C8  450   4.797   4.564   5.347  0.6446 -0.7659  0.0749
    2MOL     H9  451   4.727   4.759   5.333  0.8027 -1.0053  1.5047
    2MOL    H10  452   4.838   4.716   5.123  0.2084 -2.1605  0.7934
    2MOL    H11  453   4.537   4.787   5.121  0.0871 -3.1978  0.4270
    2MOL    H12  454   4.655   4.913   5.134 -2.8590  0.7204 -0.7685
    2MOL    H13  455   4.728   4.894   4.909  0.5346  0.2483  0.6202
    2MOL    H14  456   4.559   4.925   4.926 -0.5111 -0.8058  1.8965
    2MOL    H15  457   4.596   4.780   4.758 -0.9861 -0.4291 -0.0509
    2MOL    H16  458   4.494   4.703   4.882  0.1725 -0.4346  0.3729
    2MOL    H17  459   4.686   4.529   4.817 -0.4055 -0.3647 -0.5032
    2MOL    H18  460   4.799   4.660   4.850  0.0347 -0.6882 -2.6972
    2MOL    H19  461   4.780   4.505   5.056 -0.3057  0.2838 -0.1422
    2MOL    H20  462   4.605   4.537   5.058  0.1688 -0.9636  0.3234
    2MOL    H21  463   4.898   4.600   5.325 -0.3389  2.5693  0.7093
    2MOL    H22  464   4.795   4.472   5.289 -0.1754  0.3456 -1.7174
    2MOL    H23  465   4.599   4.644   5.294 -0.8214  1.6541  1.2121
    2MOL    C24  466   4.774   4.548   5.498  0.2523 -0.0148 -0.0248
    2MOL    C25  467   4.680   4.426   5.530 -0.2818 -0.1283  1.1464
    2MOL    C26  468   4.560   4.408   5.428  0.7377 -0.0665 -0.1415
    2MOL    C27  469   4.465   4.301   5.474 -0.1183  0.2477  0.5884
    2MOL    C28  470   4.410   4.328   5.609 -0.2940 -0.5542  0.2755
    2MOL    C29  471   4.530   4.318   5.708  0.1822  0.0826 -0.6822
    2MOL    C30  472   4.631   4.426   5.677  0.0836  0.0502 -0.2649
    2MOL    C31  473   4.904   4.536   5.583 -0.6095  0.6902  0.2683
    2MOL    H32  474   4.710   4.630   5.530  0.1782 -0.6778  1.5960
    2MOL    H33  475   4.745   4.340   5.521 -0.8398 -0.5494  1.1500
    2MOL    H34  476   4.589   4.398   5.324  0.5500  0.9850 -0.3027
    2MOL    H35  477   4.509   4.504   5.428 -0.0528 -0.4838 -0.4891
    2MOL    H36  478   4.384   4.312   5.401  1.0660  0.3918 -0.7186
    2MOL    H37  479   4.488   4.196   5.457 -1.2122 -0.1346  1.4262
    2MOL    H38  480   4.325   4.268   5.640  0.5558 -2.6622 -1.4094
    2MOL    H39  481   4.369   4.429   5.605 -1.0830 -0.8068  1.5302
    2MOL    H40  482   4.491   4.331   5.809 -1.5034  1.5632 -1.4938
    2MOL    H41  483   4.579   4.221   5.702 -0.8347 -0.3375 -2.4354
    2MOL    H42  484   4.579   4.520   5.691 -0.1182  0.0608 -1.0350
    2MOL    H43  485   4.723   4.427   5.735 -2.2592 -0.3412  3.6411
    2MOL    H44  486   4.958   4.444   5.558 -1.9788 -0.2825  0.8580
    2MOL    H45  487   4.887   4.513   5.688  0.2388  2.2608  0.7614
    2MOL    C46  488   5.010   4.652   5.580  0.1581 -0.4420  0.0685
    2MOL    C47  489   5.145   4.595   5.561  0.0858 -0.1160 -0.1370
    2MOL    C48  490   5.189   4.510   5.682  0.4480 -0.3151  0.1921
    2MOL    C49  491   5.323   4.438   5.627 -0.5258 -0.2085 -0.1636
    2MOL    C50  492   5.430   4.540   5.586 -0.6099  0.4017 -0.2079
    2MOL    C51  493   5.383   4.641   5.475  0.9197 -0.4004 -0.5929
    2MOL    C52  494   5.246   4.704   5.519  1.0568 -0.3116 -0.4674
    2MOL    C53  495   5.000   4.731   5.715  0.4122 -0.2628 -0.4449
    2MOL    H54  496   4.986   4.717   5.495  0.5061  0.0432  0.3440
    2MOL    H55  497   5.141   4.528   5.475  0.0094  0.6562 -0.7324
    2MOL    H56  498   5.207   4.566   5.774 -0.5357  0.4827 -0.0947
    2MOL    H57  499   5.122   4.426   5.699 -1.2123  1.1134  0.8788
    2MOL    H58  500   5.306   4.366   5.547  0.4336 -1.8595  1.0919
    2MOL    H59  501   5.368   4.376   5.704 -2.0101 -0.2619  0.6904
    2MOL    H60  502   5.469   4.601   5.668 -0.0547  2.6677 -2.1011
    2MOL    H61  503   5.523   4.500   5.545 -0.4159  0.3168  0.3193
    2MOL    H62  504   5.379   4.594   5.377  0.2601  1.3472 -1.4091
    2MOL    H63  505   5.466   4.711   5.468  0.0222  1.0726  2.4421
    2MOL    H64  506   5.258   4.779   5.597  1.2044 -2.4548  1.6318
    2MOL    H65  507   5.205   4.764   5.438  0.5878 -0.7194 -0.5364
    2MOL    H66  508   5.092   4.786   5.733 -0.4371  1.1033 -0.1772
    2MOL    H67  509   4.997   4.657   5.795  0.3534  1.6692  1.3954
    2MOL    C68  510   4.880   4.820   5.739 -0.0869  0.4550  0.0802
    2MOL    C69  511   4.802   4.811   5.874  0.2386 -0.1660 -0.6857
    2MOL    C70  512   4.733   4.682   5.905  0.0818 -0.4150  0.4333
    2MOL    C71  513   4.656   4.679   6.037  0.1038 -0.6356 -0.3012
    2MOL    C72  514   4.765   4.696   6.146  0.8203  0.0149 -0.0833
    2MOL    C73  515   4.819   4.838   6.128  0.3566  0.6643 -0.2066
    2MOL    C74  516   4.890   4.860   5.990 -0.1497  0.2515 -0.1283
    2MOL    C75  517   4.916   4.963   5.688  0.6272  0.4721  0.9078
    2MOL    H76  518   4.797   4.788   5.675  0.3218 -1.9767  0.7504
    2MOL    H77  519   4.724   4.886   5.871  2.3108  2.0381 -0.8897
    2MOL    H78  520   4.817   4.613   5.907  0.8346  0.4925  0.2918
    2MOL    H79  521   4.673   4.647   5.820  0.9731  0.1849 -0.4580
    2MOL    H80  522   4.576   4.752   6.050  1.8484  0.9573  1.8886
    2MOL    H81  523   4.603   4.583   6.042 -0.3019 -0.3951  0.0233
    2MOL    H82  524   4.845   4.626   6.126  1.1090  0.2538  0.2212
    2MOL    H83  525   4.723   4.680   6.246 -0.9563 -2.3518 -1.1513
    2MOL    H84  526   4.896   4.847   6.205  1.9489 -0.9444 -1.5601
    2MOL    H85  527   4.745   4.917   6.133 -1.5057 -1.0522 -0.0667
    2MOL    H86  528   4.978   4.797   5.992  0.3064  0.8122 -1.8460
    2MOL    H87  529   4.933   4.960   5.989  0.0552  0.1583 -0.8455
    2MOL    H88  530   4.973   5.008   5.770 -2.6633  2.6790  2.0912
    2MOL    H89  531   4.984   4.954   5.603  0.9799  1.1412  1.1135
    2MOL    C90  532   4.801   5.058   5.651 -0.7530  0.2762 -0.2309
    2MOL    C91  533   4.851   5.203   5.646  0.4956  0.4724 -0.0098
    2MOL    C92  534   4.875   5.266   5.789 -1.0023  0.3140 -1.0455
    2MOL    C93  535   4.938   5.412   5.775  0.1385 -0.0799 -0.0511
    2MOL    C94  536   5.058   5.425   5.682  1.0110  0.2330  0.3837
    2MOL    C95  537   5.016   5.376   5.542 -0.0078 -0.2546  0.3292
    2MOL    C96  538   4.961   5.232   5.545  0.6399 -0.8687  0.0295
    2MOL    C97  539   4.716   5.006   5.536  0.6551  0.5153 -0.0632
    2MOL    H98  540   4.740   5.070   5.741  2.0355  1.7358  1.5542
    2MOL    H99  541   4.760   5.254   5.612 -0.2509 -1.5029 -1.0378
    2MOL   H100  542   4.948   5.214   5.851 -0.6564  3.0700  0.9125
    2MOL   H101  543   4.779   5.274   5.840 -2.7149 -4.6771 -3.1337
    2MOL   H102  544   4.962   5.441   5.877 -0.0400  1.3631 -0.4212
    2MOL   H103  545   4.866   5.488   5.745  1.2911  0.5310 -1.3490
    2MOL   H104  546   5.134   5.354   5.714  0.2411 -1.3307 -1.1783
    2MOL   H105  547   5.102   5.525   5.684  0.1543  0.7532 -2.8852
    2MOL   H106  548   4.938   5.440   5.499 -0.2616 -0.5399  0.3658
    2MOL   H107  549   5.098   5.389   5.471 -1.5036  1.1647 -1.2043
    2MOL   H108  550   4.916   5.204   5.449 -2.1679  0.4742  0.8934
    2MOL   H109  551   5.038   5.160   5.571  0.8297 -1.7188 -2.6876
    2MOL   H110  552   4.771   5.050   5.452  1.0533  0.3871  0.1307
    2MOL   H111  553   4.718   4.899   5.516 -2.2040  0.5381 -0.7482
    2MOL   C112  554   4.571   5.061   5.542 -0.5341  0.3435  0.4929
    2MOL   C113  555   4.490   4.976   5.649  1.3932 -0.0825 -0.2843
    2MOL   C114  556   4.474   4.826   5.617 -0.1061  0.4520  0.2102
    2MOL   C115  557   4.385   4.746   5.717 -0.0062  0.1860  1.0140
    2MOL   C116  558   4.249   4.812   5.732 -0.4881 -0.3445 -0.0360
    2MOL   C117  559   4.258   4.967   5.768  0.4045 -0.2175  0.4862
    2MOL   C118  560   4.349   5.045   5.672  0.7442 -0.5067  0.0382
    2MOL   C119  561   4.514   5.074   5.398  0.0351  0.4075  0.1279
    2MOL   H120  562   4.562   5.164   5.576  0.3716  0.6778 -0.2622
    2MOL   H121  563   4.539   4.992   5.744 -0.6704 -2.1176  1.1748
    2MOL   H122  564   4.571   4.780   5.632 -0.5147 -0.3069  0.5642
    2MOL   H123  565   4.447   4.806   5.513 -1.7120 -1.8511  1.0352
    2MOL   H124  566   4.381   4.641   5.687  0.3437  0.6541 -0.6817
    2MOL   H125  567   4.454   4.740   5.802 -1.1241 -2.7931  1.7743
    2MOL   H126  568   4.195   4.806   5.638 -0.0016  1.0204 -0.4193
    2MOL   H127  569   4.186   4.756   5.802  0.6283  0.1236  1.3753
    2MOL   H128  570   4.158   5.012   5.772  0.3809 -0.3029  0.8382
    2MOL   H129  571   4.298   4.966   5.870  1.8756 -2.5833 -0.0944
    2MOL   H130  572   4.362   5.148   5.704  1.4152 -0.1846 -1.2324
    2MOL   H131  573   4.304   5.049   5.573  0.5571 -4.3278 -0.1184
    2MOL   H132  574   4.410   5.042   5.386 -0.4756  1.5011  1.4961
    2MOL   H133  575   4.565   5.000   5.337 -1.1924 -0.0039 -0.4091
    2MOL   C134  576   4.526   5.213   5.331  0.5052  0.7615 -0.4277
    2MOL   C135  577   4.429   5.231   5.211  0.0599 -0.1400  0.4958
    2MOL   C136  578   4.287   5.247   5.260 -0.2880 -0.7133 -0.1749
    2MOL   C137  579   4.191   5.275   5.150  0.3331 -0.8734  0.3641
    2MOL   C138  580   4.206   5.173   5.026 -0.3373 -0.0105 -0.0152
    2MOL   C139  581   4.348   5.149   4.990 -0.0084  0.4643  0.2888
    2MOL   C140  582   4.443   5.124   5.105  0.0967  0.6725  0.2605
    2MOL   C141  583   4.670   5.260   5.304 -0.6303  0.1568 -0.8479
    2MOL   H142  584   4.494   5.286   5.405  0.2577  1.6999 -1.4473
    2MOL   H143  585   4.463   5.322   5.161  2.9655 -0.8530  1.1127
    2MOL   H144  586   4.241   5.161   5.310  1.6481 -1.2734  0.7094
    2MOL   H145  587   4.282   5.325   5.335  1.4001 -0.6023 -0.1596
    2MOL   H146  588   4.223   5.374   5.115 -2.5735  0.9317  2.5345
    2MOL   H147  589   4.092   5.302   5.186  0.6868 -1.2766  1.6607
    2MOL   H148  590   4.158   5.078   5.050  1.0770 -0.1942  2.2057
    2MOL   H149  591   4.156   5.211   4.937 -2.1639 -0.2384  0.8862
    2MOL   H150  592   4.383   5.245   4.953 -1.3577  0.1300 -1.9206
    2MOL   H151  593   4.349   5.079   4.907  0.6159  0.6488  0.1373
    2MOL   H152  594   4.422   5.023   5.142 -0.2256  0.3041 -0.9230
    2MOL   H153  595   4.547   5.126   5.074  0.8121  1.1963  2.5706
    2MOL   H154  596   4.712   5.183   5.240 -1.8014 -2.5994  1.6109
    2MOL   H155  597   4.722   5.265   5.400 -1.5948 -2.2336 -0.1781
    2MOL   C156  598   4.693   5.395   5.237 -0.0697  0.9199 -0.0474
    2MOL   C157  599   4.603   5.508   5.290  0.2492 -0.0541 -0.3129
    2MOL   C158  600   4.633   5.527   5.443  0.6838  0.0033  0.5924
    2MOL   C159  601   4.566   5.655   5.499 -0.2855 -0.1392  0.0873
    2MOL   C160  602   4.628   5.779   5.431  0.1327 -0.2327 -0.3325
    2MOL   C161  603   4.602   5.767   5.281 -0.0891 -0.4894  0.3155
    2MOL   C162  604   4.662   5.638   5.223 -0.1279 -0.7768  0.3196
    2MOL   C163  605   4.712   5.387   5.081 -0.2877  0.2815  0.4516
    2MOL   H164  606   4.791   5.429   5.272  0.3259  1.1172 -1.3215
    2MOL   H165  607   4.500   5.476   5.278  1.0269 -2.0847 -1.8099
    2MOL   H166  608   4.590   5.443   5.497  3.3295 -2.7674 -1.4858
    2MOL   H167  609   4.739   5.517   5.464  0.9170  1.2362  0.0769
    2MOL   H168  610   4.457   5.658   5.492 -0.4939 -0.1889  2.7444
    2MOL   H169  611   4.602   5.651   5.602 -2.1239  0.9460  0.7968
    2MOL   H170  612   4.734   5.798   5.445  1.0083 -2.8988 -2.7377
    2MOL   H171  613   4.574   5.867   5.465  0.5774 -0.3036  0.5647
    2MOL   H172  614   4.636   5.856   5.228 -1.4901  0.6068  1.2099
    2MOL   H173  615   4.493   5.762   5.273 -0.1982 -0.7162  1.8825
    2MOL   H174  616   4.640   5.653   5.117 -0.1686  0.3116  0.4781
    2MOL   H175  617   4.771   5.644   5.219 -0.1575  0.2720  0.7845
    2MOL   H176  618   4.645   5.457   5.031 -0.6915 -0.0992  0.4612
    2MOL   H177  619   4.656   5.302   5.041 -1.4505  0.7694  1.0222
    2MOL   C178  620   4.852   5.408   5.020 -0.3805 -0.0873 -0.4695
    2MOL   C179  621   4.952   5.290   5.038 -0.2644  0.3383  0.3144
    2MOL   C180  622   4.888   5.155   5.009 -0.0712  0.7387 -0.4138
    2MOL   C181  623   4.992   5.037   5.023  0.3230 -0.4779 -0.1029
    2MOL   C182  624   5.075   5.052   5.153  0.1731 -0.0242 -0.0317
    2MOL   C183  625   5.141   5.189   5.165  0.5105 -0.0807 -0.0947
    2MOL   C184  626   5.032   5.294   5.175  0.2816  0.2676  0.8232
    2MOL   C185  627   4.838   5.438   4.870 -0.1241  0.5488  0.2380
    2MOL   H186  628   4.898   5.494   5.067  0.2525 -0.7280  0.0875
    2MOL   H187  629   5.030   5.299   4.963 -0.0447 -1.7979  0.2577
    2MOL   H188  630   4.796   5.133   5.061  0.0732 -1.2538 -0.9546
    2MOL   H189  631   4.860   5.146   4.904 -1.9039  4.0093 -0.2564
    2MOL   H190  632   5.054   5.027   4.934  0.4953 -0.8133  0.0513
    2MOL   H191  633   4.945   4.938   5.020 -0.2425 -0.2540  1.0588
    2MOL   H192  634   5.015   5.031   5.241  2.1730 -2.1295  0.8798
    2MOL   H193  635   5.154   4.978   5.163  0.4518 -0.0296 -2.1019
    2MOL   H194  636   5.208   5.201   5.081 -0.7299 -0.8618 -1.2066
    2MOL   H195  637   5.205   5.189   5.254  0.0156  1.2303  0.2754
    2MOL   H196  638   4.960   5.277   5.255  0.7519 -0.8033  1.0191
    2MOL   H197  639   5.076   5.393   5.185 -2.9149  1.6240  2.0619
    2MOL   H198  640   4.879   5.354   4.814  3.9666  1.8013  1.2046
    2MOL   H199  641   4.736   5.437   4.830  0.2312  2.3771 -0.7244
    2MOL   C200  642   4.908   5.568   4.824 -0.2492 -0.2019 -0.5927
    2MOL   C201  643   4.928   5.562   4.672  0.2986  0.0011 -0.1387
    2MOL   C202  644   5.039   5.477   4.621 -0.0985 -0.5116  0.3619
    2MOL   C203  645   5.061   5.491   4.466 -0.7938  0.3075  0.4973
    2MOL   C204  646   4.933   5.460   4.385  0.6673 -0.5511  0.0117
    2MOL   C205  647   4.818   5.554   4.440 -0.6187 -0.5971  0.1113
    2MOL   C206  648   4.804   5.547   4.591 -0.2151 -0.1716  0.7887
    2MOL   C207  649   4.827   5.693   4.872  0.1638 -0.3516  0.3011
    2MOL   H208  650   5.006   5.566   4.871 -0.0995 -0.3227 -0.9037
    2MOL   H209  651   4.960   5.660   4.639  2.4420 -0.6265  0.0364
    2MOL   H210  652   5.016   5.370   4.629 -0.2566 -0.3792  1.7870
    2MOL   H211  653   5.134   5.514   4.659 -1.2681  3.3344 -0.3236
    2MOL   H212  654   5.098   5.592   4.447 -0.5278  0.2139  0.5158
    2MOL   H213  655   5.143   5.425   4.436 -1.7648 -0.2165 -1.0795
    2MOL   H214  656   4.934   5.487   4.280 -0.0497 -1.2764 -0.1876
    2MOL   H215  657   4.915   5.352   4.381 -0.9935 -0.3627  1.6589
    2MOL   H216  658   4.830   5.658   4.409 -2.4092 -0.8198 -1.3437
    2MOL   H217  659   4.722   5.536   4.392 -0.3507 -2.6592  0.2965
    2MOL   H218  660   4.724   5.612   4.627 -0.6654 -0.6513  0.6657
    2MOL   H219  661   4.749   5.456   4.614  0.4402 -0.5685  0.8037
    2MOL   H220  662   4.727   5.688   4.829 -0.2097  3.0810  0.7030
    2MOL   H221  663   4.817   5.683   4.980  0.1248 -1.1667  0.2295
    2MOL   C222  664   4.881   5.837   4.852  0.0987  0.0095 -0.3743
    2MOL   C223  665   4.764   5.932   4.832 -0.0793  0.2117  0.2658
    2MOL   C224  666   4.662   5.935   4.950 -0.1770 -0.0800 -0.4375
    2MOL   C225  667   4.550   6.036   4.923 -0.2531  0.0069  0.5744
    2MOL   C226  668   4.483   6.020   4.783 -0.0947  0.0839 -0.2566
    2MOL   C227  669   4.586   6.023   4.674  0.2246 -0.4602 -0.0694
    2MOL   C228  670   4.686   5.909   4.696 -0.4585  0.2685  0.1314
    2MOL   C229  671   4.989   5.868   4.961  0.1207 -0.4404 -0.5358
    2MOL   H230  672   4.931   5.843   4.755  2.6536 -0.2894  0.8747
    2MOL   H231  673   4.819   6.026   4.820  3.0738 -1.6637 -0.7873
    2MOL   H232  674   4.630   5.833   4.969 -1.6990  0.6433  0.9402
    2MOL   H233  675   4.715   5.968   5.039 -1.2818  0.4997  0.0077
    2MOL   H234  676   4.588   6.138   4.929 -0.9818  0.2614  0.9074
    2MOL   H235  677   4.468   6.035   4.994 -0.7805  5.3344  0.2665
    2MOL   H236  678   4.415   5.936   4.774 -0.0118 -0.1696  1.4130
    2MOL   H237  679   4.433   6.117   4.775 -0.3042  0.1562  1.6817
    2MOL   H238  680   4.625   6.124   4.677  1.1564 -0.8551  2.9218
    2MOL   H239  681   4.542   6.009   4.575 -1.2092  0.1531  0.4619
    2MOL   H240  682   4.634   5.813   4.687  0.4037 -0.3838  1.8314
    2MOL   H241  683   4.761   5.918   4.616 -0.5550  0.7063  0.0936
    2MOL   H242  684   5.074   5.801   4.944 -1.0855 -1.7846 -1.4172
    2MOL   H243  685   4.953   5.832   5.058  0.0152  2.3696  0.4941
    2MOL   C244  686   5.046   6.016   4.965 -0.3478  0.1642  0.2010
    2MOL   C245  687   5.133   6.068   4.843 -0.1964  0.1606 -0.0800
    2MOL   C246  688   5.250   5.968   4.801 -0.9501  0.3977  0.0948
    2MOL   C247  689   5.332   6.027   4.678  0.5839  0.2478  0.0317
    2MOL   C248  690   5.370   6.173   4.709 -0.0214 -0.0593  0.4640
    2MOL   C249  691   5.254   6.269   4.735 -0.6352 -0.4401  0.2425
    2MOL   C250  692   5.180   6.212   4.858 -0.5804  0.6391  0.0242
    2MOL   C251  693   5.124   6.035   5.107 -0.0919  0.1287 -0.1030
    2MOL   H252  694   4.958   6.080   4.963 -0.7118 -0.3126  0.7788
    2MOL   H253  695   5.067   6.055   4.757 -2.0917  2.1583  1.0210
    2MOL   H254  696   5.213   5.867   4.785  0.5349 -0.1651  0.1230
    2MOL   H255  697   5.320   5.958   4.884 -0.1420  0.7940 -0.5242
    2MOL   H256  698   5.418   5.965   4.655 -1.1094 -2.1252 -0.1133
    2MOL   H257  699   5.278   6.036   4.584  0.6868  2.9144  0.2096
    2MOL   H258  700   5.426   6.174   4.803 -0.0099 -1.0100  0.4708
    2MOL   H259  701   5.426   6.223   4.630  0.5998 -1.6382 -0.1176
    2MOL   H260  702   5.198   6.277   4.642 -1.4388 -2.2778  0.5302
    2MOL   H261  703   5.301   6.366   4.748 -2.1747  0.3928 -0.3010
    2MOL   H262  704   5.246   6.234   4.942  1.2281 -1.5361 -0.8013
    2MOL   H263  705   5.087   6.267   4.874 -0.3438  0.7366  1.1288
    2MOL   H264  706   5.230   6.021   5.088  0.0936  1.8680 -0.4137
    2MOL   H265  707   5.101   5.952   5.175  2.3417 -0.4212  0.0996
    2MOL   C266  708   5.102   6.172   5.181 -0.1873 -0.7459 -0.5533
    2MOL   C267  709   4.950   6.199   5.215 -0.3140  0.7638  0.5479
    2MOL   C268  710   4.916   6.338   5.272  0.5436  0.4640  0.4414
    2MOL   C269  711   4.767   6.364   5.277  0.2935  0.0834  0.1369
    2MOL   C270  712   4.689   6.255   5.357 -0.5069 -0.7129  0.2006
    2MOL   C271  713   4.731   6.117   5.307  1.0837  0.2461 -0.6276
    2MOL   C272  714   4.881   6.091   5.302  0.0258 -0.4124  0.0809
    2MOL   C273  715   5.192   6.186   5.305  0.5804  0.6687 -0.0109
    2MOL   H274  716   5.126   6.256   5.117 -1.9440  0.0217 -0.2487
    2MOL   H275  717   4.900   6.193   5.118 -1.0496 -0.3799  0.9748
    2MOL   H276  718   4.957   6.354   5.372 -0.7613  3.0870  0.6146
    2MOL   H277  719   4.968   6.416   5.217  2.8198 -0.8097  0.7398
    2MOL   H278  720   4.718   6.369   5.180 -0.3775 -0.6811  0.4215
    2MOL   H279  721   4.753   6.457   5.331 -0.4871  0.1892 -0.2385
    2MOL   H280  722   4.721   6.258   5.461  1.3400 -0.0016 -0.3639
    2MOL   H281  723   4.580   6.261   5.353 -0.4728  1.9187  1.9364
    2MOL   H282  724   4.686   6.105   5.208 -2.5458  0.2518  0.9376
    2MOL   H283  725   4.692   6.041   5.376  1.9690  0.0238 -0.3737
    2MOL   H284  726   4.901   5.991   5.263  0.7188 -0.0235 -0.5742
    2MOL   H285  727   4.920   6.093   5.404 -0.8042 -0.4246  0.4027
    2MOL   H286  728   5.280   6.132   5.270 -0.8461 -0.8174 -1.4164
    2MOL   H287  729   5.150   6.134   5.390  0.0463  0.7173 -0.2454
    2MOL   C288  730   5.246   6.320   5.361  0.1317 -0.8431  0.4784
    2MOL   C289  731   5.310   6.413   5.249  0.1415 -0.0266  0.4520
    2MOL   C290  732   5.362   6.552   5.302  0.2080  0.1956 -0.7192
    2MOL   C291  733   5.415   6.628   5.181 -0.0790  0.0375 -0.3961
    2MOL   C292  734   5.530   6.555   5.116  0.1895 -1.0204 -0.0397
    2MOL   C293  735   5.481   6.417   5.058  0.1931 -0.1786 -0.2709
    2MOL   C294  736   5.425   6.338   5.167  0.3033 -0.2352  0.2350
    2MOL   C295  737   5.348   6.299   5.474 -0.1821 -0.2156  0.2437
    2MOL   H296  738   5.166   6.388   5.388 -0.5420 -0.6580 -1.8287
    2MOL   H297  739   5.231   6.439   5.178  2.0978  0.1987 -1.6746
    2MOL   H298  740   5.273   6.596   5.348  0.1890 -1.6976  1.1017
    2MOL   H299  741   5.444   6.538   5.372 -0.0739 -0.0437 -0.4378
    2MOL   H300  742   5.336   6.651   5.109  0.0569  1.7964 -0.0246
    2MOL   H301  743   5.445   6.728   5.213  2.2155 -0.8565  0.3239
    2MOL   H302  744   5.619   6.537   5.176  0.9871 -1.7092 -1.4011
    2MOL   H303  745   5.578   6.606   5.033  0.5933 -0.1037  0.7503
    2MOL   H304  746   5.567   6.367   5.014  1.1206  0.5110  0.7165
    2MOL   H305  747   5.413   6.436   4.975 -0.0656 -1.9696 -0.4702
    2MOL   H306  748   5.501   6.301   5.236  2.1076  2.2720 -0.3534
    2MOL   H307  749   5.382   6.249   5.120  0.6055 -0.4698  0.3970
    2MOL   H308  750   5.449   6.272   5.445 -0.4268 -0.9697  0.0898
    2MOL   H309  751   5.351   6.400   5.516 -0.6990  0.3248 -1.0105
    2MOL   C310  752   5.309   6.205   5.596 -0.4612  0.2676 -0.1982
    2MOL   C311  753   5.430   6.193   5.694  0.0929 -0.2226  0.5404
    2MOL   C312  754   5.540   6.087   5.646 -0.1253 -0.4050  0.4476
    2MOL   C313  755   5.654   6.079   5.742  0.1356  0.2970 -0.3473
    2MOL   C314  756   5.715   6.208   5.786  0.9777 -0.8977 -0.1717
    2MOL   C315  757   5.609   6.306   5.839  0.5555  0.3102  0.0415
    2MOL   C316  758   5.504   6.328   5.733  0.4409 -0.4199  0.5541
    2MOL   C317  759   5.184   6.267   5.665 -0.3896 -0.4959 -0.8092
    2MOL   H318  760   5.293   6.099   5.578 -0.0094  0.0256  0.7645
    2MOL   H319  761   5.400   6.157   5.792 -1.2353  0.2006  0.3059
    2MOL   H320  762   5.490   5.990   5.641 -0.6631 -0.1927  1.6464
    2MOL   H321  763   5.575   6.117   5.547  0.4314  0.6495  0.9513
    2MOL   H322  764   5.733   6.014   5.704 -0.7049  0.3463 -2.1982
    2MOL   H323  765   5.624   6.014   5.824 -0.3840 -0.5279 -1.1836
    2MOL   H324  766   5.782   6.181   5.867 -1.6033 -2.6116  1.4870
    2MOL   H325  767   5.778   6.248   5.706 -0.8913  1.3072 -0.5996
    2MOL   H326  768   5.566   6.273   5.933 -0.8882  1.6285 -0.1311
    2MOL   H327  769   5.650   6.401   5.873  1.1152 -0.3630  1.2788
    2MOL   H328  770   5.552   6.374   5.647  0.1208 -0.9167  0.1028
    2MOL   H329  771   5.438   6.405   5.771  1.2078  0.4630  0.1072
    2MOL   H330  772   5.111   6.283   5.585 -0.1342 -0.9704 -1.1379
    2MOL   H331  773   5.209   6.370   5.693 -0.1191 -0.4369 -1.2634
    2MOL   C332  774   5.131   6.183   5.788 -0.0759  0.0820  0.5499
    2MOL   C333  775   5.049   6.057   5.752  0.0111 -0.1343 -0.3096
    2MOL   C334  776   4.909   6.082   5.697 -0.4480  0.0058 -0.2863
    2MOL   C335  777   4.835   5.958   5.654 -0.1189  0.0604  0.0457
    2MOL   C336  778   4.818   5.865   5.771  0.0671 -0.0282  0.0986
    2MOL   C337  779   4.956   5.835   5.838 -0.7782 -0.0396  0.1271
    2MOL   C338  780   5.036   5.964   5.872  0.4716 -0.8167  0.5620
    2MOL   C339  781   5.050   6.287   5.875 -0.8614 -0.4377 -0.5053
    2MOL   H340  782   5.204   6.143   5.858 -0.3092 -1.5805 -0.1577
    2MOL   H341  783   5.106   6.009   5.672 -0.9826 -0.9175 -0.5527
    2MOL   H342  784   4.844   6.137   5.766  0.2380  1.4354 -0.7469
    2MOL   H343  785   4.904   6.161   5.621  0.9851  1.3332  0.9494
    2MOL   H344  786   4.734   5.982   5.621 -0.1796  0.3963  0.4735
    2MOL   H345  787   4.894   5.915   5.573 -0.0402  1.2258 -0.5177
    2MOL   H346  788   4.759   5.903   5.854 -0.1523  0.3276 -0.2156
    2MOL   H347  789   4.774   5.772   5.736 -1.2723  1.2231 -1.6091
    2MOL   H348  790   5.016   5.778   5.767  1.0798  1.9349  0.0653
    2MOL   H349  791   4.936   5.770   5.924  2.0862 -2.9468 -1.2907
    2MOL   H350  792   5.127   5.952   5.931  2.5682  1.5635 -1.9998
    2MOL   H351  793   4.968   6.008   5.945  1.2243  0.0942  0.7192
    2MOL   H352  794   4.982   6.236   5.944  0.2308 -1.2648 -0.0244
    2MOL   H353  795   4.982   6.334   5.804  3.1773  1.9137 -2.9785
    2MOL   C354  796   5.126   6.390   5.956  0.4552 -0.3921 -0.1613
    2MOL   C355  797   5.226   6.329   6.060 -0.4551 -0.0947 -0.0976
    2MOL   C356  798   5.164   6.232   6.167 -0.7445  0.6138 -0.1874
    2MOL   C357  799   5.268   6.165   6.257  0.3222  0.5137 -0.5855
    2MOL   C358  800   5.363   6.268   6.320  0.0160 -0.0366  0.4104
    2MOL   C359  801   5.427   6.360   6.212  0.0199 -0.4740  0.8739
    2MOL   C360  802   5.315   6.435   6.137  0.3825 -0.4668 -0.2265
    2MOL   C361  803   5.021   6.492   6.021 -0.3362 -0.2194 -0.0582
    2MOL   H362  804   5.187   6.454   5.892 -0.2214  0.6398  0.2082
    2MOL   H363  805   5.294   6.271   5.997  0.1653  0.5990 -0.0656
    2MOL   H364  806   5.105   6.159   6.111  0.0369 -0.2144  0.0816
    2MOL   H365  807   5.089   6.283   6.228 -0.7926 -0.9738  1.0981
    2MOL   H366  808   5.234   6.097   6.335  2.0265 -1.3046 -1.3947
    2MOL   H367  809   5.329   6.109   6.186 -1.3946 -0.1580 -1.5825
    2MOL   H368  810   5.307   6.334   6.387  0.4480 -0.0598  0.8005
    2MOL   H369  811   5.442   6.214   6.374  1.0506  0.8262 -0.2405
    2MOL   H370  812   5.499   6.431   6.253  0.4060  0.1552 -0.8161
    2MOL   H371  813   5.489   6.306   6.140  1.1583  2.1394 -0.1870
    2MOL   H372  814   5.366   6.503   6.069 -1.3503  1.0658 -0.0238
    2MOL   H373  815   5.261   6.492   6.213 -1.0504 -0.8192 -0.9572
    2MOL   H374  816   5.076   6.530   6.107 -1.1498  3.3899 -1.0345
    2MOL   H375  817   4.948   6.424   6.066  1.2634 -0.0591  2.9539
    2MOL   C376  818   4.959   6.605   5.938 -0.6204  0.3373 -0.1905
    2MOL   C377  819   4.813   6.631   5.987 -0.3250 -0.2832 -0.1694
    2MOL   C378  820   4.801   6.654   6.142  0.3418  0.5312 -0.0452
    2MOL   C379  821   4.664   6.693   6.188 -0.0904 -0.2996  0.0650
    2MOL   C380  822   4.559   6.593   6.125 -0.0085  0.0500  0.3000
    2MOL   C381  823   4.572   6.566   5.974 -0.3879 -0.1451  0.0226
    2MOL   C382  824   4.711   6.525   5.946 -0.0706 -0.5899  0.0244
    2MOL   C383  825   5.040   6.741   5.926  0.1551 -0.1043 -0.2812
    2MOL   H384  826   4.961   6.574   5.834 -1.5056  2.2514 -0.7995
    2MOL   H385  827   4.767   6.720   5.945 -0.4377 -0.4676 -0.4361
    2MOL   H386  828   4.830   6.564   6.196 -0.1131 -0.6580 -1.7313
    2MOL   H387  829   4.883   6.720   6.169  0.9169 -0.3626  0.4369
    2MOL   H388  830   4.645   6.793   6.147  2.1974  0.7716  1.4889
    2MOL   H389  831   4.666   6.700   6.297 -1.8657  0.2246  0.0837
    2MOL   H390  832   4.563   6.493   6.166  1.5067 -0.7238 -1.6604
    2MOL   H391  833   4.455   6.622   6.140 -1.3613 -2.6710 -3.1809
    2MOL   H392  834   4.501   6.486   5.955 -0.7497 -0.3257  2.0064
    2MOL   H393  835   4.558   6.656   5.914  1.4123 -0.0865 -0.3475
    2MOL   H394  836   4.740   6.429   5.989  2.4249 -0.4227 -1.2194
    2MOL   H395  837   4.722   6.513   5.838  0.4262 -1.4989  0.1651
    2MOL   H396  838   5.106   6.746   6.012 -3.0665 -0.7934  2.3160
    2MOL   H397  839   4.978   6.831   5.923 -0.2322 -0.3824 -0.7191
    2MOL   C398  840   5.126   6.751   5.800  0.0971 -0.5112 -0.1919
    2MOL   C399  841   5.050   6.818   5.686 -0.2230 -0.4753 -0.0864
    2MOL   C400  842   4.928   6.748   5.631 -0.1150  0.8546 -0.3903
    2MOL   C401  843   4.884   6.814   5.501 -0.4926  0.0445  0.1111
    2MOL   C402  844   4.832   6.953   5.516  0.3291  0.0988  0.2919
    2MOL   C403  845   4.942   7.036   5.593 -0.0811 -0.4999  0.0438
    2MOL   C404  846   5.009   6.968   5.719  0.0169  0.1511  0.5780
    2MOL   C405  847   5.264   6.822   5.812 -0.7476 -0.3498 -0.0521
    2MOL   H406  848   5.147   6.650   5.766 -1.4659 -0.2279 -2.0497
    2MOL   H407  849   5.118   6.810   5.601  0.7300  0.3133  0.5864
    2MOL   H408  850   4.849   6.759   5.706 -0.1750 -2.7125  0.1950
    2MOL   H409  851   4.943   6.641   5.616  1.0252  0.8292  0.7575
    2MOL   H410  852   4.810   6.747   5.457 -0.3188 -0.8904  1.2436
    2MOL   H411  853   4.964   6.820   5.427 -0.0635  1.9392  0.7062
    2MOL   H412  854   4.739   6.963   5.572  1.4599 -2.0397  2.6529
    2MOL   H413  855   4.818   7.004   5.421 -0.5808 -0.8848 -0.1132
    2MOL   H414  856   5.010   7.065   5.513  0.7884 -1.0140  0.5951
    2MOL   H415  857   4.901   7.135   5.611  0.2192 -0.4221  0.2914
    2MOL   H416  858   5.100   7.022   5.743  0.9883 -1.1857 -0.0689
    2MOL   H417  859   4.941   6.979   5.803  1.1009  3.0029  1.1310
    2MOL   H418  860   5.302   6.851   5.714 -2.3811 -0.0712 -0.6228
    2MOL   H419  861   5.265   6.920   5.859  1.1276 -0.7472  0.7944
    2MOL   C420  862   5.366   6.732   5.876  0.8099  0.0982  0.2676
    2MOL   C421  863   5.436   6.788   6.009  0.0821  0.6304 -0.0560
    2MOL   C422  864   5.342   6.816   6.124  0.0727 -0.4531  0.2807
    2MOL   C423  865   5.406   6.848   6.257  0.5372  0.0304 -0.5633
    2MOL   C424  866   5.500   6.966   6.243 -0.0730 -0.1454 -0.2313
    2MOL   C425  867   5.606   6.938   6.135 -0.3488 -0.1527  0.3135
    2MOL   C426  868   5.534   6.910   5.996  0.1000 -0.6343  0.7052
    2MOL   C427  869   5.474   6.698   5.771 -0.5731  0.2889 -0.1069
    2MOL   H428  870   5.322   6.637   5.909 -1.5406  0.1058 -2.5889
    2MOL   H429  871   5.503   6.710   6.044 -0.7348 -0.4895 -0.9414
    2MOL   H430  872   5.275   6.901   6.109  2.8168  1.5502 -0.9871
    2MOL   H431  873   5.288   6.723   6.141  0.5906 -0.4362  2.0911
    2MOL   H432  874   5.330   6.861   6.334  3.6756 -0.8901  2.8105
    2MOL   H433  875   5.461   6.759   6.287 -2.1219 -1.7286 -0.7315
    2MOL   H434  876   5.535   6.984   6.344 -1.4243 -0.2425  0.2755
    2MOL   H435  877   5.444   7.053   6.209  0.6560 -0.4469 -2.2769
    2MOL   H436  878   5.680   6.859   6.151 -0.1436  0.2273  1.2177
    2MOL   H437  879   5.664   7.030   6.137 -0.9433  0.2060  1.2601
    2MOL   H438  880   5.475   6.999   5.973 -0.6862 -2.1380 -3.7217
    2MOL   H439  881   5.600   6.906   5.909 -0.8764  0.3261 -0.1023
    2MOL   H440  882   5.425   6.660   5.681  0.2948  1.1479 -0.9406
    2MOL   H441  883   5.529   6.786   5.738  0.8659 -0.3655  0.5154
    2MOL   H442  884   5.547   6.634   5.821  0.9361  0.6623 -1.8268
    3MOL     C1  885   2.224   3.127   4.441 -0.3832  0.1701 -0.4558
    3MOL     C2  886   2.170   3.242   4.352 -0.1268  0.3716 -0.2929
    3MOL     C3  887   2.231   3.237   4.210 -0.1227  0.0038 -0.7706
    3MOL     C4  888   2.223   3.369   4.130 -0.5689 -0.7773  0.3492
    3MOL     C5  889   2.248   3.503   4.207  0.0786 -0.3697 -0.1350
    3MOL     C6  890   2.168   3.497   4.341 -0.2887  0.2739 -0.3087
    3MOL     C7  891   2.195   3.374   4.421 -0.3579 -0.1415  0.6825
    3MOL     C8  892   2.174   3.117   4.588  0.1743 -0.1146  0.0298
    3MOL     H9  893   2.214   3.033   4.386  1.5698  0.2585 -1.0107
    3MOL    H10  894   2.061   3.230   4.353 -0.3717  2.3493  2.0286
    3MOL    H11  895   2.335   3.205   4.215 -0.2202 -0.3919 -1.2794
    3MOL    H12  896   2.182   3.160   4.151 -0.1032  1.0596 -2.1925
    3MOL    H13  897   2.123   3.376   4.085  0.2602 -0.0871 -1.4178
    3MOL    H14  898   2.283   3.358   4.039 -0.2822 -2.6165  0.7330
    3MOL    H15  899   2.212   3.586   4.146 -0.2791  0.3030  0.9873
    3MOL    H16  900   2.350   3.519   4.241  0.4454 -1.8169 -0.5204
    3MOL    H17  901   2.183   3.588   4.399  0.2258  0.9856 -1.5219
    3MOL    H18  902   2.065   3.494   4.305 -1.5686  2.0918  3.0443
    3MOL    H19  903   2.144   3.382   4.517  1.3531 -0.1205  1.6284
    3MOL    H20  904   2.303   3.382   4.438 -0.6464 -0.8819  3.0590
    3MOL    H21  905   2.066   3.132   4.581  0.6775  4.4878  0.8588
    3MOL    H22  906   2.207   3.207   4.639  1.7212  0.2400 -1.5438
    3MOL    H23  907   2.331   3.150   4.447  0.3263 -2.8485 -0.7532
    3MOL    C24  908   2.208   2.985   4.657  0.3153 -0.4180  0.1064
    3MOL    C25  909   2.367   2.964   4.673  0.0283 -0.1468  0.3187
    3MOL    C26  910   2.397   2.818   4.732 -0.4954  1.1101  0.0056
    3MOL    C27  911   2.548   2.799   4.748  0.0072  0.2475 -0.0412
    3MOL    C28  912   2.611   2.918   4.822 -0.6757 -0.7936 -0.0088
    3MOL    C29  913   2.576   3.053   4.765 -0.0819  0.3938  0.7662
    3MOL    C30  914   2.426   3.074   4.761 -0.0158 -0.5403 -0.2919
    3MOL    C31  915   2.124   2.954   4.783 -0.3703  0.0286 -0.5447
    3MOL    H32  916   2.169   2.913   4.585 -3.1648 -0.6523  2.1322
    3MOL    H33  917   2.410   2.966   4.573 -2.9640  0.3423 -1.0368
    3MOL    H34  918   2.365   2.736   4.668 -2.1243 -0.2998  2.5246
    3MOL    H35  919   2.357   2.791   4.830 -0.3176 -2.0640 -0.7347
    3MOL    H36  920   2.577   2.703   4.791  3.1298  1.4529  0.6265
    3MOL    H37  921   2.590   2.801   4.647  0.6050 -0.0478  0.1977
    3MOL    H38  922   2.720   2.913   4.818 -0.6585  0.0768 -0.8243
    3MOL    H39  923   2.585   2.915   4.928  0.6200 -0.2459  0.3344
    3MOL    H40  924   2.614   3.128   4.835  0.9060  1.0389 -0.4583
    3MOL    H41  925   2.612   3.073   4.664 -1.8295  0.0048  0.0474
    3MOL    H42  926   2.382   3.036   4.853 -0.9737 -0.2435 -0.6240
    3MOL    H43  927   2.382   3.168   4.729 -2.9579 -0.5812  3.2830
    3MOL    H44  928   2.127   3.046   4.842  1.3395  0.5313 -1.3764
    3MOL    H45  929   2.164   2.866   4.833 -1.6580 -0.8050 -0.9577
    3MOL    C46  930   1.978   2.919   4.756 -0.2365  0.4836  0.6805
    3MOL    C47  931   1.876   2.983   4.855 -0.1478  0.0775 -0.3409
    3MOL    C48  932   1.863   3.140   4.828 -0.6621  0.8433 -0.7061
    3MOL    C49  933   1.762   3.208   4.922  0.5414 -0.8132  0.1911
    3MOL    C50  934   1.788   3.165   5.070  0.5736  0.4954  0.0975
    3MOL    C51  935   1.796   3.014   5.086 -0.4531 -0.4958 -0.4072
    3MOL    C52  936   1.907   2.961   5.000  0.0382 -0.8596 -0.0199
    3MOL    C53  937   1.952   2.759   4.750 -0.4283  0.3352  0.5296
    3MOL    H54  938   1.943   2.963   4.663 -0.0503 -1.4654 -0.3281
    3MOL    H55  939   1.772   2.951   4.843 -0.6431  1.2689  0.7118
    3MOL    H56  940   1.957   3.194   4.842  1.0513 -2.1401 -0.1452
    3MOL    H57  941   1.833   3.155   4.725  1.1796  0.1780 -1.3682
    3MOL    H58  942   1.658   3.180   4.902  1.2128 -2.3451 -1.2039
    3MOL    H59  943   1.767   3.317   4.909  0.8146 -0.8511 -0.0164
    3MOL    H60  944   1.879   3.213   5.104  2.3920 -2.1369 -0.8767
    3MOL    H61  945   1.709   3.205   5.133  0.0721 -0.8281  0.3230
    3MOL    H62  946   1.698   2.973   5.061 -0.5705 -0.1660 -0.4879
    3MOL    H63  947   1.805   2.989   5.192 -0.7157  0.6146 -0.1213
    3MOL    H64  948   2.002   3.005   5.031 -0.0187  1.7478 -3.2458
    3MOL    H65  949   1.930   2.856   5.016  1.5028 -0.7956 -1.5734
    3MOL    H66  950   1.847   2.740   4.768 -0.3512  0.1536  0.7960
    3MOL    H67  951   1.998   2.719   4.841  0.6980 -1.3388 -0.7402
    3MOL    C68  952   2.013   2.677   4.627 -0.5439  0.1029 -0.3232
    3MOL    C69  953   2.003   2.523   4.648 -0.4154  0.4467 -0.5862
    3MOL    C70  954   2.122   2.465   4.738  0.4983 -0.0592  0.5550
    3MOL    C71  955   2.118   2.306   4.736 -0.2002 -0.2624 -0.4267
    3MOL    C72  956   1.982   2.256   4.785  0.4777 -0.6823 -0.3294
    3MOL    C73  957   1.868   2.312   4.706  0.0567  0.6603 -0.5566
    3MOL    C74  958   1.868   2.467   4.693  0.0464 -0.1468  0.0130
    3MOL    C75  959   1.956   2.719   4.492 -0.3433 -0.3141  0.3134
    3MOL    H76  960   2.121   2.695   4.622 -0.6039  1.2379  1.7836
    3MOL    H77  961   2.025   2.471   4.554  0.3731 -0.4934  0.1052
    3MOL    H78  962   2.120   2.509   4.838 -1.9844  0.0816  0.4586
    3MOL    H79  963   2.216   2.491   4.689 -0.8383  1.8109 -1.0919
    3MOL    H80  964   2.126   2.272   4.633  1.8664 -0.9917 -0.0497
    3MOL    H81  965   2.200   2.257   4.789 -0.8643 -0.6721  0.2325
    3MOL    H82  966   1.959   2.299   4.882  1.5824  2.3997 -1.3716
    3MOL    H83  967   1.972   2.148   4.802 -0.3691 -1.0691 -3.0866
    3MOL    H84  968   1.772   2.290   4.753 -0.0550  1.5583 -0.3518
    3MOL    H85  969   1.869   2.262   4.610 -0.5055 -0.8795  0.2175
    3MOL    H86  970   1.836   2.504   4.791  0.7778 -0.2847  0.3092
    3MOL    H87  971   1.791   2.507   4.626  0.8132  0.7658 -0.3367
    3MOL    H88  972   1.851   2.690   4.489  0.2298 -2.5152  0.0153
    3MOL    H89  973   1.937   2.825   4.501 -1.3698 -0.4803  0.1296
    3MOL    C90  974   2.024   2.669   4.354  0.3377 -0.2199  0.9084
    3MOL    C91  975   1.923   2.680   4.231  0.5497 -0.1592  0.1524
    3MOL    C92  976   1.798   2.584   4.244 -0.4883  0.6184 -0.5640
    3MOL    C93  977   1.705   2.595   4.129  0.3302 -0.2359  0.7794
    3MOL    C94  978   1.652   2.734   4.089  0.0736  0.2346 -0.1312
    3MOL    C95  979   1.772   2.825   4.068  0.2281 -0.5576 -0.1996
    3MOL    C96  980   1.864   2.822   4.193  0.2919 -0.2566  0.5987
    3MOL    C97  981   2.152   2.754   4.327  0.4987 -0.0410 -0.4041
    3MOL    H98  982   2.047   2.564   4.369  2.6896  0.3189  1.3432
    3MOL    H99  983   1.981   2.648   4.144  0.1842  1.1402 -0.5866
    3MOL   H100  984   1.732   2.609   4.327  1.4246 -0.0465  1.2266
    3MOL   H101  985   1.836   2.483   4.262 -0.2964  0.6046 -1.0608
    3MOL   H102  986   1.637   2.514   4.153 -0.7550 -0.4992 -2.9694
    3MOL   H103  987   1.744   2.541   4.043  0.1986 -0.6531  0.9819
    3MOL   H104  988   1.599   2.773   4.176 -0.7245  1.1766 -1.0392
    3MOL   H105  989   1.582   2.709   4.010  0.6312 -1.1938 -0.1889
    3MOL   H106  990   1.829   2.815   3.975  0.2626  1.8642 -0.4517
    3MOL   H107  991   1.733   2.925   4.054  0.5471 -0.2193  1.2578
    3MOL   H108  992   1.947   2.889   4.172 -0.1232 -0.1775 -0.8524
    3MOL   H109  993   1.819   2.869   4.281 -2.4241 -1.4124 -0.1053
    3MOL   H110  994   2.127   2.857   4.301 -1.3348 -0.3670  0.0103
    3MOL   H111  995   2.209   2.756   4.419 -1.2533  0.0856  0.6930
    3MOL   C112  996   2.246   2.708   4.217  0.1311 -0.0149  0.0117
    3MOL   C113  997   2.382   2.647   4.268 -0.0752  0.4980 -0.0879
    3MOL   C114  998   2.482   2.752   4.310 -0.0531  0.2348  0.3930
    3MOL   C115  999   2.615   2.703   4.375  0.4692 -0.3987 -0.0797
    3MOL   C116 1000   2.682   2.583   4.297  0.5963 -0.7537 -0.2958
    3MOL   C117 1001   2.577   2.473   4.271 -0.6532 -0.9538 -0.0512
    3MOL   C118 1002   2.455   2.537   4.187 -0.2065 -0.4402 -0.4844
    3MOL   C119 1003   2.256   2.815   4.100  0.3382 -0.2765  0.0781
    3MOL   H120 1004   2.196   2.622   4.171 -0.5359  0.0177  0.6676
    3MOL   H121 1005   2.354   2.612   4.368 -0.0395  0.3827 -0.1176
    3MOL   H122 1006   2.440   2.834   4.368 -0.7090  1.8314 -2.2629
    3MOL   H123 1007   2.512   2.801   4.218 -0.7938  0.9819  0.5545
    3MOL   H124 1008   2.696   2.773   4.391 -0.0530  0.1017  0.3929
    3MOL   H125 1009   2.589   2.659   4.471 -0.0732  0.6448  0.2561
    3MOL   H126 1010   2.727   2.617   4.204 -0.6541 -0.8246 -0.9384
    3MOL   H127 1011   2.768   2.551   4.356 -0.0220 -0.4117  0.7929
    3MOL   H128 1012   2.616   2.388   4.215  1.0584  0.0868 -0.4501
    3MOL   H129 1013   2.551   2.427   4.367 -1.6348  3.0966  1.7510
    3MOL   H130 1014   2.395   2.447   4.168 -1.7002  0.7271 -1.3768
    3MOL   H131 1015   2.485   2.577   4.091  1.1844  0.1088  0.1767
    3MOL   H132 1016   2.300   2.907   4.137 -0.4555  0.0844  0.1156
    3MOL   H133 1017   2.155   2.845   4.072  0.4772 -0.5503 -0.7448
    3MOL   C134 1018   2.331   2.782   3.970 -0.2865 -0.3000  0.2702
    3MOL   C135 1019   2.353   2.905   3.879  0.0928  0.2018 -0.1691
    3MOL   C136 1020   2.453   3.007   3.931  0.0401 -0.2410 -0.3058
    3MOL   C137 1021   2.489   3.110   3.818 -0.6516  0.3265 -0.7534
    3MOL   C138 1022   2.355   3.176   3.767 -0.1528 -0.3894 -0.5264
    3MOL   C139 1023   2.246   3.078   3.716  0.2105  0.1296 -0.3000
    3MOL   C140 1024   2.225   2.976   3.827  0.1956 -0.4518  0.4210
    3MOL   C141 1025   2.270   2.656   3.895 -0.1245 -0.1321  0.1885
    3MOL   H142 1026   2.432   2.758   4.001 -1.2443 -1.7272  2.3876
    3MOL   H143 1027   2.398   2.868   3.787  0.6881  3.2271 -1.1861
    3MOL   H144 1028   2.417   3.064   4.016  0.9620 -2.3469  1.5416
    3MOL   H145 1029   2.542   2.950   3.960 -0.5723 -1.4198 -0.7232
    3MOL   H146 1030   2.531   3.045   3.742  1.9241  0.1933  0.7049
    3MOL   H147 1031   2.553   3.191   3.854 -2.2694  2.1063 -1.8378
    3MOL   H148 1032   2.322   3.241   3.848  1.6749  2.7759 -2.2347
    3MOL   H149 1033   2.367   3.240   3.679 -5.5089 -0.0446 -1.1826
    3MOL   H150 1034   2.283   3.024   3.628  0.7006  0.2164 -0.1483
    3MOL   H151 1035   2.154   3.128   3.686  1.3640  1.9750 -0.8579
    3MOL   H152 1036   2.173   3.029   3.907 -2.0431  1.6795 -2.3707
    3MOL   H153 1037   2.151   2.907   3.787  1.0577 -0.5978 -0.9317
    3MOL   H154 1038   2.165   2.671   3.870 -0.5471  1.6153  2.7827
    3MOL   H155 1039   2.275   2.574   3.967  0.3923  0.1028  0.4192
    3MOL   C156 1040   2.344   2.599   3.770  0.4150  0.3096  0.9237
    3MOL   C157 1041   2.271   2.484   3.698  0.8503  0.4219  0.1696
    3MOL   C158 1042   2.248   2.359   3.793 -0.2556 -0.2174 -0.2825
    3MOL   C159 1043   2.170   2.251   3.730  0.5243  0.3296 -0.0625
    3MOL   C160 1044   2.046   2.299   3.660 -0.6766  0.1451  1.2859
    3MOL   C161 1045   2.064   2.421   3.564  0.0089 -0.7237 -0.0301
    3MOL   C162 1046   2.134   2.535   3.634 -0.5725  0.9719  0.2791
    3MOL   C163 1047   2.494   2.580   3.801 -0.7343  0.2099  0.1517
    3MOL   H164 1048   2.337   2.677   3.694  2.0818 -0.3960  0.0123
    3MOL   H165 1049   2.338   2.446   3.621  2.0326  0.3311  1.2340
    3MOL   H166 1050   2.344   2.322   3.829 -0.0090 -0.3590 -1.0802
    3MOL   H167 1051   2.187   2.390   3.877  1.1490 -1.5758  1.2842
    3MOL   H168 1052   2.232   2.210   3.649 -1.2558 -1.8961 -0.3793
    3MOL   H169 1053   2.148   2.172   3.802  2.3128 -0.4106 -0.2965
    3MOL   H170 1054   1.961   2.317   3.726 -1.7886  1.1601 -0.3499
    3MOL   H171 1055   2.016   2.218   3.593  0.5139  0.0098  0.8992
    3MOL   H172 1056   1.967   2.448   3.522  1.1557  1.0079 -1.6258
    3MOL   H173 1057   2.131   2.390   3.484  1.2424  1.3567  0.1803
    3MOL   H174 1058   2.160   2.619   3.569  2.3861 -0.8624 -1.0130
    3MOL   H175 1059   2.058   2.579   3.698 -1.3899 -0.7987  0.5412
    3MOL   H176 1060   2.501   2.502   3.876  2.9971 -1.7320 -2.0320
    3MOL   H177 1061   2.543   2.669   3.839  2.4172 -1.5235  0.3640
    3MOL   C178 1062   2.582   2.522   3.685 -0.5448  0.0477 -0.1810
    3MOL   C179 1063   2.603   2.615   3.561  0.2329  0.0684  1.4110
    3MOL   C180 1064   2.592   2.767   3.579 -0.0917 -0.5205  0.4344
    3MOL   C181 1065   2.637   2.848   3.452  0.5231  0.6245 -0.8972
    3MOL   C182 1066   2.562   2.806   3.326  0.6514  0.2074 -0.0950
    3MOL   C183 1067   2.553   2.651   3.311  0.3911  0.5248 -0.8050
    3MOL   C184 1068   2.507   2.583   3.442 -0.1822  0.0341 -0.2525
    3MOL   C185 1069   2.718   2.478   3.748 -0.0658 -0.2522  0.1492
    3MOL   H186 1070   2.536   2.431   3.648 -2.2189  1.3185 -1.2831
    3MOL   H187 1071   2.703   2.591   3.526 -0.4554 -2.2817  1.0092
    3MOL   H188 1072   2.490   2.800   3.601 -0.4326 -1.0033 -0.4078
    3MOL   H189 1073   2.654   2.802   3.662 -1.2395 -1.8469  1.8866
    3MOL   H190 1074   2.744   2.834   3.431  0.3964  0.5921 -1.5336
    3MOL   H191 1075   2.619   2.953   3.472  0.2716 -0.0692  3.0155
    3MOL   H192 1076   2.461   2.846   3.327 -0.3495 -2.1341  3.7163
    3MOL   H193 1077   2.624   2.849   3.247 -1.5756  0.5333 -1.7030
    3MOL   H194 1078   2.639   2.595   3.275 -1.4292 -2.9945  0.0204
    3MOL   H195 1079   2.478   2.627   3.236 -0.4322 -0.2791  0.2562
    3MOL   H196 1080   2.403   2.609   3.463  0.4496  1.7011  0.8763
    3MOL   H197 1081   2.513   2.478   3.413 -0.6695  0.6487 -2.6937
    3MOL   H198 1082   2.793   2.547   3.709 -0.6978  0.6676  0.5352
    3MOL   H199 1083   2.726   2.492   3.856 -2.7005  2.7957  0.0083
    3MOL   C200 1084   2.762   2.334   3.714 -0.2124  0.8586  0.0887
    3MOL   C201 1085   2.913   2.301   3.731 -0.4320  1.2984 -0.2767
    3MOL   C202 1086   2.996   2.379   3.621  0.4912  0.8802 -0.3189
    3MOL   C203 1087   3.144   2.345   3.631  0.1447 -0.6108 -0.4130
    3MOL   C204 1088   3.204   2.359   3.769  0.0688 -0.3936  0.3027
    3MOL   C205 1089   3.120   2.277   3.877 -0.2647 -0.0753  0.6612
    3MOL   C206 1090   2.976   2.336   3.867 -0.1006 -0.4302  0.1826
    3MOL   C207 1091   2.674   2.248   3.808  0.4086  0.5153  0.0855
    3MOL   H208 1092   2.734   2.302   3.614 -2.7234 -1.6096  1.4929
    3MOL   H209 1093   2.931   2.195   3.716 -0.9429  0.8952  1.7914
    3MOL   H210 1094   2.992   2.484   3.648  0.0252  0.4274  1.4178
    3MOL   H211 1095   2.946   2.364   3.525 -0.8207 -1.2852  0.6755
    3MOL   H212 1096   3.147   2.241   3.601 -1.1186 -0.6361 -0.5007
    3MOL   H213 1097   3.193   2.415   3.564 -0.4648  2.1127  1.8515
    3MOL   H214 1098   3.304   2.317   3.764 -0.0034 -0.3364 -1.6820
    3MOL   H215 1099   3.211   2.464   3.797  0.2991  0.0450 -1.3480
    3MOL   H216 1100   3.134   2.173   3.847  4.7041  0.8116 -0.4065
    3MOL   H217 1101   3.153   2.284   3.981  1.0023  0.3985  0.2289
    3MOL   H218 1102   2.928   2.285   3.951 -1.4820 -2.1980 -1.6073
    3MOL   H219 1103   2.966   2.443   3.886  0.0775  0.0170 -2.0845
    3MOL   H220 1104   2.704   2.263   3.912  1.7175  1.7893 -0.4493
    3MOL   H221 1105   2.569   2.278   3.803  0.0573 -0.9641 -1.9243
    3MOL   C222 1106   2.656   2.100   3.777 -0.5997 -0.0369 -0.0053
    3MOL   C223 1107   2.600   2.018   3.899 -0.4014 -0.1511  0.3293
    3MOL   C224 1108   2.480   2.077   3.973 -0.2065 -0.1670  0.0814
    3MOL   C225 1109   2.440   2.002   4.101  0.4361 -0.2636 -0.0146
    3MOL   C226 1110   2.558   1.987   4.203 -0.0520 -0.1661 -0.0298
    3MOL   C227 1111   2.673   1.918   4.130 -0.0057  0.0713 -0.2462
    3MOL   C228 1112   2.715   1.996   4.003  0.2009 -0.3281  0.5228
    3MOL   C229 1113   2.564   2.084   3.658 -0.6471  0.0173 -0.0389
    3MOL   H230 1114   2.750   2.051   3.750 -0.7069  0.2459 -0.9147
    3MOL   H231 1115   2.583   1.914   3.870  1.2597 -0.7824  1.5129
    3MOL   H232 1116   2.507   2.181   3.992  2.0269 -0.7093 -0.0024
    3MOL   H233 1117   2.400   2.062   3.900  0.9634 -1.9122 -0.8835
    3MOL   H234 1118   2.388   1.910   4.073 -1.6330  1.7823 -3.2720
    3MOL   H235 1119   2.367   2.066   4.151  0.4590 -0.2100 -0.0500
    3MOL   H236 1120   2.588   2.088   4.230 -0.0587 -0.5716  1.5551
    3MOL   H237 1121   2.522   1.933   4.291 -0.7417  0.8014  0.2882
    3MOL   H238 1122   2.647   1.818   4.093  2.8648 -0.4308 -1.0395
    3MOL   H239 1123   2.758   1.902   4.197 -0.5123  0.7159  0.5571
    3MOL   H240 1124   2.760   2.091   4.034  3.5141 -1.2342 -1.3072
    3MOL   H241 1125   2.791   1.945   3.943  1.7113  3.0940 -0.6299
    3MOL   H242 1126   2.517   2.176   3.622 -1.7020 -0.4706  0.0823
    3MOL   H243 1127   2.480   2.018   3.679  0.2590 -1.2013 -0.1429
    3MOL   C244 1128   2.644   2.022   3.540 -0.3645 -0.3518  0.0118
    3MOL   C245 1129   2.571   2.050   3.405  0.3375  0.0349  0.2917
    3MOL   C246 1130   2.576   2.196   3.347  0.4312 -0.1100  0.0606
    3MOL   C247 1131   2.511   2.198   3.208  0.3051 -0.4276  0.4131
    3MOL   C248 1132   2.375   2.133   3.202 -0.8225  0.1667  0.0682
    3MOL   C249 1133   2.373   1.985   3.248 -0.2276  0.3572 -0.2968
    3MOL   C250 1134   2.429   1.983   3.397  0.2001  0.4869 -0.3984
    3MOL   C251 1135   2.672   1.874   3.561 -0.0633  0.4274 -0.5089
    3MOL   H252 1136   2.738   2.077   3.536  0.1554 -1.3131 -1.5087
    3MOL   H253 1137   2.631   2.001   3.329  0.0319  0.6691 -0.3668
    3MOL   H254 1138   2.677   2.234   3.336 -0.3501  1.8270 -0.5976
    3MOL   H255 1139   2.525   2.260   3.419 -3.3009 -1.4984 -1.2150
    3MOL   H256 1140   2.505   2.299   3.168 -0.4037 -0.3052  0.8167
    3MOL   H257 1141   2.574   2.152   3.133 -1.6820  1.3179 -2.4135
    3MOL   H258 1142   2.303   2.177   3.272  1.2340  1.3656  1.4866
    3MOL   H259 1143   2.335   2.143   3.101  0.3021  1.4918 -0.2513
    3MOL   H260 1144   2.425   1.917   3.181  1.4996 -1.1436  2.4493
    3MOL   H261 1145   2.272   1.948   3.263 -1.0556  2.2628 -1.0065
    3MOL   H262 1146   2.366   2.039   3.465 -0.8597 -2.1972  0.9097
    3MOL   H263 1147   2.427   1.880   3.433  1.0135 -0.4186 -2.7878
    3MOL   H264 1148   2.590   1.814   3.521 -1.1130  0.8313  0.9980
    3MOL   H265 1149   2.671   1.857   3.669 -1.8137  2.1563 -0.2431
    3MOL   C266 1150   2.808   1.823   3.500 -0.1350  0.3453  0.4355
    3MOL   C267 1151   2.930   1.860   3.589 -0.1828 -0.1029 -0.4448
    3MOL   C268 1152   3.058   1.850   3.510  0.3251  0.6181 -0.2302
    3MOL   C269 1153   3.183   1.878   3.595 -0.9994 -0.4430  0.6483
    3MOL   C270 1154   3.188   1.809   3.734  0.5101 -0.0965 -0.2262
    3MOL   C271 1155   3.060   1.828   3.810 -0.4595  0.1434 -0.1042
    3MOL   C272 1156   2.945   1.777   3.721 -0.2312  0.1258  0.6473
    3MOL   C273 1157   2.801   1.669   3.467  0.1634  0.3497 -0.1552
    3MOL   H274 1158   2.814   1.879   3.407  2.4224 -1.1097 -0.3177
    3MOL   H275 1159   2.914   1.966   3.609 -1.3688 -0.4160  0.2958
    3MOL   H276 1160   3.066   1.755   3.458 -4.0174 -0.1139  0.3386
    3MOL   H277 1161   3.049   1.925   3.431  2.6122  0.5839 -0.5787
    3MOL   H278 1162   3.186   1.986   3.609 -1.5793 -0.3856  0.3386
    3MOL   H279 1163   3.269   1.846   3.535 -1.5579 -1.9988  0.6619
    3MOL   H280 1164   3.221   1.707   3.717 -0.0384  0.1477 -3.0421
    3MOL   H281 1165   3.275   1.854   3.782  2.0001 -1.3183 -1.7307
    3MOL   H282 1166   3.053   1.934   3.833  1.2406  0.0316  1.0048
    3MOL   H283 1167   3.056   1.782   3.909 -0.8436  0.1599 -0.1099
    3MOL   H284 1168   2.855   1.775   3.782 -0.4628 -0.5261  0.2847
    3MOL   H285 1169   2.954   1.671   3.701  1.6872  0.6069 -1.2745
    3MOL   H286 1170   2.740   1.624   3.545 -1.2466 -0.6272 -1.7978
    3MOL   H287 1171   2.898   1.625   3.493  0.5077  1.4576  0.4708
    3MOL   C288 1172   2.741   1.634   3.327  0.4614 -0.0157  0.3538
    3MOL   C289 1173   2.634   1.522   3.341  0.0564  0.0865  0.1156
    3MOL   C290 1174   2.494   1.579   3.371  0.6164 -0.9017  0.0556
    3MOL   C291 1175   2.388   1.470   3.404 -0.0370  0.7480  0.2259
    3MOL   C292 1176   2.376   1.386   3.276 -0.4558  0.3697  0.1595
    3MOL   C293 1177   2.511   1.322   3.244 -0.1787  0.9879  0.3131
    3MOL   C294 1178   2.620   1.429   3.225  0.4533  0.1929 -0.4964
    3MOL   C295 1179   2.861   1.596   3.228 -0.3336 -0.5020  0.8642
    3MOL   H296 1180   2.685   1.719   3.289 -0.2339 -1.4020 -1.7924
    3MOL   H297 1181   2.659   1.464   3.430 -1.9816  0.6497  1.0886
    3MOL   H298 1182   2.503   1.632   3.466  0.3586 -0.0472 -0.3958
    3MOL   H299 1183   2.453   1.647   3.296  1.1737 -0.1562  0.4230
    3MOL   H300 1184   2.427   1.396   3.474  0.2169  0.0527 -0.6417
    3MOL   H301 1185   2.289   1.508   3.429 -0.0529 -0.0728  1.4692
    3MOL   H302 1186   2.336   1.440   3.190 -1.8492  2.5098  2.1319
    3MOL   H303 1187   2.307   1.303   3.292 -2.2814  0.9612 -3.8631
    3MOL   H304 1188   2.512   1.248   3.164  0.0229  1.4575 -0.1220
    3MOL   H305 1189   2.532   1.253   3.325  2.0014  1.9618  0.6015
    3MOL   H306 1190   2.598   1.476   3.130  0.8274  1.8013  0.1967
    3MOL   H307 1191   2.714   1.377   3.208  1.8766  3.1485 -2.1177
    3MOL   H308 1192   2.926   1.517   3.266  1.5636 -1.1059 -3.2851
    3MOL   H309 1193   2.811   1.545   3.145 -1.7577 -0.0579  1.4319
    3MOL   C310 1194   2.946   1.714   3.168  0.2071  0.2865 -0.0968
    3MOL   C311 1195   3.085   1.680   3.101  0.5092 -0.0163 -0.0105
    3MOL   C312 1196   3.193   1.630   3.206  0.1572  1.0708  0.0225
    3MOL   C313 1197   3.319   1.581   3.136 -0.6393 -0.6356  0.5189
    3MOL   C314 1198   3.287   1.471   3.025  0.0613  0.0810  0.2494
    3MOL   C315 1199   3.191   1.518   2.919 -0.5188 -0.1040  0.8144
    3MOL   C316 1200   3.061   1.578   2.986  0.5114  0.4626 -0.0900
    3MOL   C317 1201   2.857   1.800   3.082  0.0055 -0.5582 -0.3108
    3MOL   H318 1202   2.974   1.774   3.254  1.2981 -1.4173  0.7645
    3MOL   H319 1203   3.131   1.773   3.069 -0.6253  0.8670  0.9059
    3MOL   H320 1204   3.215   1.713   3.273  0.1277 -0.4343  1.9502
    3MOL   H321 1205   3.150   1.548   3.263  1.8807  0.9188  1.1572
    3MOL   H322 1206   3.382   1.527   3.206  2.1105  1.1950 -0.4728
    3MOL   H323 1207   3.368   1.671   3.100 -2.5806  0.4960  0.6184
    3MOL   H324 1208   3.371   1.415   2.984 -1.5953 -1.9721 -0.4291
    3MOL   H325 1209   3.248   1.384   3.078  2.1023 -1.9359 -1.4706
    3MOL   H326 1210   3.244   1.588   2.854 -0.7527 -0.1618  0.5606
    3MOL   H327 1211   3.165   1.438   2.849  0.1509  0.3861 -0.0127
    3MOL   H328 1212   3.004   1.496   3.029  0.7803 -0.0683 -0.7381
    3MOL   H329 1213   3.007   1.627   2.905  0.8856 -1.3528 -1.4737
    3MOL   H330 1214   2.777   1.828   3.150  0.4932 -1.1184  0.5020
    3MOL   H331 1215   2.800   1.732   3.018 -0.7471  1.6462 -2.0367
    3MOL   C332 1216   2.919   1.918   3.009 -0.5166  0.0810 -0.0259
    3MOL   C333 1217   3.001   2.023   3.092  0.4661  0.4703  0.1415
    3MOL   C334 1218   2.912   2.107   3.188  0.1025  0.1049 -0.0018
    3MOL   C335 1219   2.998   2.199   3.274  0.3898  0.3177  0.2604
    3MOL   C336 1220   3.079   2.294   3.189 -0.0987  0.5708  0.5850
    3MOL   C337 1221   3.165   2.220   3.084  0.5157  0.2650  0.1508
    3MOL   C338 1222   3.098   2.115   3.001 -0.1005 -0.3825  0.5494
    3MOL   C339 1223   2.815   1.984   2.916 -0.1314 -0.3048  0.0969
    3MOL   H340 1224   2.996   1.877   2.944 -1.3951 -1.5522 -0.0529
    3MOL   H341 1225   3.062   1.963   3.160 -1.2601 -2.3789 -0.7243
    3MOL   H342 1226   2.837   2.164   3.132  1.2332  0.5739 -1.0621
    3MOL   H343 1227   2.862   2.025   3.239 -2.1665  1.8362  0.6690
    3MOL   H344 1228   2.934   2.262   3.337  0.1671  1.3865 -1.0144
    3MOL   H345 1229   3.065   2.143   3.340 -0.9494 -0.5338  0.9264
    3MOL   H346 1230   3.010   2.350   3.128  0.8753  1.0416 -0.0965
    3MOL   H347 1231   3.138   2.362   3.250  2.0600 -0.5731 -0.1710
    3MOL   H348 1232   3.247   2.181   3.144 -0.0672  1.2022  1.5751
    3MOL   H349 1233   3.186   2.304   3.017  0.1710  1.1260  1.1129
    3MOL   H350 1234   3.170   2.057   2.942 -1.6221  0.1830 -1.9082
    3MOL   H351 1235   3.035   2.166   2.928 -1.5603 -1.1496  1.2480
    3MOL   H352 1236   2.835   2.088   2.888 -2.4543 -0.3414 -1.8441
    3MOL   H353 1237   2.726   1.996   2.976  0.8572  0.3467  1.4710
    3MOL   C354 1238   2.786   1.906   2.783 -0.1556  0.3609 -0.3689
    3MOL   C355 1239   2.890   1.941   2.677  0.0719 -0.2517 -0.7030
    3MOL   C356 1240   2.881   2.084   2.625 -0.0219 -0.5922 -0.3423
    3MOL   C357 1241   2.984   2.117   2.519  0.1487  0.4048  0.3021
    3MOL   C358 1242   2.982   2.015   2.404 -0.7631 -0.7464  0.7724
    3MOL   C359 1243   3.012   1.872   2.455 -0.2758 -0.1541 -0.1799
    3MOL   C360 1244   2.906   1.831   2.560 -0.0473 -0.3064  0.5686
    3MOL   C361 1245   2.629   1.939   2.741  0.0392  0.0523  0.0373
    3MOL   H362 1246   2.784   1.802   2.815  1.7757  0.7719  1.1637
    3MOL   H363 1247   2.984   1.937   2.730  0.0256  0.5602 -0.5451
    3MOL   H364 1248   2.889   2.156   2.706 -0.7728 -1.4448  0.5005
    3MOL   H365 1249   2.781   2.111   2.591 -0.5881 -1.4274  0.6125
    3MOL   H366 1250   2.980   2.224   2.497  1.5749  0.5680  0.7905
    3MOL   H367 1251   3.078   2.113   2.575  0.0134  1.2919  0.5992
    3MOL   H368 1252   2.887   2.015   2.350 -0.5427  0.9295  0.3641
    3MOL   H369 1253   3.064   2.018   2.333 -0.0939 -1.5386  1.5031
    3MOL   H370 1254   3.025   1.797   2.377  1.8517 -0.4205  0.3784
    3MOL   H371 1255   3.101   1.864   2.519  0.9420  1.3224 -1.6701
    3MOL   H372 1256   2.932   1.728   2.586  2.6009  0.0872 -0.3579
    3MOL   H373 1257   2.807   1.828   2.515 -0.1118  3.1383  0.4145
    3MOL   H374 1258   2.625   2.044   2.713  0.0587 -0.3920 -1.6483
    3MOL   H375 1259   2.576   1.948   2.836  0.7428 -1.0651  0.5447
    3MOL   C376 1260   2.541   1.847   2.646 -0.2195  0.0585  0.4085
    3MOL   C377 1261   2.528   1.699   2.690 -0.1052 -0.1080 -0.0576
    3MOL   C378 1262   2.499   1.686   2.840 -0.0109  0.5713 -0.4598
    3MOL   C379 1263   2.478   1.541   2.886  0.2120 -0.2278 -0.9599
    3MOL   C380 1264   2.602   1.452   2.845 -0.5928  0.2828  0.1907
    3MOL   C381 1265   2.625   1.459   2.693 -0.5355  0.9496 -0.6474
    3MOL   C382 1266   2.643   1.608   2.645  0.0567 -0.4436 -0.9966
    3MOL   C383 1267   2.400   1.907   2.626  0.5368 -0.4164  0.0377
    3MOL   H384 1268   2.586   1.850   2.547 -1.8920 -1.5271 -0.4374
    3MOL   H385 1269   2.433   1.669   2.645 -0.3664  1.5527 -0.6443
    3MOL   H386 1270   2.573   1.733   2.905 -0.9764  0.6991  0.5588
    3MOL   H387 1271   2.407   1.742   2.858 -0.8326 -1.1451  0.8542
    3MOL   H388 1272   2.384   1.502   2.848  0.3702 -2.1656  0.5701
    3MOL   H389 1273   2.460   1.534   2.993  1.2980  0.9672 -0.6865
    3MOL   H390 1274   2.692   1.470   2.903 -0.2388 -1.1989  0.1376
    3MOL   H391 1275   2.588   1.348   2.876 -1.2866  0.2821 -0.1236
    3MOL   H392 1276   2.715   1.404   2.665 -0.3774 -0.4969  2.5172
    3MOL   H393 1277   2.543   1.404   2.646 -1.7940  2.3581 -0.1042
    3MOL   H394 1278   2.730   1.648   2.695 -0.4317  0.7671 -1.1033
    3MOL   H395 1279   2.670   1.593   2.541  2.7160  0.1863 -0.4176
    3MOL   H396 1280   2.413   2.014   2.647  0.4704 -0.5219  0.6398
    3MOL   H397 1281   2.340   1.873   2.711  1.0411  1.9644  1.3984
    3MOL   C398 1282   2.343   1.879   2.487  0.0066 -0.9092  0.2755
    3MOL   C399 1283   2.190   1.885   2.486  0.4627  0.5338 -0.6040
    3MOL   C400 1284   2.139   1.757   2.560  0.4940 -0.4264 -0.1909
    3MOL   C401 1285   1.987   1.747   2.551 -0.4234  0.0304 -0.1806
    3MOL   C402 1286   1.926   1.884   2.611  0.4907  0.6026  0.3424
    3MOL   C403 1287   1.981   2.002   2.525  0.2553 -0.3435 -0.2016
    3MOL   C404 1288   2.128   2.014   2.538 -0.0517 -0.2525  0.5264
    3MOL   C405 1289   2.406   1.957   2.364  0.4745  0.8179 -0.9134
    3MOL   H406 1290   2.376   1.777   2.466  3.0461  0.1973 -0.5143
    3MOL   H407 1291   2.178   1.865   2.380  0.2907  0.0530 -0.4930
    3MOL   H408 1292   2.153   1.766   2.668 -1.1725 -1.4548  0.1234
    3MOL   H409 1293   2.187   1.669   2.517 -1.9427 -1.2847 -1.2282
    3MOL   H410 1294   1.950   1.657   2.600  0.2715  0.4017  1.0425
    3MOL   H411 1295   1.962   1.758   2.445  1.6250  2.8907 -0.4216
    3MOL   H412 1296   1.953   1.910   2.713  0.2068 -0.4529  0.6976
    3MOL   H413 1297   1.817   1.885   2.609  0.4729  1.4377  1.6554
    3MOL   H414 1298   1.955   1.989   2.420 -2.0289 -1.7821  0.4908
    3MOL   H415 1299   1.938   2.091   2.572  1.5655 -0.0231  0.4019
    3MOL   H416 1300   2.162   2.098   2.477 -0.0521 -0.7708 -0.1899
    3MOL   H417 1301   2.165   2.031   2.639  3.3423  2.0314 -1.0103
    3MOL   H418 1302   2.346   2.049   2.362 -0.7728  0.1048  1.1508
    3MOL   H419 1303   2.500   2.000   2.397  0.1900 -0.4828  1.7584
    3MOL   C420 1304   2.404   1.896   2.223  0.2425  0.1663  0.3287
    3MOL   C421 1305   2.503   1.782   2.218  0.5675  0.3413 -0.0450
    3MOL   C422 1306   2.648   1.818   2.244  0.0306  0.8357  0.1213
    3MOL   C423 1307   2.735   1.688   2.247 -0.3238  0.3447  0.2539
    3MOL   C424 1308   2.728   1.625   2.105  0.1416 -0.2584 -0.6011
    3MOL   C425 1309   2.584   1.579   2.086  1.3045 -0.0259 -0.3197
    3MOL   C426 1310   2.487   1.701   2.088  0.6046 -0.2059 -0.5181
    3MOL   C427 1311   2.428   2.000   2.111 -0.6563  0.0994 -0.0341
    3MOL   H428 1312   2.304   1.856   2.204 -0.3246  1.7212 -0.0882
    3MOL   H429 1313   2.480   1.700   2.287  1.3838 -1.1278 -1.4664
    3MOL   H430 1314   2.679   1.877   2.158  1.0567  1.9870  1.2521
    3MOL   H431 1315   2.673   1.881   2.330 -1.2722 -0.3289  1.3885
    3MOL   H432 1316   2.835   1.729   2.261 -0.7355  1.5049 -0.1178
    3MOL   H433 1317   2.701   1.624   2.329  2.0469 -0.3962  0.6935
    3MOL   H434 1318   2.795   1.539   2.099  2.1638  1.3765 -2.5021
    3MOL   H435 1319   2.754   1.692   2.023  2.4357 -2.3413 -1.6473
    3MOL   H436 1320   2.567   1.498   2.157  1.8256 -1.4092 -1.7539
    3MOL   H437 1321   2.580   1.532   1.988 -0.9640 -2.5529  0.9177
    3MOL   H438 1322   2.503   1.766   2.002 -1.6399  0.0784 -0.7618
    3MOL   H439 1323   2.387   1.661   2.075 -0.2607  1.3042  1.2388
    3MOL   H440 1324   2.525   2.047   2.125 -0.0626 -1.3533  0.8332
    3MOL   H441 1325   2.420   1.962   2.010 -0.2142 -0.8710  0.2947
    3MOL   H442 1326   2.344   2.069   2.126 -1.9086 -1.5951  0.8995
    4MOL     C1 1327   2.241   4.753   4.028 -0.2026  0.2607  0.9179
    4MOL     C2 1328   2.234   4.907   4.059 -0.6444  0.7921  0.3834
    4MOL     C3 1329   2.127   4.939   4.172  0.0861  0.4193  0.7321
    4MOL     C4 1330   1.988   4.939   4.115 -0.3762  0.4042 -0.4763
    4MOL     C5 1331   1.975   5.024   3.986 -0.9580  0.1467  0.4761
    4MOL     C6 1332   2.073   4.977   3.880  0.1124  0.4222  0.1441
    4MOL     C7 1333   2.215   4.993   3.936 -0.0633  0.1614  0.0902
    4MOL     C8 1334   2.341   4.685   4.125  0.5173 -0.2462 -0.2085
    4MOL     H9 1335   2.142   4.707   4.025 -0.6433  1.0783  2.1703
    4MOL    H10 1336   2.323   4.950   4.104  0.7463 -0.9603 -0.6376
    4MOL    H11 1337   2.134   4.873   4.258 -0.8098 -1.7106 -0.7932
    4MOL    H12 1338   2.146   5.033   4.224  1.6301 -0.2451  1.3862
    4MOL    H13 1339   1.915   4.980   4.185 -0.8834  0.5832 -1.1111
    4MOL    H14 1340   1.966   4.837   4.083  0.5675  0.0616 -0.0753
    4MOL    H15 1341   1.999   5.129   4.004 -0.9479 -0.0425  1.6311
    4MOL    H16 1342   1.874   5.028   3.944 -0.3386  1.3541 -0.9352
    4MOL    H17 1343   2.050   4.873   3.855  0.7529  0.3707 -0.2567
    4MOL    H18 1344   2.056   5.031   3.786 -1.2402 -1.6823 -0.8621
    4MOL    H19 1345   2.236   5.098   3.958  2.7503 -0.6733  1.5732
    4MOL    H20 1346   2.288   4.972   3.857 -1.5543  0.1536 -1.3272
    4MOL    H21 1347   2.305   4.717   4.223  0.7550 -0.0888 -0.1723
    4MOL    H22 1348   2.435   4.739   4.110  0.3856  0.3977  1.2374
    4MOL    H23 1349   2.283   4.730   3.930 -1.6435 -0.3306  0.4268
    4MOL    C24 1350   2.343   4.526   4.131  0.5675 -0.0274  0.2191
    4MOL    C25 1351   2.377   4.465   3.991 -0.2450  0.7708 -0.2591
    4MOL    C26 1352   2.353   4.312   3.974  0.8627 -0.3934  0.4877
    4MOL    C27 1353   2.396   4.273   3.832  0.1446 -0.2105 -0.1032
    4MOL    C28 1354   2.544   4.310   3.808 -0.0353  0.1543 -0.0594
    4MOL    C29 1355   2.569   4.463   3.822 -0.4071 -0.4868  0.3544
    4MOL    C30 1356   2.525   4.497   3.961 -0.0685  0.1709 -0.5828
    4MOL    C31 1357   2.430   4.487   4.251 -0.4860 -0.5545  0.4308
    4MOL    H32 1358   2.237   4.502   4.135  0.2361  1.2134 -0.8385
    4MOL    H33 1359   2.322   4.518   3.914  0.0617  1.4273 -0.0323
    4MOL    H34 1360   2.248   4.289   3.993  0.0430  1.8549 -1.1252
    4MOL    H35 1361   2.403   4.250   4.049  2.7538  1.1674  0.5658
    4MOL    H36 1362   2.382   4.167   3.811 -0.1641 -0.2638  0.3820
    4MOL    H37 1363   2.336   4.321   3.754  1.9255 -0.0523 -1.4249
    4MOL    H38 1364   2.559   4.277   3.705  1.1077 -0.1912  0.2118
    4MOL    H39 1365   2.619   4.257   3.868 -0.0536  0.3060  0.0988
    4MOL    H40 1366   2.674   4.490   3.808 -0.6861  0.8295  0.7855
    4MOL    H41 1367   2.520   4.508   3.736  2.5155 -0.0431 -1.1525
    4MOL    H42 1368   2.596   4.456   4.032  0.4307  1.7973 -0.1357
    4MOL    H43 1369   2.524   4.603   3.984 -0.8182  0.0696 -0.1183
    4MOL    H44 1370   2.519   4.550   4.253 -0.3921 -0.5492 -2.3519
    4MOL    H45 1371   2.463   4.385   4.233 -0.6454 -0.4190 -0.6700
    4MOL    C46 1372   2.354   4.497   4.389  0.2282 -0.4882 -0.4158
    4MOL    C47 1373   2.448   4.497   4.514 -0.2393 -0.6500  0.1639
    4MOL    C48 1374   2.523   4.634   4.535  0.0420  0.0944  0.4397
    4MOL    C49 1375   2.596   4.640   4.665  0.4610 -0.2190 -0.9278
    4MOL    C50 1376   2.688   4.519   4.692  0.1670 -0.1175  0.3923
    4MOL    C51 1377   2.614   4.385   4.681  0.0142 -0.3580 -0.1958
    4MOL    C52 1378   2.548   4.380   4.540 -0.1452 -0.4900  0.2377
    4MOL    C53 1379   2.254   4.375   4.391 -0.2956  0.2585 -0.0970
    4MOL    H54 1380   2.308   4.595   4.398  0.2518 -0.4619 -0.5875
    4MOL    H55 1381   2.382   4.503   4.601  0.3772  1.7408  0.4988
    4MOL    H56 1382   2.596   4.646   4.456  0.8974  0.2078  1.2433
    4MOL    H57 1383   2.454   4.718   4.524  0.0200  0.2199  1.4429
    4MOL    H58 1384   2.527   4.642   4.750  0.6627 -0.6671 -0.7565
    4MOL    H59 1385   2.666   4.723   4.667 -1.0070  1.0436  3.4700
    4MOL    H60 1386   2.774   4.515   4.624  0.3744 -2.8204  0.7942
    4MOL    H61 1387   2.730   4.532   4.792  0.8070  2.5057 -0.1660
    4MOL    H62 1388   2.531   4.383   4.752  0.8167  0.6899  0.7923
    4MOL    H63 1389   2.686   4.306   4.702 -0.9362 -0.7873  1.5482
    4MOL    H64 1390   2.627   4.370   4.465  0.4200 -0.4320  0.8244
    4MOL    H65 1391   2.509   4.278   4.532  0.6864 -0.5649 -4.4721
    4MOL    H66 1392   2.318   4.288   4.376  0.8737  1.4833 -2.5361
    4MOL    H67 1393   2.211   4.367   4.291  0.9664 -0.9335 -0.5599
    4MOL    C68 1394   2.153   4.385   4.511  0.0822  0.6538  0.3273
    4MOL    C69 1395   2.081   4.528   4.532 -0.0483 -0.1049 -0.3956
    4MOL    C70 1396   2.013   4.587   4.406 -0.5480 -0.3192 -0.2388
    4MOL    C71 1397   1.928   4.718   4.428 -0.1885  0.1787  0.4433
    4MOL    C72 1398   1.842   4.705   4.554 -0.9524  0.1226 -0.2932
    4MOL    C73 1399   1.933   4.667   4.679  0.7612 -0.3212  0.4485
    4MOL    C74 1400   1.987   4.526   4.656  0.4587 -0.2353 -0.9644
    4MOL    C75 1401   2.056   4.268   4.484 -0.5211 -0.1612  0.7002
    4MOL    H76 1402   2.208   4.362   4.602  0.9236 -0.5203 -0.4638
    4MOL    H77 1403   2.152   4.607   4.559  1.1436 -1.2911 -0.0208
    4MOL    H78 1404   1.943   4.515   4.362  0.4749 -1.5241  0.0786
    4MOL    H79 1405   2.090   4.602   4.332  0.2364 -1.0850  0.4119
    4MOL    H80 1406   1.996   4.804   4.427  1.0937 -0.8161  0.9520
    4MOL    H81 1407   1.859   4.738   4.346 -0.1778  0.7399  0.5654
    4MOL    H82 1408   1.772   4.624   4.537 -0.7159 -0.2238  0.3533
    4MOL    H83 1409   1.777   4.790   4.580  0.8072  1.8169 -1.3129
    4MOL    H84 1410   1.877   4.676   4.771 -1.2424  0.8392 -0.8637
    4MOL    H85 1411   2.011   4.742   4.693 -0.4808  1.0541  0.0887
    4MOL    H86 1412   1.904   4.457   4.637  0.0891  0.2848 -1.2429
    4MOL    H87 1413   2.037   4.490   4.746 -0.3445  0.5782 -0.1802
    4MOL    H88 1414   1.954   4.301   4.504 -0.3495  0.9080 -0.1584
    4MOL    H89 1415   2.052   4.259   4.376 -1.5041 -0.1508  0.7371
    4MOL    C90 1416   2.087   4.137   4.550 -0.8235  0.4543 -0.1059
    4MOL    C91 1417   2.025   4.137   4.699 -0.5402  0.1406  0.0716
    4MOL    C92 1418   1.872   4.114   4.709 -0.5086 -1.1076  0.0654
    4MOL    C93 1419   1.811   4.128   4.848  0.0031 -0.6107  0.9746
    4MOL    C94 1420   1.882   4.042   4.952 -0.2216  0.1010 -0.6830
    4MOL    C95 1421   2.032   4.072   4.937  0.4176 -0.8780  0.1294
    4MOL    C96 1422   2.097   4.039   4.802  0.1167  0.2847  0.4148
    4MOL    C97 1423   2.060   4.010   4.469  0.7249  0.0350  0.6322
    4MOL    H98 1424   2.195   4.129   4.560 -0.7136  0.6592 -1.0446
    4MOL    H99 1425   2.057   4.232   4.741 -0.5593  0.4457 -0.5928
    4MOL   H100 1426   1.835   4.019   4.672  0.1437 -0.4470 -2.4461
    4MOL   H101 1427   1.816   4.181   4.643 -0.8794 -1.1900  0.2967
    4MOL   H102 1428   1.707   4.095   4.853  0.6313 -3.0330 -0.7535
    4MOL   H103 1429   1.801   4.234   4.873  0.7054 -0.5092  0.8378
    4MOL   H104 1430   1.856   3.937   4.939  1.2638 -0.2441 -0.9559
    4MOL   H105 1431   1.849   4.064   5.054  1.6683 -2.1297  0.4904
    4MOL   H106 1432   2.070   4.172   4.961 -1.6695  0.3117 -1.4105
    4MOL   H107 1433   2.087   4.011   5.009  0.4337 -0.1321  0.7636
    4MOL   H108 1434   2.201   4.071   4.807  0.3618 -0.6301  1.2843
    4MOL   H109 1435   2.089   3.935   4.772  2.3538  0.5775 -1.3127
    4MOL   H110 1436   2.038   3.921   4.528  0.1742 -0.1528  0.1485
    4MOL   H111 1437   1.960   4.031   4.430  1.0646  0.3884 -0.0453
    4MOL   C112 1438   2.173   3.983   4.360  0.4412  0.3084  0.0308
    4MOL   C113 1439   2.120   3.956   4.217  0.1919  0.1715 -0.7280
    4MOL   C114 1440   2.043   4.077   4.161 -0.0840 -1.2977  0.8092
    4MOL   C115 1441   2.012   4.050   4.018  0.1210  0.1114  0.4634
    4MOL   C116 1442   1.928   3.918   4.000  0.9225  0.5190  0.1910
    4MOL   C117 1443   2.002   3.793   4.054  0.2696 -0.1066 -0.6426
    4MOL   C118 1444   2.039   3.817   4.198 -0.1288 -1.0505 -0.0985
    4MOL   C119 1445   2.282   3.885   4.412  0.1516 -0.1090  0.0496
    4MOL   H120 1446   2.220   4.082   4.352  0.7844  0.1461  0.0397
    4MOL   H121 1447   2.215   3.952   4.164  2.3797  2.8129  2.7300
    4MOL   H122 1448   2.105   4.165   4.172 -1.2183 -0.5414  1.2557
    4MOL   H123 1449   1.953   4.092   4.221 -2.6898  0.6422 -3.3936
    4MOL   H124 1450   1.951   4.136   3.987  0.7107  0.0410 -0.8831
    4MOL   H125 1451   2.113   4.046   3.978  0.3406  0.1101  1.0012
    4MOL   H126 1452   1.831   3.935   4.047  1.1251 -1.9775  1.5503
    4MOL   H127 1453   1.908   3.909   3.893 -0.0378  1.7315  0.2522
    4MOL   H128 1454   1.923   3.719   4.047 -0.5958  0.9033 -1.8226
    4MOL   H129 1455   2.086   3.764   3.991  1.1967 -2.2543  1.5256
    4MOL   H130 1456   2.099   3.736   4.238  1.9178  0.1617 -0.6522
    4MOL   H131 1457   1.956   3.805   4.267  0.3391 -0.8049  0.5096
    4MOL   H132 1458   2.287   3.787   4.364 -1.4302 -0.3759  0.3869
    4MOL   H133 1459   2.257   3.870   4.517 -1.5529  2.3489  0.0363
    4MOL   C134 1460   2.424   3.933   4.420 -0.2105 -0.1960 -0.0035
    4MOL   C135 1461   2.485   3.982   4.290 -0.0703 -0.7271  0.7067
    4MOL   C136 1462   2.494   3.880   4.179 -0.6204  0.5452  0.2032
    4MOL   C137 1463   2.557   3.943   4.054 -1.0014  0.4666  0.3984
    4MOL   C138 1464   2.689   4.004   4.082  0.3340 -0.4442  0.4578
    4MOL   C139 1465   2.673   4.112   4.193 -0.3855  0.9272  0.2003
    4MOL   C140 1466   2.618   4.055   4.322  0.4447  0.0019 -0.4179
    4MOL   C141 1467   2.505   3.824   4.486  0.2906  0.1618  0.7438
    4MOL   H142 1468   2.426   4.023   4.482  1.6380 -1.3159  1.6494
    4MOL   H143 1469   2.421   4.061   4.251  1.2613  1.1309  2.1798
    4MOL   H144 1470   2.564   3.801   4.208  0.2460  1.4830  0.7172
    4MOL   H145 1471   2.403   3.835   4.141  0.6453 -0.5089 -1.7289
    4MOL   H146 1472   2.499   4.017   4.000  2.4905 -0.1161 -4.4785
    4MOL   H147 1473   2.572   3.871   3.974 -0.7559  0.5215  0.3946
    4MOL   H148 1474   2.766   3.933   4.113 -0.3824 -1.3817  0.1057
    4MOL   H149 1475   2.729   4.048   3.991 -0.6519  0.3785  0.4084
    4MOL   H150 1476   2.609   4.188   4.149  0.5494 -0.1177 -3.0466
    4MOL   H151 1477   2.768   4.164   4.212 -0.9260  1.5321  1.3223
    4MOL   H152 1478   2.700   3.985   4.342  0.3326 -0.1141 -0.3659
    4MOL   H153 1479   2.617   4.127   4.403  0.1240 -2.5627  1.9317
    4MOL   H154 1480   2.612   3.830   4.464  0.1722  0.9304  0.3541
    4MOL   H155 1481   2.473   3.731   4.440 -0.4105  0.4164  0.7191
    4MOL   C156 1482   2.490   3.789   4.644  0.4660  0.4958 -0.0807
    4MOL   C157 1483   2.571   3.900   4.732 -0.0253 -0.2681  0.5429
    4MOL   C158 1484   2.496   3.949   4.860  0.4546 -0.0844  0.0357
    4MOL   C159 1485   2.567   4.071   4.908  0.5715 -0.1146 -0.5751
    4MOL   C160 1486   2.713   4.038   4.950  0.6738 -0.5538 -0.1396
    4MOL   C161 1487   2.793   3.992   4.828  0.4529 -0.5732  0.0775
    4MOL   C162 1488   2.723   3.877   4.757  0.2425  0.2249  0.1813
    4MOL   C163 1489   2.539   3.644   4.686 -1.0650 -0.6270  0.3417
    4MOL   H164 1490   2.383   3.794   4.667  0.5269 -0.8393  0.4941
    4MOL   H165 1491   2.581   3.983   4.663  1.4295  0.9973  2.2204
    4MOL   H166 1492   2.388   3.955   4.857  0.3587 -0.8498  1.6060
    4MOL   H167 1493   2.508   3.878   4.942  1.3881 -0.4259 -0.3776
    4MOL   H168 1494   2.552   4.144   4.829 -0.9623  1.2250  0.9082
    4MOL   H169 1495   2.503   4.115   4.985  0.0417  0.0575 -1.1097
    4MOL   H170 1496   2.708   3.968   5.034  1.5517  1.1448  1.3788
    4MOL   H171 1497   2.759   4.130   4.986 -1.0983  0.4345 -0.3168
    4MOL   H172 1498   2.892   3.957   4.855  0.7081  0.8741  1.1086
    4MOL   H173 1499   2.784   4.075   4.757  1.3641 -1.2905 -0.8810
    4MOL   H174 1500   2.784   3.849   4.671  1.9881  0.4670  1.3151
    4MOL   H175 1501   2.735   3.784   4.812 -1.5587  0.5000  1.0695
    4MOL   H176 1502   2.642   3.630   4.654 -0.0526  0.7382  2.8743
    4MOL   H177 1503   2.502   3.563   4.623 -0.0929 -1.7473  1.1905
    4MOL   C178 1504   2.522   3.585   4.829 -0.3140 -0.1118 -0.2938
    4MOL   C179 1505   2.372   3.579   4.866 -0.2578 -0.3496 -0.2598
    4MOL   C180 1506   2.348   3.562   5.018  0.1362 -0.3721  0.0206
    4MOL   C181 1507   2.201   3.561   5.053 -0.7180  0.0758 -0.6915
    4MOL   C182 1508   2.122   3.453   4.979 -0.3603  0.5077 -0.7548
    4MOL   C183 1509   2.143   3.469   4.827 -0.4826  0.5288 -0.8557
    4MOL   C184 1510   2.288   3.471   4.790  0.0621 -0.2076 -0.3912
    4MOL   C185 1511   2.595   3.452   4.845 -0.6134  0.3969 -0.2634
    4MOL   H186 1512   2.571   3.654   4.898 -1.4015 -1.8550  2.2884
    4MOL   H187 1513   2.328   3.677   4.843  0.7908  0.5468  1.4343
    4MOL   H188 1514   2.384   3.469   5.062 -0.0775 -0.6200 -0.3228
    4MOL   H189 1515   2.403   3.632   5.081  0.1598 -1.1282  0.8564
    4MOL   H190 1516   2.162   3.659   5.025  1.4175  1.0243 -0.3839
    4MOL   H191 1517   2.187   3.546   5.160 -1.5420 -1.4152 -0.9829
    4MOL   H192 1518   2.176   3.365   5.013 -0.2670 -0.1792 -2.6581
    4MOL   H193 1519   2.017   3.443   5.007  0.3883 -0.2040  1.9297
    4MOL   H194 1520   2.088   3.559   4.799 -1.9454  0.6075  1.9964
    4MOL   H195 1521   2.088   3.389   4.777  0.7063 -2.3355  2.1816
    4MOL   H196 1522   2.339   3.379   4.820  0.8664  0.6417  0.9144
    4MOL   H197 1523   2.294   3.483   4.682 -2.3361 -0.9342 -0.6418
    4MOL   H198 1524   2.558   3.398   4.932 -0.1256  0.3155 -0.1059
    4MOL   H199 1525   2.575   3.396   4.754 -0.9575  2.1119 -1.2678
    4MOL   C200 1526   2.748   3.461   4.882 -0.1714 -0.6333  0.6685
    4MOL   C201 1527   2.777   3.460   5.041  0.1583 -0.8749 -0.1027
    4MOL   C202 1528   2.770   3.320   5.108  0.1214 -0.1855 -0.0392
    4MOL   C203 1529   2.778   3.347   5.259 -0.3120 -0.3989 -0.2438
    4MOL   C204 1530   2.914   3.405   5.302 -0.4004  0.6714  0.3508
    4MOL   C205 1531   2.933   3.540   5.236 -0.3228  0.3032 -0.1517
    4MOL   C206 1532   2.906   3.531   5.088 -0.5397 -0.5280  0.5314
    4MOL   C207 1533   2.838   3.354   4.808  0.0741 -1.2168  0.3890
    4MOL   H208 1534   2.787   3.562   4.867 -1.0444 -0.3775  0.0190
    4MOL   H209 1535   2.695   3.521   5.078 -0.7111 -1.8942 -0.3192
    4MOL   H210 1536   2.856   3.261   5.076 -0.3292  0.6624 -3.0224
    4MOL   H211 1537   2.678   3.265   5.088  0.2384 -0.1333 -0.7267
    4MOL   H212 1538   2.704   3.423   5.283  2.2946  1.6062  1.7839
    4MOL   H213 1539   2.767   3.256   5.318 -2.3164  0.0352  0.0806
    4MOL   H214 1540   2.907   3.424   5.409  1.9432  0.1822  0.6068
    4MOL   H215 1541   2.994   3.335   5.276  1.0284  2.1257  0.7621
    4MOL   H216 1542   2.872   3.619   5.279  1.6888  0.5175  2.4294
    4MOL   H217 1543   3.035   3.576   5.250  0.0579 -0.9227  0.3426
    4MOL   H218 1544   2.909   3.634   5.052  0.0540 -0.2025  1.4879
    4MOL   H219 1545   2.995   3.487   5.041  1.1249  1.0791  2.0995
    4MOL   H220 1546   2.923   3.323   4.870 -0.5885  1.0212  2.4933
    4MOL   H221 1547   2.786   3.261   4.785 -1.6230 -0.3427  0.6123
    4MOL   C222 1548   2.884   3.398   4.667  0.0975  0.3353 -0.1943
    4MOL   C223 1549   2.999   3.506   4.686 -0.3227  0.4756  0.5529
    4MOL   C224 1550   3.003   3.625   4.589 -0.3711 -0.7853  0.3723
    4MOL   C225 1551   3.107   3.732   4.635 -0.2426  0.1030 -0.4065
    4MOL   C226 1552   3.244   3.668   4.643  0.4206 -0.4910  0.4388
    4MOL   C227 1553   3.238   3.546   4.739 -0.5890  0.2253 -0.5913
    4MOL   C228 1554   3.136   3.444   4.708  0.1301  0.1005 -0.5128
    4MOL   C229 1555   2.911   3.289   4.558  0.9330  0.4522  1.1543
    4MOL   H230 1556   2.793   3.446   4.633  0.7098  0.3069 -1.9399
    4MOL   H231 1557   2.978   3.563   4.777  0.7539  1.1044  0.4139
    4MOL   H232 1558   3.037   3.597   4.489  0.9041  2.3961 -0.1576
    4MOL   H233 1559   2.904   3.670   4.580 -1.1512 -2.1286  1.9758
    4MOL   H234 1560   3.078   3.771   4.732 -0.2329  0.3273 -0.4930
    4MOL   H235 1561   3.112   3.816   4.565 -0.4680 -0.6935 -1.4056
    4MOL   H236 1562   3.254   3.625   4.543 -2.0274 -1.6786  0.6697
    4MOL   H237 1563   3.330   3.735   4.646  0.9587 -1.2029  1.1922
    4MOL   H238 1564   3.237   3.578   4.844 -0.8782 -0.0936 -0.4974
    4MOL   H239 1565   3.338   3.503   4.735 -1.1428 -1.1321 -0.1295
    4MOL   H240 1566   3.163   3.385   4.620 -0.6940  1.2752 -1.5803
    4MOL   H241 1567   3.131   3.372   4.790 -0.8308 -0.3018 -0.9033
    4MOL   H242 1568   2.824   3.225   4.548 -0.2219  1.8999  1.6542
    4MOL   H243 1569   2.989   3.238   4.616  0.9994  1.9338  2.4217
    4MOL   C244 1570   2.955   3.328   4.420 -0.5923  0.3440  0.0575
    4MOL   C245 1571   2.858   3.419   4.337  1.0079 -0.0983 -0.1100
    4MOL   C246 1572   2.718   3.352   4.314 -0.2611 -0.2132 -0.2593
    4MOL   C247 1573   2.636   3.446   4.225 -0.5926  0.2133 -0.5084
    4MOL   C248 1574   2.703   3.491   4.094 -0.7041 -0.2745 -0.9016
    4MOL   C249 1575   2.825   3.576   4.137  0.2628 -0.5000  0.1556
    4MOL   C250 1576   2.926   3.482   4.211 -0.4088  0.0580 -0.8752
    4MOL   C251 1577   2.993   3.197   4.344 -0.2403  0.1983 -0.5280
    4MOL   H252 1578   3.049   3.381   4.436  0.6005 -1.9959  1.0327
    4MOL   H253 1579   2.844   3.503   4.405 -1.4440  0.1697 -0.9162
    4MOL   H254 1580   2.668   3.332   4.409  2.9021 -0.1204  1.4858
    4MOL   H255 1581   2.727   3.257   4.261  0.5633 -0.0666 -0.3824
    4MOL   H256 1582   2.538   3.408   4.196 -1.1534  1.1276  0.1645
    4MOL   H257 1583   2.606   3.529   4.290  1.6032 -1.3842  2.6751
    4MOL   H258 1584   2.743   3.402   4.045  2.3841  0.7174 -0.3290
    4MOL   H259 1585   2.629   3.547   4.036 -0.3965  1.6389  0.4745
    4MOL   H260 1586   2.793   3.651   4.209 -0.2694 -1.3819  0.8501
    4MOL   H261 1587   2.861   3.624   4.046  0.9831  0.6255  1.0396
    4MOL   H262 1588   2.961   3.409   4.138  0.3827 -0.1283 -0.3185
    4MOL   H263 1589   3.017   3.527   4.250 -0.6254 -0.2844  0.0449
    4MOL   H264 1590   2.927   3.179   4.259  1.8861  1.3408 -2.4782
    4MOL   H265 1591   2.975   3.101   4.392 -0.2043  1.2630  1.6670
    4MOL   C266 1592   3.132   3.201   4.273  0.2526  0.5736 -0.1097
    4MOL   C267 1593   3.257   3.190   4.377 -0.1325 -0.5755  0.1005
    4MOL   C268 1594   3.394   3.244   4.324 -0.2102  0.2995  1.1756
    4MOL   C269 1595   3.495   3.240   4.435  0.6946 -0.3494 -0.1863
    4MOL   C270 1596   3.514   3.108   4.503  0.1813  0.1038  0.5373
    4MOL   C271 1597   3.379   3.057   4.551 -0.4558  0.1183  0.0346
    4MOL   C272 1598   3.277   3.050   4.434  0.0637  0.2245 -0.7412
    4MOL   C273 1599   3.141   3.099   4.162  0.1887 -0.5617  0.0874
    4MOL   H274 1600   3.144   3.295   4.219  0.4706  0.5209 -0.1542
    4MOL   H275 1601   3.224   3.248   4.464 -3.7357 -0.6868 -1.1177
    4MOL   H276 1602   3.427   3.185   4.238  0.3999 -1.2321  2.4282
    4MOL   H277 1603   3.377   3.347   4.294  1.9549  0.1964 -0.4918
    4MOL   H278 1604   3.463   3.311   4.512  0.5756  0.0958 -0.6473
    4MOL   H279 1605   3.591   3.275   4.398  1.7550 -3.9653 -1.0303
    4MOL   H280 1606   3.560   3.034   4.438 -0.3761  0.1907  0.0518
    4MOL   H281 1607   3.580   3.129   4.588 -0.0585  2.0078  0.2680
    4MOL   H282 1608   3.338   3.106   4.639 -2.6980  3.3625 -2.6824
    4MOL   H283 1609   3.406   2.954   4.576 -1.8125  0.2647  2.2034
    4MOL   H284 1610   3.182   3.000   4.456  1.1301 -1.2819  0.4748
    4MOL   H285 1611   3.323   2.984   4.360  1.2515  0.1245  0.0810
    4MOL   H286 1612   3.103   3.009   4.210 -0.8209 -0.7931 -1.1221
    4MOL   H287 1613   3.245   3.077   4.141  0.9091 -0.2584  3.0318
    4MOL   C288 1614   3.076   3.139   4.027 -0.7172  0.3070  0.1312
    4MOL   C289 1615   2.988   3.026   3.969  0.5574  0.1176  0.1093
    4MOL   C290 1616   3.075   2.901   3.942 -0.2330  0.7707  0.0276
    4MOL   C291 1617   2.996   2.778   3.889  0.2344 -0.2483  0.5139
    4MOL   C292 1618   2.898   2.753   3.995  0.0417  0.0078  0.1943
    4MOL   C293 1619   2.798   2.868   4.014  0.1513 -0.4792 -0.2083
    4MOL   C294 1620   2.868   2.993   4.057  0.2104 -0.3471 -0.0479
    4MOL   C295 1621   3.182   3.201   3.931  0.1916 -0.7758 -0.1075
    4MOL   H296 1622   2.997   3.213   4.043 -1.2494 -0.3758  0.6426
    4MOL   H297 1623   2.940   3.058   3.876 -1.3752  0.0824  1.0585
    4MOL   H298 1624   3.150   2.923   3.866  1.1482 -4.7276 -0.4256
    4MOL   H299 1625   3.121   2.867   4.035 -0.4216  1.3876  0.3496
    4MOL   H300 1626   2.954   2.803   3.791 -0.5788 -3.6471 -0.0709
    4MOL   H301 1627   3.062   2.698   3.858 -0.4643  0.1549 -2.1404
    4MOL   H302 1628   2.952   2.720   4.084  1.4691  0.5830 -0.4554
    4MOL   H303 1629   2.834   2.669   3.968 -1.1615 -0.0736  3.0397
    4MOL   H304 1630   2.722   2.847   4.089  0.0921  2.2450  0.5670
    4MOL   H305 1631   2.759   2.895   3.915 -4.8705  2.3335  2.3231
    4MOL   H306 1632   2.890   2.977   4.163  0.3308  1.3719  0.2044
    4MOL   H307 1633   2.798   3.076   4.054 -0.1608 -0.6083  1.0723
    4MOL   H308 1634   3.232   3.278   3.989  0.0121 -2.0965  1.8374
    4MOL   H309 1635   3.261   3.126   3.922  1.2690  0.3236  0.1075
    4MOL   C310 1636   3.124   3.261   3.798 -0.1776  0.3084  0.1073
    4MOL   C311 1637   3.211   3.386   3.756  0.2010  0.2689 -0.1037
    4MOL   C312 1638   3.192   3.510   3.840 -0.5044 -0.4444  0.3662
    4MOL   C313 1639   3.277   3.625   3.796 -0.5945 -0.0634  0.4014
    4MOL   C314 1640   3.429   3.584   3.803 -0.0098  0.7872  0.0141
    4MOL   C315 1641   3.449   3.467   3.701  0.2709  0.3602 -0.2455
    4MOL   C316 1642   3.362   3.345   3.741 -0.9609 -0.7076 -0.4921
    4MOL   C317 1643   3.125   3.153   3.688  0.4318  0.5893  0.2221
    4MOL   H318 1644   3.026   3.305   3.811  2.0428  5.9890 -1.0937
    4MOL   H319 1645   3.173   3.410   3.657  1.1958  0.9714 -0.3320
    4MOL   H320 1646   3.086   3.536   3.841 -0.8292 -1.7702  1.2446
    4MOL   H321 1647   3.214   3.488   3.944 -0.8886 -1.0425  0.3257
    4MOL   H322 1648   3.269   3.720   3.848  0.9971 -0.5962  1.6768
    4MOL   H323 1649   3.248   3.654   3.695 -1.0910 -2.0066 -0.0358
    4MOL   H324 1650   3.494   3.671   3.791  0.7630  0.5554  2.1841
    4MOL   H325 1651   3.455   3.555   3.905  0.4533 -0.6865 -0.5122
    4MOL   H326 1652   3.416   3.499   3.602 -0.2862 -0.7343 -0.4198
    4MOL   H327 1653   3.555   3.444   3.700  0.0096 -0.9266  0.3275
    4MOL   H328 1654   3.408   3.308   3.832  0.3943  1.3022 -0.3176
    4MOL   H329 1655   3.375   3.256   3.679 -1.9876 -1.5001  0.4117
    4MOL   H330 1656   3.060   3.073   3.723  2.3137 -0.7811  0.6981
    4MOL   H331 1657   3.223   3.104   3.698 -1.1836 -2.3911  2.2125
    4MOL   C332 1658   3.089   3.185   3.540  0.1399 -0.3367  0.0164
    4MOL   C333 1659   2.950   3.256   3.537  0.0081 -0.3756  0.4529
    4MOL   C334 1660   2.828   3.159   3.540 -0.7580 -0.0172 -0.0177
    4MOL   C335 1661   2.699   3.237   3.570 -0.2924 -0.3639 -0.1274
    4MOL   C336 1662   2.675   3.331   3.453  0.4951  0.0453 -0.2048
    4MOL   C337 1663   2.796   3.416   3.441  0.0128 -0.2659  0.4258
    4MOL   C338 1664   2.924   3.341   3.412 -0.6150 -0.9577 -0.1823
    4MOL   C339 1665   3.105   3.053   3.461 -0.7763  0.4499  1.0581
    4MOL   H340 1666   3.161   3.257   3.500  0.3618  0.0117  1.0350
    4MOL   H341 1667   2.949   3.319   3.626  1.3870  1.0200 -0.4793
    4MOL   H342 1668   2.814   3.090   3.457  0.0992  0.2510 -0.3883
    4MOL   H343 1669   2.852   3.095   3.625  0.5688 -1.2884 -1.3117
    4MOL   H344 1670   2.620   3.163   3.582 -0.5966 -0.2815 -1.6100
    4MOL   H345 1671   2.708   3.303   3.657  0.1868  1.2949 -1.4150
    4MOL   H346 1672   2.660   3.282   3.357  2.5021 -1.7249  0.3459
    4MOL   H347 1673   2.586   3.392   3.467  1.0811  0.5393  1.4552
    4MOL   H348 1674   2.807   3.474   3.533 -0.7615  1.3595 -0.4918
    4MOL   H349 1675   2.784   3.498   3.370  1.2198 -2.4229 -2.3513
    4MOL   H350 1676   3.010   3.404   3.389 -1.9650  1.0611  0.1161
    4MOL   H351 1677   2.902   3.269   3.334  1.3667 -0.5336 -1.1538
    4MOL   H352 1678   3.015   2.991   3.465  0.6813 -1.7426  0.5623
    4MOL   H353 1679   3.181   2.988   3.504 -0.6626  0.7670  1.3472
    4MOL   C354 1680   3.142   3.057   3.309  0.7492 -0.5269  0.2879
    4MOL   C355 1681   3.087   2.927   3.226 -0.0793 -0.5262 -0.0690
    4MOL   C356 1682   2.943   2.943   3.188 -0.4354  0.4885 -0.2071
    4MOL   C357 1683   2.896   2.819   3.105 -0.2281  0.1055  0.1497
    4MOL   C358 1684   2.923   2.684   3.174 -0.7860  0.4463  0.5649
    4MOL   C359 1685   3.075   2.669   3.206  0.5622  0.0273  0.8131
    4MOL   C360 1686   3.109   2.792   3.292  0.3595  0.3685  0.1938
    4MOL   C361 1687   3.292   3.079   3.272  0.2355  0.4550 -0.5472
    4MOL   H362 1688   3.079   3.138   3.271  1.4288  0.5294  1.3668
    4MOL   H363 1689   3.149   2.917   3.138  0.5354 -3.4268  0.6287
    4MOL   H364 1690   2.916   3.029   3.127  0.9926  1.3722  0.3765
    4MOL   H365 1691   2.884   2.945   3.280 -1.0831 -1.9096 -0.5135
    4MOL   H366 1692   2.793   2.820   3.071  0.3182  0.7930 -1.5572
    4MOL   H367 1693   2.953   2.839   3.014  1.5127 -1.1594  0.9424
    4MOL   H368 1694   2.862   2.663   3.262  1.8491  0.0556  2.3626
    4MOL   H369 1695   2.898   2.597   3.115 -1.4376  1.9670 -1.4461
    4MOL   H370 1696   3.092   2.579   3.265  1.1811 -0.2549  0.2095
    4MOL   H371 1697   3.138   2.673   3.117 -0.3689  0.5127  0.1653
    4MOL   H372 1698   3.213   2.798   3.327  0.3141  0.0373  0.3888
    4MOL   H373 1699   3.058   2.782   3.388  1.9915 -0.1395  1.0424
    4MOL   H374 1700   3.343   2.984   3.289  0.1188  0.5478  0.3221
    4MOL   H375 1701   3.332   3.155   3.339  0.4075 -1.5757  1.7002
    4MOL   C376 1702   3.302   3.133   3.125 -0.5392 -0.1643 -0.9601
    4MOL   C377 1703   3.286   3.279   3.106 -0.1535 -0.6484  0.5079
    4MOL   C378 1704   3.258   3.315   2.962 -0.4910  0.2927  0.4463
    4MOL   C379 1705   3.234   3.467   2.932 -0.3186 -0.1288 -0.2283
    4MOL   C380 1706   3.333   3.562   3.012 -0.2445 -0.1934  0.4020
    4MOL   C381 1707   3.336   3.524   3.157 -0.3775  1.1206  0.9584
    4MOL   C382 1708   3.386   3.378   3.175  0.2964  0.1714 -0.1969
    4MOL   C383 1709   3.442   3.087   3.072 -0.4766 -0.0326 -0.2913
    4MOL   H384 1710   3.220   3.090   3.067 -0.7655  1.2169 -1.6971
    4MOL   H385 1711   3.195   3.303   3.161 -0.9801  1.9716 -1.8577
    4MOL   H386 1712   3.328   3.286   2.884 -1.6437 -1.2713 -0.0175
    4MOL   H387 1713   3.174   3.257   2.924  0.6572  0.5311 -2.5271
    4MOL   H388 1714   3.130   3.490   2.954 -0.4445 -0.7861 -0.1265
    4MOL   H389 1715   3.241   3.487   2.825  1.7518  0.7711  0.0401
    4MOL   H390 1716   3.434   3.576   2.972 -0.3384  0.6894  0.4748
    4MOL   H391 1717   3.288   3.660   2.996  0.2312  0.1620  1.2325
    4MOL   H392 1718   3.401   3.593   3.210 -0.6833  2.9887 -1.0092
    4MOL   H393 1719   3.232   3.531   3.190 -0.9208  0.4722 -0.5716
    4MOL   H394 1720   3.483   3.367   3.127  0.1756 -1.0670 -0.1798
    4MOL   H395 1721   3.397   3.366   3.282 -0.3905 -0.9144 -0.2449
    4MOL   H396 1722   3.508   3.075   3.158  0.7399  0.5756 -1.1244
    4MOL   H397 1723   3.481   3.160   3.002  1.6765  0.8451  1.7550
    4MOL   C398 1724   3.443   2.943   3.020  0.4818 -1.2629  0.7089
    4MOL   C399 1725   3.367   2.937   2.881 -0.2407 -0.1518 -0.5119
    4MOL   C400 1726   3.472   2.964   2.760  0.9824  0.3750  0.3159
    4MOL   C401 1727   3.392   2.961   2.627 -0.0033 -0.0497  0.0133
    4MOL   C402 1728   3.335   2.811   2.619 -0.3960  0.0995  0.3491
    4MOL   C403 1729   3.244   2.776   2.729 -0.2418 -0.3679 -0.1714
    4MOL   C404 1730   3.319   2.794   2.860  0.3169  0.1152 -0.0445
    4MOL   C405 1731   3.583   2.877   3.031 -0.3370  0.2895  0.1093
    4MOL   H406 1732   3.392   2.875   3.089 -0.0562  0.2233  1.7927
    4MOL   H407 1733   3.283   3.006   2.877 -1.3465 -1.5012 -0.8521
    4MOL   H408 1734   3.556   2.896   2.763  1.1168  0.5438  0.4324
    4MOL   H409 1735   3.515   3.062   2.781 -1.2649  1.4098  0.3303
    4MOL   H410 1736   3.450   2.990   2.540 -2.5805 -0.7375 -1.9968
    4MOL   H411 1737   3.317   3.040   2.620  1.3216  1.0688 -2.1056
    4MOL   H412 1738   3.421   2.744   2.609  0.1078  0.4321  2.2527
    4MOL   H413 1739   3.275   2.797   2.529 -1.5872  0.1137  1.1352
    4MOL   H414 1740   3.160   2.845   2.734  0.2858  0.2746 -0.0610
    4MOL   H415 1741   3.200   2.676   2.729  1.4479 -1.1356 -0.2827
    4MOL   H416 1742   3.253   2.763   2.942 -1.7168  1.5956 -1.0742
    4MOL   H417 1743   3.406   2.730   2.866 -0.0005 -0.2879  0.3613
    4MOL   H418 1744   3.594   2.794   2.961 -1.7101  0.1799  0.0073
    4MOL   H419 1745   3.660   2.948   3.000  1.0826 -0.5001  1.7681
    4MOL   C420 1746   3.614   2.812   3.172 -0.0902 -0.1704  0.6984
    4MOL   C421 1747   3.757   2.840   3.225  0.1513  0.0521  0.3150
    4MOL   C422 1748   3.788   2.980   3.281  0.6530  0.6830  0.0725
    4MOL   C423 1749   3.940   2.998   3.333  0.3879 -0.9978  0.0093
    4MOL   C424 1750   4.043   2.955   3.226  0.5952  0.8610 -0.2085
    4MOL   C425 1751   4.005   2.808   3.197  0.3153 -0.4517 -0.2094
    4MOL   C426 1752   3.865   2.801   3.125 -0.2387  0.1944 -0.3282
    4MOL   C427 1753   3.597   2.654   3.169 -0.4943  0.1193 -0.5663
    4MOL   H428 1754   3.549   2.853   3.249 -1.1126  1.1551 -0.8575
    4MOL   H429 1755   3.762   2.786   3.320 -0.2809  1.2525  1.0286
    4MOL   H430 1756   3.770   3.052   3.200  3.4562 -1.3197 -2.4266
    4MOL   H431 1757   3.716   3.016   3.355  0.5249  0.6141 -0.0184
    4MOL   H432 1758   3.954   3.097   3.376  0.7193 -0.3103 -1.6333
    4MOL   H433 1759   3.947   2.932   3.420 -0.5514  0.1263  0.9471
    4MOL   H434 1760   4.143   2.959   3.267  0.8833 -2.9770 -0.3939
    4MOL   H435 1761   4.031   3.014   3.134  0.7205  0.0154 -0.7734
    4MOL   H436 1762   4.004   2.764   3.297  1.9034  1.1761  0.5515
    4MOL   H437 1763   4.082   2.755   3.142  0.7952 -0.4530  0.4452
    4MOL   H438 1764   3.864   2.859   3.033 -0.1290  0.5413 -0.1118
    4MOL   H439 1765   3.868   2.696   3.096  0.0127  0.3604 -0.9155
    4MOL   H440 1766   3.491   2.629   3.162 -0.9623  1.8882  0.1256
    4MOL   H441 1767   3.656   2.596   3.097 -1.1197 -2.0610  0.6319
    4MOL   H442 1768   3.629   2.617   3.266 -0.9178 -2.8097 -1.4815
    5MOL     C1 1769   1.862   2.859   0.318  0.4016  0.2869  0.4567
    5MOL     C2 1770   2.007   2.816   0.338 -0.0187  0.6157 -0.3642
    5MOL     C3 1771   2.069   2.760   0.208 -0.4868  0.5108 -0.5928
    5MOL     C4 1772   2.202   2.692   0.239 -0.3207  0.4422 -0.4922
    5MOL     C5 1773   2.212   2.596   0.359 -0.3558 -0.4272  0.2754
    5MOL     C6 1774   2.165   2.673   0.484  0.4389  0.1363 -0.8250
    5MOL     C7 1775   2.023   2.723   0.464 -0.0646 -0.2212  0.2294
    5MOL     C8 1776   1.842   2.994   0.229 -0.7688  0.2858 -0.4026
    5MOL     H9 1777   1.810   2.779   0.266 -3.1956  3.6204 -1.3761
    5MOL    H10 1778   2.061   2.903   0.374  0.7578 -1.0601  2.6623
    5MOL    H11 1779   2.000   2.693   0.157  2.0915 -2.8482  0.1336
    5MOL    H12 1780   2.094   2.847   0.148  0.1793  1.3428  0.8451
    5MOL    H13 1781   2.271   2.777   0.248 -0.7851  0.5643  2.2416
    5MOL    H14 1782   2.222   2.636   0.147 -0.5970 -0.9887  0.3146
    5MOL    H15 1783   2.315   2.569   0.382 -0.3460  0.7946  1.7746
    5MOL    H16 1784   2.173   2.498   0.331  2.5773 -1.2298 -1.2208
    5MOL    H17 1785   2.167   2.603   0.567 -2.1383  1.1803  0.1723
    5MOL    H18 1786   2.214   2.769   0.501  0.0888  0.0478  0.7493
    5MOL    H19 1787   1.990   2.769   0.557 -1.7078 -0.1863 -0.3568
    5MOL    H20 1788   1.959   2.635   0.460 -0.9446  0.4162  0.1527
    5MOL    H21 1789   1.903   2.987   0.139 -0.6319  1.1394 -0.3831
    5MOL    H22 1790   1.900   3.072   0.279  3.0777 -1.8628 -1.2634
    5MOL    H23 1791   1.810   2.867   0.414  0.3894 -1.6566  0.6271
    5MOL    C24 1792   1.705   3.039   0.177  0.2164  0.1033 -0.1594
    5MOL    C25 1793   1.612   3.064   0.295  0.3539 -1.3220 -0.0492
    5MOL    C26 1794   1.466   3.071   0.264 -0.0073  0.0303 -0.1459
    5MOL    C27 1795   1.368   3.076   0.383 -0.2939  0.6391 -0.5572
    5MOL    C28 1796   1.398   3.194   0.473  0.3923 -0.1441 -0.9038
    5MOL    C29 1797   1.548   3.196   0.512  0.1551  0.1598  0.1729
    5MOL    C30 1798   1.647   3.185   0.394 -0.3822 -0.5580  0.3046
    5MOL    C31 1799   1.719   3.175   0.104  0.5171  0.2480  0.4062
    5MOL    H32 1800   1.656   2.966   0.111  1.3668  1.0466 -2.1009
    5MOL    H33 1801   1.610   2.969   0.349 -0.8489 -1.2252  0.0879
    5MOL    H34 1802   1.431   2.992   0.197 -0.1174  0.9696 -1.2175
    5MOL    H35 1803   1.448   3.163   0.207 -1.4769 -1.0721 -1.5149
    5MOL    H36 1804   1.265   3.078   0.346 -0.3759 -1.3678 -0.5140
    5MOL    H37 1805   1.382   2.978   0.428  1.1015  0.2968 -1.6643
    5MOL    H38 1806   1.328   3.188   0.555  0.5219 -0.8135 -0.8404
    5MOL    H39 1807   1.372   3.288   0.423 -1.8026  0.2912  0.9698
    5MOL    H40 1808   1.572   3.294   0.554 -2.1900  2.3427 -3.3020
    5MOL    H41 1809   1.570   3.114   0.580 -0.4424 -0.9048 -0.8960
    5MOL    H42 1810   1.644   3.278   0.339 -2.8584 -1.1063 -0.5301
    5MOL    H43 1811   1.748   3.156   0.424  0.8054  0.8739 -2.1873
    5MOL    H44 1812   1.799   3.233   0.148 -0.1248  0.6316  1.0801
    5MOL    H45 1813   1.632   3.240   0.112 -1.5918 -2.2004 -1.4625
    5MOL    C46 1814   1.751   3.174   7.722  0.1243  0.5833 -0.5814
    5MOL    C47 1815   1.790   3.315   7.667 -0.3458 -0.2631 -0.2203
    5MOL    C48 1816   1.939   3.338   7.691  0.3634  0.2228  0.4169
    5MOL    C49 1817   1.976   3.460   7.605  0.3614 -0.3389 -0.0731
    5MOL    C50 1818   1.887   3.590   7.635 -0.3098  0.6610 -0.7296
    5MOL    C51 1819   1.738   3.555   7.639 -0.2166 -0.2080  0.4996
    5MOL    C52 1820   1.705   3.431   7.717  0.0572  0.0882  0.0601
    5MOL    C53 1821   1.630   3.118   7.638  0.3862 -0.2625 -0.0537
    5MOL    H54 1822   1.830   3.104   7.697 -1.4006 -1.1478 -0.6893
    5MOL    H55 1823   1.779   3.307   7.559  1.6004 -1.2113 -0.3698
    5MOL    H56 1824   1.966   3.349   0.024 -0.7388 -0.1489  0.7464
    5MOL    H57 1825   1.998   3.257   7.648  0.9231  1.3761 -1.0241
    5MOL    H58 1826   1.981   3.439   7.498  0.0369  2.2710 -0.6271
    5MOL    H59 1827   2.074   3.479   7.648 -0.3429  2.2769  0.4590
    5MOL    H60 1828   1.923   3.629   7.731 -2.0432 -0.1681  0.2853
    5MOL    H61 1829   1.906   3.663   7.556 -4.7697  0.1985 -2.3473
    5MOL    H62 1830   1.699   3.546   7.538 -0.9726  3.2755  0.4020
    5MOL    H63 1831   1.679   3.639   7.678  0.7096  0.5363  0.3020
    5MOL    H64 1832   1.734   3.441   0.049 -0.5409 -0.8717  0.3240
    5MOL    H65 1833   1.603   3.395   7.704  0.5950 -1.0669 -1.1008
    5MOL    H66 1834   1.545   3.185   7.632 -0.6772 -1.6525 -0.9245
    5MOL    H67 1835   1.586   3.032   7.688  2.2712 -1.4129 -0.3117
    5MOL    C68 1836   1.669   3.074   7.488 -0.1056  0.0784  0.0431
    5MOL    C69 1837   1.741   2.931   7.457  0.2051  0.5218 -0.4108
    5MOL    C70 1838   1.655   2.801   7.449  0.2476  0.2381  0.1720
    5MOL    C71 1839   1.731   2.678   7.406  0.8481  0.7542 -0.6508
    5MOL    C72 1840   1.842   2.699   7.299 -0.0430  0.2205  0.5888
    5MOL    C73 1841   1.925   2.823   7.322  0.0541  0.0795  0.2537
    5MOL    C74 1842   1.830   2.943   7.331 -0.3405 -0.1242  0.0186
    5MOL    C75 1843   1.551   3.107   7.387  0.4623 -0.1752 -0.1526
    5MOL    H76 1844   1.759   3.130   7.462 -0.6911  1.2318  0.4840
    5MOL    H77 1845   1.806   2.910   7.542  0.8362 -2.0479 -1.4821
    5MOL    H78 1846   1.565   2.805   7.387  0.0315 -1.0901  0.3873
    5MOL    H79 1847   1.604   2.779   7.543 -0.8045 -0.2798 -0.5094
    5MOL    H80 1848   1.779   2.635   7.494 -1.1737 -1.2921 -0.4910
    5MOL    H81 1849   1.659   2.601   7.376  1.8999  0.1095 -1.5674
    5MOL    H82 1850   1.792   2.695   7.203 -0.1305 -1.2557  0.6886
    5MOL    H83 1851   1.912   2.616   7.314 -0.2729 -0.2464 -0.8874
    5MOL    H84 1852   1.991   2.845   7.239 -0.9100 -1.6809 -1.0175
    5MOL    H85 1853   1.986   2.809   7.411  1.1254 -0.9879 -0.6467
    5MOL    H86 1854   1.773   2.948   7.238  0.2888 -2.7586 -0.5480
    5MOL    H87 1855   1.897   3.029   7.338 -2.1927  1.2583  1.2535
    5MOL    H88 1856   1.557   3.043   7.299  2.1282 -1.3303  0.7762
    5MOL    H89 1857   1.461   3.073   7.438 -0.5543  1.1285 -1.0478
    5MOL    C90 1858   1.547   3.259   7.359  0.3522 -0.0529  0.6438
    5MOL    C91 1859   1.656   3.288   7.251  0.8197  0.5057 -0.2363
    5MOL    C92 1860   1.609   3.265   7.106 -0.1500  0.3378  0.1696
    5MOL    C93 1861   1.723   3.308   7.008 -0.2777  1.4082  0.0306
    5MOL    C94 1862   1.767   3.452   7.020  1.5420 -0.4569  0.3185
    5MOL    C95 1863   1.804   3.487   7.159  0.4939  0.2399 -0.5538
    5MOL    C96 1864   1.704   3.437   7.263  0.9771  0.3297  0.0721
    5MOL    C97 1865   1.406   3.292   7.305 -0.1726  0.2877  0.1749
    5MOL    H98 1866   1.556   3.319   7.449  0.0901  2.5394 -0.9990
    5MOL    H99 1867   1.747   3.231   7.270  0.0979 -1.0494 -1.3772
    5MOL   H100 1868   1.522   3.325   7.079  0.6989  1.9406  0.9448
    5MOL   H101 1869   1.575   3.163   7.087  1.4597 -0.3925  1.0796
    5MOL   H102 1870   1.687   3.273   6.912 -1.2480  1.3791  0.4013
    5MOL   H103 1871   1.810   3.250   7.040 -0.9875  0.6646  0.6375
    5MOL   H104 1872   1.697   3.524   6.978  1.6920 -0.9804 -0.8669
    5MOL   H105 1873   1.856   3.473   6.961  1.8249  1.6769  1.4722
    5MOL   H106 1874   1.906   3.453   7.180  0.7068  1.3755  0.3117
    5MOL   H107 1875   1.797   3.595   7.176 -0.6213  0.1379 -0.3695
    5MOL   H108 1876   1.741   3.464   7.362 -0.9045  0.5343  0.7375
    5MOL   H109 1877   1.618   3.503   7.247 -1.5759 -2.9184 -0.1054
    5MOL   H110 1878   1.416   3.395   7.272  2.1976 -0.4901 -1.6431
    5MOL   H111 1879   1.374   3.237   7.217 -0.2965  1.1797 -0.3458
    5MOL   C112 1880   1.295   3.308   7.411  0.0588 -0.6288 -0.6791
    5MOL   C113 1881   1.157   3.314   7.340  0.0932  0.2830 -0.0587
    5MOL   C114 1882   1.108   3.453   7.296 -0.1460  0.2055  0.1257
    5MOL   C115 1883   0.982   3.444   7.214  0.2645 -0.7952 -0.1161
    5MOL   C116 1884   0.860   3.370   7.279 -0.7574 -0.0424 -0.2967
    5MOL   C117 1885   0.908   3.236   7.338 -0.3411 -0.0591 -0.4355
    5MOL   C118 1886   1.041   3.247   7.416 -0.3313 -0.1990  1.2483
    5MOL   C119 1887   1.318   3.413   7.526 -0.5535 -0.0408  0.1029
    5MOL   H120 1888   1.293   3.209   7.458 -1.7249  0.4990  1.7060
    5MOL   H121 1889   1.163   3.255   7.249 -1.1981 -0.6229  0.4292
    5MOL   H122 1890   1.192   3.476   7.230  0.2911 -0.6754  0.3683
    5MOL   H123 1891   1.103   3.520   7.381 -0.2534 -3.0190  2.7593
    5MOL   H124 1892   0.934   3.536   7.182  0.7218 -0.1407  1.0489
    5MOL   H125 1893   1.002   3.398   7.117  1.6751 -0.7660  0.1550
    5MOL   H126 1894   0.835   3.435   7.362 -1.1117  0.7983 -1.0526
    5MOL   H127 1895   0.775   3.369   7.210 -0.4082  2.1410 -0.7884
    5MOL   H128 1896   0.834   3.196   7.408  0.1138 -0.1890 -0.0251
    5MOL   H129 1897   0.916   3.162   7.259 -0.0264 -1.8758  1.2496
    5MOL   H130 1898   1.082   3.154   7.454  0.8129 -0.3655 -0.3451
    5MOL   H131 1899   1.012   3.302   7.505  0.6286  2.1906  0.1411
    5MOL   H132 1900   1.343   3.508   7.480  1.3835  0.2392  1.6929
    5MOL   H133 1901   1.405   3.375   7.580  1.7630  0.8271 -2.9238
    5MOL   C134 1902   1.216   3.423   7.645 -0.3126  0.8302 -1.0224
    5MOL   C135 1903   1.243   3.556   7.729  0.5646  0.4922  0.9382
    5MOL   C136 1904   1.182   3.672   7.648 -0.6144 -0.0393  0.3435
    5MOL   C137 1905   1.193   3.812   7.719  0.1131  0.4738  0.2750
    5MOL   C138 1906   1.341   3.834   7.762  0.6464 -0.6024 -0.4285
    5MOL   C139 1907   1.405   3.723   0.080  0.1731  0.1071  0.9215
    5MOL   C140 1908   1.392   3.589   0.002 -0.0637 -0.3282  0.1886
    5MOL   C141 1909   1.226   3.298   7.736 -0.8945 -0.1935  0.4418
    5MOL   H142 1910   1.121   3.433   7.592  0.4304  1.6418 -2.2336
    5MOL   H143 1911   1.183   3.558   0.048  2.7711 -1.0522  2.4612
    5MOL   H144 1912   1.220   3.673   7.546 -1.5424  0.1779 -0.0116
    5MOL   H145 1913   1.076   3.644   7.649  0.2078 -3.4615 -0.4941
    5MOL   H146 1914   1.137   3.804   0.040  1.3734  0.3780  1.0356
    5MOL   H147 1915   1.154   3.889   7.652 -0.0115  0.6785  0.5799
    5MOL   H148 1916   1.403   3.847   7.673 -0.0538 -0.7054 -0.9364
    5MOL   H149 1917   1.346   3.931   0.040  0.8400 -0.7716 -0.1165
    5MOL   H150 1918   1.352   3.721   0.175 -1.2981  1.6114  0.1546
    5MOL   H151 1919   1.509   3.755   0.094  0.7636 -1.2978 -0.0700
    5MOL   H152 1920   1.455   3.570   7.687  0.1167 -3.1136  0.8733
    5MOL   H153 1921   1.420   3.515   0.076 -1.8314 -0.9866  0.2282
    5MOL   H154 1922   1.301   3.320   0.039 -1.4409 -1.1264  1.2814
    5MOL   H155 1923   1.269   3.208   7.692  1.4213  0.9143  0.4261
    5MOL   C156 1924   1.089   3.259   0.029  0.8307 -0.2409  0.3425
    5MOL   C157 1925   1.025   3.359   0.134  0.1640  0.2786  0.6389
    5MOL   C158 1926   0.875   3.339   0.181 -0.2926  0.1767 -0.4519
    5MOL   C159 1927   0.814   3.448   0.269  0.0741  0.4955 -0.3427
    5MOL   C160 1928   0.916   3.470   0.390 -0.1486  0.2446  0.7269
    5MOL   C161 1929   1.059   3.479   0.354  0.0800 -0.1116 -0.0758
    5MOL   C162 1930   1.114   3.378   0.259  0.4639 -0.3431  0.2852
    5MOL   C163 1931   1.102   3.111   0.076  0.9076  0.0126  0.1478
    5MOL   H164 1932   1.026   3.249   7.713 -0.8079  0.4120  1.4229
    5MOL   H165 1933   1.017   3.449   0.074  0.3429 -1.7197 -2.4664
    5MOL   H166 1934   0.821   3.344   0.087  1.0644 -1.1921 -1.3306
    5MOL   H167 1935   0.868   3.243   0.232  2.5299 -0.5693 -1.3712
    5MOL   H168 1936   0.808   3.541   0.213  2.6431 -0.4461 -2.2618
    5MOL   H169 1937   0.713   3.430   0.307  0.3010  0.6107  0.3103
    5MOL   H170 1938   0.892   3.391   0.461  0.8405 -0.9798 -0.2681
    5MOL   H171 1939   0.881   3.560   0.440 -2.0947 -0.5630  0.8531
    5MOL   H172 1940   1.125   3.490   0.441 -0.2057 -0.8311  0.2391
    5MOL   H173 1941   1.062   3.573   0.299  2.7398 -0.2545 -0.2421
    5MOL   H174 1942   1.217   3.404   0.233  0.1780  1.3841  0.7818
    5MOL   H175 1943   1.130   3.294   0.326  1.5286 -1.5975 -1.5059
    5MOL   H176 1944   1.052   3.110   0.173  0.9661  1.9152  0.2170
    5MOL   H177 1945   1.202   3.090   0.116  1.0762 -0.6934 -0.6306
    5MOL   C178 1946   1.033   3.002   7.757 -0.4469  0.0900  0.5251
    5MOL   C179 1947   1.104   2.865   0.002  0.1373 -0.0623  0.6507
    5MOL   C180 1948   1.115   2.812   0.146 -0.5812 -0.3823  0.2518
    5MOL   C181 1949   1.184   2.675   0.141  0.1286  0.1119 -0.4149
    5MOL   C182 1950   1.327   2.673   0.071 -0.0337 -0.1643 -0.2894
    5MOL   C183 1951   1.313   2.741   7.704  1.0649  0.5968 -0.0353
    5MOL   C184 1952   1.244   2.875   7.712  0.2265  0.4042  0.4751
    5MOL   C185 1953   0.882   2.997   0.012 -0.2457 -0.3542 -0.1007
    5MOL   H186 1954   1.051   3.033   7.654  0.7661 -0.4514  0.5639
    5MOL   H187 1955   1.061   2.784   7.715 -0.0618 -0.5982  1.5182
    5MOL   H188 1956   1.174   2.877   0.211  0.4277 -1.4480  0.4093
    5MOL   H189 1957   1.016   2.786   0.184 -0.2853 -0.0103  1.3167
    5MOL   H190 1958   1.114   2.604   0.096  1.0353 -0.1225 -1.4710
    5MOL   H191 1959   1.181   2.628   0.239  2.2538 -0.7830 -0.7635
    5MOL   H192 1960   1.409   2.717   0.129 -1.4102  1.2881  0.6095
    5MOL   H193 1961   1.349   2.567   0.059 -0.7706 -0.3745  0.1896
    5MOL   H194 1962   1.258   2.677   7.634  0.0775  2.1884 -0.7348
    5MOL   H195 1963   1.415   2.762   7.673  1.2912 -1.7344 -0.9739
    5MOL   H196 1964   1.311   2.934   0.002  0.2313  1.4424 -0.4843
    5MOL   H197 1965   1.245   2.912   7.609 -3.3223 -0.7218 -0.0157
    5MOL   H198 1966   0.878   2.973   0.118 -0.6132  2.0263  0.4627
    5MOL   H199 1967   0.845   3.100   0.010  2.0659  0.5076 -0.1890
    5MOL   C200 1968   0.781   2.918   7.700 -0.7204 -0.3209 -0.1177
    5MOL   C201 1969   0.643   2.906   7.768 -0.0136 -0.3160 -0.3629
    5MOL   C202 1970   0.650   2.823   0.122 -0.3370 -0.3823  0.3426
    5MOL   C203 1971   0.513   2.782   0.167  0.0883 -0.1003 -0.2120
    5MOL   C204 1972   0.426   2.906   0.201  0.1781 -0.4189 -0.2271
    5MOL   C205 1973   0.433   3.012   0.089  0.4811 -0.4409 -0.1187
    5MOL   C206 1974   0.571   3.033   0.033  0.0478  0.4195 -0.0463
    5MOL   C207 1975   0.770   2.981   7.556 -0.2376  0.1622  0.4058
    5MOL   H208 1976   0.825   2.818   7.701 -2.2158 -1.0022 -0.5840
    5MOL   H209 1977   0.591   2.839   7.701  3.0645 -2.3110 -0.8750
    5MOL   H210 1978   0.695   2.880   0.202  0.0851  1.0551 -0.8881
    5MOL   H211 1979   0.710   2.733   0.111 -0.5370 -0.3042 -1.7162
    5MOL   H212 1980   0.464   2.726   0.087 -0.8310  1.5597 -0.8528
    5MOL   H213 1981   0.519   2.709   0.248  0.9810  2.0708  1.7400
    5MOL   H214 1982   0.325   2.870   0.224 -0.4571  0.0585 -2.2357
    5MOL   H215 1983   0.467   2.955   0.290 -0.5331 -0.7542  0.2942
    5MOL   H216 1984   0.361   2.991   0.010 -1.5313  0.9805  1.2833
    5MOL   H217 1985   0.395   3.110   0.119  0.9401 -0.3775  0.2617
    5MOL   H218 1986   0.565   3.093   7.714 -0.4592 -0.5008 -0.6251
    5MOL   H219 1987   0.634   3.095   0.096 -2.4345  1.3612  1.5560
    5MOL   H220 1988   0.723   3.077   7.576 -0.4067  0.2124 -0.2085
    5MOL   H221 1989   0.867   3.003   7.510  1.0589 -0.9148  2.5545
    5MOL   C222 1990   0.691   2.892   7.457 -0.5908 -0.1304 -0.2150
    5MOL   C223 1991   0.551   2.950   7.433 -0.2390  0.7751 -0.1495
    5MOL   C224 1992   0.449   2.848   7.386  0.2682  0.7821  0.2475
    5MOL   C225 1993   0.304   2.903   7.376 -1.0936  0.5618 -0.3333
    5MOL   C226 1994   0.294   3.039   7.295  0.6588  0.3904 -1.0773
    5MOL   C227 1995   0.411   3.137   7.326  0.2869 -0.0908  0.6888
    5MOL   C228 1996   0.553   3.074   7.339 -0.2289  0.4572 -0.2860
    5MOL   C229 1997   0.770   2.871   7.323 -0.0848  0.0136  0.3539
    5MOL   H230 1998   0.675   2.792   7.497  1.5920 -0.4385 -0.0841
    5MOL   H231 1999   0.528   2.987   7.533  0.3305 -1.4774  0.8421
    5MOL   H232 2000   0.476   2.803   7.290  0.1447  0.5111  0.3415
    5MOL   H233 2001   0.433   2.762   7.450  0.1991 -0.2639 -1.1391
    5MOL   H234 2002   0.252   2.914   7.471  0.4969 -0.2214  0.6445
    5MOL   H235 2003   0.239   2.832   7.325 -1.2351  0.3432  0.1483
    5MOL   H236 2004   0.295   3.002   7.193  1.2185 -1.5622 -0.3713
    5MOL   H237 2005   0.199   3.093   7.295 -0.1470 -0.9841 -2.8801
    5MOL   H238 2006   0.389   3.197   7.415 -1.1849 -0.1839  0.4014
    5MOL   H239 2007   0.418   3.213   7.248  0.6449 -0.8745 -0.0463
    5MOL   H240 2008   0.576   3.032   7.242  3.0584  2.2465 -0.3491
    5MOL   H241 2009   0.614   3.160   7.367 -2.0696  1.5353  0.4958
    5MOL   H242 2010   0.812   2.969   7.299 -0.4148  0.1792  0.4570
    5MOL   H243 2011   0.708   2.850   7.236 -1.1243 -0.3354  1.1747
    5MOL   C244 2012   0.878   2.757   7.335 -0.0259  0.2988  0.2950
    5MOL   C245 2013   1.001   2.778   7.241 -0.6653 -0.5169 -0.9830
    5MOL   C246 2014   1.097   2.663   7.212  0.0894  0.2952 -0.3950
    5MOL   C247 2015   1.225   2.687   7.136 -0.2870 -1.2052 -0.1213
    5MOL   C248 2016   1.312   2.804   7.195 -0.6886 -0.4863 -0.4606
    5MOL   C249 2017   1.222   2.923   7.230 -0.1935  0.9103  1.3245
    5MOL   C250 2018   1.097   2.883   7.311 -0.0214 -0.2677 -0.6711
    5MOL   C251 2019   0.800   2.624   7.312  0.2890 -0.4810 -0.3291
    5MOL   H252 2020   0.911   2.771   7.438  1.6691  2.9087 -0.5344
    5MOL   H253 2021   0.978   2.835   7.151  1.7650  1.7214 -0.2767
    5MOL   H254 2022   1.057   2.575   7.162  0.0978 -0.9499  1.7295
    5MOL   H255 2023   1.114   2.625   7.313 -3.0138  0.4617  0.2448
    5MOL   H256 2024   1.279   2.593   7.127  0.2931 -0.9045  0.1926
    5MOL   H257 2025   1.203   2.720   7.034 -0.7553  0.2530  0.4343
    5MOL   H258 2026   1.362   2.769   7.285 -0.6125  1.3281  0.2229
    5MOL   H259 2027   1.392   2.835   7.128  0.0110  1.2366  1.1225
    5MOL   H260 2028   1.197   2.953   7.128  1.4619  1.0620  0.9512
    5MOL   H261 2029   1.282   3.008   7.264  1.2182  0.7323 -0.6086
    5MOL   H262 2030   1.126   2.846   7.410  1.5168  0.0763 -0.9769
    5MOL   H263 2031   1.037   2.971   7.330  0.1012  0.0750 -1.8401
    5MOL   H264 2032   0.799   2.600   7.206  0.4518  0.7909 -0.6298
    5MOL   H265 2033   0.697   2.640   7.343 -0.1090 -0.4822 -1.6322
    5MOL   C266 2034   0.845   2.502   7.395 -0.0139  0.6512 -0.3272
    5MOL   C267 2035   0.796   2.518   7.542  0.0415 -1.2192  0.4965
    5MOL   C268 2036   0.883   2.434   7.641  0.0176 -0.5436  0.6760
    5MOL   C269 2037   0.828   2.424   0.012  0.8412 -0.2942  0.4577
    5MOL   C270 2038   0.682   2.374   0.010  0.4298  0.6531 -0.6371
    5MOL   C271 2039   0.604   2.480   7.709  0.0513 -0.0288 -0.4027
    5MOL   C272 2040   0.645   2.490   7.563  0.7265 -0.4937  0.0097
    5MOL   C273 2041   0.813   2.363   7.326 -0.3968 -0.3204  0.0188
    5MOL   H274 2042   0.954   2.495   7.403  0.1095 -0.1633 -2.4108
    5MOL   H275 2043   0.802   2.618   7.583 -1.8903 -1.8421  2.4349
    5MOL   H276 2044   0.882   2.334   7.599  1.5591 -1.0612  1.7889
    5MOL   H277 2045   0.986   2.471   7.649 -0.3683  0.9642 -0.9391
    5MOL   H278 2046   0.822   2.520   0.064  1.3949 -0.3985  0.7207
    5MOL   H279 2047   0.887   2.358   0.076  1.8441  0.4873  0.3442
    5MOL   H280 2048   0.671   2.271   7.749 -1.5703 -0.1180  2.2406
    5MOL   H281 2049   0.659   2.371   0.117 -1.8195 -2.0960 -1.1256
    5MOL   H282 2050   0.600   2.571   7.769  1.2125 -0.9734  1.1256
    5MOL   H283 2051   0.498   2.452   7.707 -0.8887  3.0429  2.5642
    5MOL   H284 2052   0.597   2.580   7.524 -1.9732 -2.4277 -1.2808
    5MOL   H285 2053   0.609   2.413   7.495 -0.1241 -0.3570  0.3047
    5MOL   H286 2054   0.735   2.380   7.251  0.9714 -0.6013 -1.4849
    5MOL   H287 2055   0.767   2.296   7.399  2.4607  0.8901  3.0801
    5MOL   C288 2056   0.932   2.287   7.258  0.2935 -0.3587  0.2527
    5MOL   C289 2057   0.905   2.239   7.117  0.0138 -0.2836 -0.8335
    5MOL   C290 2058   0.783   2.148   7.105 -0.4122  0.3020  0.6446
    5MOL   C291 2059   0.766   2.098   6.960  0.6044  0.1007  0.1882
    5MOL   C292 2060   0.738   2.215   6.868 -0.0780  0.7792 -0.5535
    5MOL   C293 2061   0.856   2.311   6.868  0.8817 -0.3500  0.5453
    5MOL   C294 2062   0.895   2.354   7.013  0.1913  1.3401  1.2887
    5MOL   C295 2063   0.983   2.177   7.351  0.9315 -0.3793  0.7179
    5MOL   H296 2064   1.007   2.363   7.235 -0.7065  0.7442  0.5849
    5MOL   H297 2065   0.985   2.170   7.089  0.7779  1.0228 -1.9210
    5MOL   H298 2066   0.790   2.057   7.164 -0.5989  0.1594  0.4497
    5MOL   H299 2067   0.692   2.195   7.143  0.4467  1.6196  1.0986
    5MOL   H300 2068   0.853   2.048   6.918  0.8860 -0.1749  1.0815
    5MOL   H301 2069   0.677   2.036   6.951  0.9839 -0.6770  1.6182
    5MOL   H302 2070   0.644   2.262   6.897  0.6402  2.7771 -1.3570
    5MOL   H303 2071   0.716   2.165   6.774  2.2158 -0.7102 -0.3374
    5MOL   H304 2072   0.814   2.398   6.819  3.2384 -0.8823 -2.5726
    5MOL   H305 2073   0.946   2.272   6.819 -1.2851 -3.6673 -0.9707
    5MOL   H306 2074   0.828   2.432   7.050  0.2597  2.5471 -1.0259
    5MOL   H307 2075   0.992   2.404   7.002  0.2485  1.0402  0.4009
    5MOL   H308 2076   0.977   2.212   7.454 -0.1106  0.9429  0.2181
    5MOL   H309 2077   0.916   2.092   7.337  1.1351 -0.3460 -0.4994
    5MOL   C310 2078   1.127   2.116   7.327  0.2531  0.1214  0.4243
    5MOL   C311 2079   1.231   2.196   7.401  0.5956  0.7723  0.2851
    5MOL   C312 2080   1.228   2.342   7.373 -0.6839  0.0246 -0.6074
    5MOL   C313 2081   1.349   2.414   7.425  0.3662 -0.2557 -0.5035
    5MOL   C314 2082   1.364   2.387   7.579  0.5626  0.9262 -0.0211
    5MOL   C315 2083   1.360   2.240   7.617 -0.3946  0.6170  0.0217
    5MOL   C316 2084   1.232   2.173   7.555 -0.0699  1.1897  0.3215
    5MOL   C317 2085   1.122   1.962   7.360 -0.0188 -0.1632  0.5891
    5MOL   H318 2086   1.150   2.128   7.221 -0.8130  0.8089  0.2651
    5MOL   H319 2087   1.322   2.161   7.351  0.1530  1.3862 -0.9668
    5MOL   H320 2088   1.227   2.365   7.267 -2.3227 -1.1344 -0.8700
    5MOL   H321 2089   1.146   2.391   7.425 -0.3233  0.1065 -0.1180
    5MOL   H322 2090   1.340   2.522   7.412  0.2515  0.2517  3.1353
    5MOL   H323 2091   1.441   2.394   7.369 -0.4858  0.9669 -2.3966
    5MOL   H324 2092   1.455   2.438   7.613  0.1868  1.0485  0.8095
    5MOL   H325 2093   1.282   2.439   7.628 -0.2109 -1.1875  0.9899
    5MOL   H326 2094   1.445   2.182   7.580  0.4935  1.6092  0.4965
    5MOL   H327 2095   1.372   2.231   7.725 -1.2819 -0.2515  0.0594
    5MOL   H328 2096   1.142   2.216   7.598 -0.4950 -0.7541  1.4251
    5MOL   H329 2097   1.217   2.073   7.594  1.2140  1.0220  0.4084
    5MOL   H330 2098   1.049   1.953   7.441 -1.8811 -2.2223 -1.2499
    5MOL   H331 2099   1.216   1.935   7.407  0.0038 -0.7102  0.2304
    5MOL   C332 2100   1.089   1.876   7.240  0.1409 -0.8926  0.2286
    5MOL   C333 2101   0.961   1.793   7.277  0.2005 -0.0611  0.5616
    5MOL   C334 2102   0.978   1.702   7.404  1.3146 -0.4405 -0.3036
    5MOL   C335 2103   0.845   1.651   7.446  0.0011 -0.7238 -0.3441
    5MOL   C336 2104   0.763   1.581   7.334  0.0974 -0.4596 -0.5986
    5MOL   C337 2105   0.754   1.672   7.217  0.4300  0.4085  0.1505
    5MOL   C338 2106   0.888   1.730   7.164  0.1405  0.8338  0.6597
    5MOL   C339 2107   1.225   1.800   7.211  0.7011  0.7259 -0.6044
    5MOL   H340 2108   1.068   1.939   7.154  0.8219 -0.8292  0.1016
    5MOL   H341 2109   0.886   1.866   7.308 -1.5413 -0.4773 -2.4783
    5MOL   H342 2110   1.049   1.623   7.379  0.4384 -1.1101 -0.7394
    5MOL   H343 2111   1.025   1.750   7.490  4.2382 -1.8103 -1.0736
    5MOL   H344 2112   0.863   1.574   7.521 -2.1995 -0.5621  0.3820
    5MOL   H345 2113   0.790   1.725   7.503 -1.1770  0.2866 -2.7089
    5MOL   H346 2114   0.813   1.491   7.298  1.2129  0.3959 -1.2154
    5MOL   H347 2115   0.664   1.561   7.376  1.2973  0.1040  2.6252
    5MOL   H348 2116   0.667   1.737   7.227  1.5061  1.8701  0.2025
    5MOL   H349 2117   0.700   1.629   7.132 -0.3868  0.5320  0.6063
    5MOL   H350 2118   0.872   1.810   7.091 -0.0152  1.6731  1.6099
    5MOL   H351 2119   0.940   1.647   7.116  0.4861  0.8128  1.0767
    5MOL   H352 2120   1.246   1.730   7.291  0.6263  0.0144 -1.2084
    5MOL   H353 2121   1.312   1.865   7.222  2.1190 -1.1224 -0.7666
    5MOL   C354 2122   1.238   1.731   7.075  0.3413  0.5677  0.9593
    5MOL   C355 2123   1.352   1.625   7.070  0.0987  0.0967 -0.4363
    5MOL   C356 2124   1.328   1.509   7.161 -0.5474  0.6367  0.5807
    5MOL   C357 2125   1.431   1.399   7.142  0.4403 -0.3427  0.2086
    5MOL   C358 2126   1.576   1.447   7.148 -0.1144 -0.3832 -0.4214
    5MOL   C359 2127   1.602   1.572   7.060 -0.0938 -1.1276  0.3975
    5MOL   C360 2128   1.496   1.682   7.095  0.9746 -0.3985  0.0917
    5MOL   C361 2129   1.246   1.834   6.959  0.2056  0.6299 -0.1982
    5MOL   H362 2130   1.150   1.668   7.061  0.5451  0.8021 -1.4841
    5MOL   H363 2131   1.348   1.578   6.972  4.2197 -0.0049 -0.6357
    5MOL   H364 2132   1.232   1.472   7.126  1.0314 -1.9603 -1.1668
    5MOL   H365 2133   1.310   1.543   7.263 -0.5848  1.8559  0.1748
    5MOL   H366 2134   1.400   1.337   7.226 -3.5094  0.7014 -0.3898
    5MOL   H367 2135   1.423   1.345   7.049 -0.3709  2.5259 -1.4610
    5MOL   H368 2136   1.602   1.467   7.252 -0.7678 -2.8226  0.2540
    5MOL   H369 2137   1.651   1.377   7.113  0.3985 -0.2603  0.4129
    5MOL   H370 2138   1.702   1.612   7.076 -0.2589 -0.2037 -0.7602
    5MOL   H371 2139   1.598   1.550   6.953 -1.9520  0.4813  0.0881
    5MOL   H372 2140   1.515   1.778   7.046  1.3612  0.3016  1.5830
    5MOL   H373 2141   1.502   1.707   7.201 -0.1575 -0.2274  0.1283
    5MOL   H374 2142   1.341   1.815   6.909  1.2163  2.6288  0.8832
    5MOL   H375 2143   1.268   1.935   6.994  3.4910 -0.6936  1.8135
    5MOL   C376 2144   1.153   1.817   6.840 -0.0049  0.2086 -0.0211
    5MOL   C377 2145   1.182   1.929   6.727  0.3278  0.0632 -0.2842
    5MOL   C378 2146   1.322   1.921   6.655  0.0260  0.2494  0.5172
    5MOL   C379 2147   1.331   2.011   6.537 -0.1937  0.8284 -0.3063
    5MOL   C380 2148   1.292   2.159   6.582  0.1837 -0.1037  0.0329
    5MOL   C381 2149   1.155   2.164   6.657 -0.1862  0.1904  0.0615
    5MOL   C382 2150   1.152   2.073   6.778  0.0752 -0.3550 -0.1356
    5MOL   C383 2151   1.143   1.671   6.786  0.3906  0.1057  0.2799
    5MOL   H384 2152   1.054   1.853   6.867  0.4091  1.9637 -0.7964
    5MOL   H385 2153   1.100   1.918   6.656 -0.2332  0.9951  0.2090
    5MOL   H386 2154   1.396   1.951   6.729  0.0553 -1.0215  1.0261
    5MOL   H387 2155   1.339   1.814   6.640  0.3631  0.0691  2.1361
    5MOL   H388 2156   1.264   1.974   6.458 -0.1073  0.2501 -0.1142
    5MOL   H389 2157   1.429   2.001   6.491  0.0786 -1.3573  0.6899
    5MOL   H390 2158   1.370   2.209   6.640  0.6759 -0.2680 -0.4854
    5MOL   H391 2159   1.274   2.203   6.484 -2.9660  0.8326  0.9501
    5MOL   H392 2160   1.145   2.266   6.694 -1.1940 -0.5084  1.8214
    5MOL   H393 2161   1.066   2.142   6.598 -0.8099  2.1988  0.2030
    5MOL   H394 2162   1.206   2.104   6.868 -0.7731  2.3102 -0.5133
    5MOL   H395 2163   1.061   2.065   6.836  1.3376 -0.8342  1.8424
    5MOL   H396 2164   1.235   1.615   6.801 -0.1523 -1.4186 -1.8815
    5MOL   H397 2165   1.136   1.683   6.678  1.4701 -1.1749  0.0660
    5MOL   C398 2166   1.010   1.588   6.822 -0.3795  0.2899 -0.1625
    5MOL   C399 2167   0.877   1.659   6.795  0.3208  0.0088  1.0415
    5MOL   C400 2168   0.843   1.696   6.644  0.1767  0.5137  0.0896
    5MOL   C401 2169   0.712   1.775   6.634  0.0351 -0.2239  0.0585
    5MOL   C402 2170   0.595   1.708   6.703 -0.8150  0.2855  0.1907
    5MOL   C403 2171   0.627   1.667   6.846 -0.1151  0.1346  1.1270
    5MOL   C404 2172   0.754   1.580   6.853 -0.7077 -0.7531  0.9212
    5MOL   C405 2173   1.021   1.448   6.756  0.4477 -0.2064 -0.5826
    5MOL   H406 2174   1.022   1.576   6.930 -1.2726  2.7448  0.2435
    5MOL   H407 2175   0.868   1.751   6.852  0.4270 -0.8220  2.4201
    5MOL   H408 2176   0.834   1.611   6.577  0.0179  1.3119 -0.9106
    5MOL   H409 2177   0.926   1.750   6.597  0.3783  1.9074  1.9703
    5MOL   H410 2178   0.676   1.784   6.531 -2.3604 -1.0847  0.7835
    5MOL   H411 2179   0.732   1.873   6.677 -0.4396 -0.5056  0.9247
    5MOL   H412 2180   0.563   1.620   6.648 -0.4857 -2.1983  3.8680
    5MOL   H413 2181   0.516   1.783   6.699  1.0305  2.3648  1.2327
    5MOL   H414 2182   0.650   1.757   6.902 -1.0985  1.6598 -0.8754
    5MOL   H415 2183   0.537   1.624   6.890 -1.2478 -1.1937 -2.2955
    5MOL   H416 2184   0.759   1.537   6.953 -0.3627  1.8310  2.0597
    5MOL   H417 2185   0.731   1.493   6.791 -0.5295 -0.7477  0.8464
    5MOL   H418 2186   0.926   1.417   6.712 -0.1587  2.0716 -0.9497
    5MOL   H419 2187   1.079   1.455   6.664  1.1707  0.9548 -0.0493
    5MOL   C420 2188   1.090   1.341   6.841  0.9676 -0.0689 -0.4776
    5MOL   C421 2189   1.141   1.217   6.760  0.0982 -0.9659 -0.1046
    5MOL   C422 2190   1.030   1.131   6.705  0.0125 -0.2280 -0.3595
    5MOL   C423 2191   1.081   1.028   6.602  1.0550 -0.0884  0.3720
    5MOL   C424 2192   1.190   0.946   6.670  0.6147 -0.2074  0.2503
    5MOL   C425 2193   1.306   1.020   6.737 -0.2462  0.1568  0.4219
    5MOL   C426 2194   1.254   1.131   6.829 -0.6285 -0.3734 -0.4893
    5MOL   C427 2195   1.004   1.301   6.961 -0.4887  0.3305  0.5171
    5MOL   H428 2196   1.181   1.380   6.888  0.3648 -0.4064  1.0256
    5MOL   H429 2197   1.196   1.273   6.684  1.1812  1.4083  2.3595
    5MOL   H430 2198   0.982   1.078   6.788  1.4972 -0.5538  0.3096
    5MOL   H431 2199   0.957   1.189   6.649  0.4962  1.1293  0.3862
    5MOL   H432 2200   0.994   0.967   6.577  0.4319  0.0865  2.0437
    5MOL   H433 2201   1.107   1.078   6.509  1.4886 -0.1349  0.4686
    5MOL   H434 2202   1.210   0.858   6.608  1.4129  2.4680 -3.4738
    5MOL   H435 2203   1.149   0.902   6.761  1.0797  1.9368  1.5347
    5MOL   H436 2204   1.361   1.056   6.649  0.5148 -0.4318  0.6471
    5MOL   H437 2205   1.370   0.953   6.795 -1.8780 -2.3113 -0.5267
    5MOL   H438 2206   1.210   1.086   6.917 -0.7703 -0.8886 -0.8204
    5MOL   H439 2207   1.343   1.190   6.852 -1.4919  1.0175 -0.6219
    5MOL   H440 2208   0.905   1.270   6.926  0.1052  0.3827 -1.2367
    5MOL   H441 2209   1.044   1.218   7.020  1.5641 -0.4073 -1.8355
    5MOL   H442 2210   0.990   1.381   7.034  2.0958  2.1433 -0.9026
    6MOL     C1 2211   7.486   4.352   1.062  0.6640  0.3679  0.2097
    6MOL     C2 2212   7.401   4.435   1.157 -0.1048 -0.1881 -0.7553
    6MOL     C3 2213   7.264   4.466   1.099  0.0282 -0.1738  0.0407
    6MOL     C4 2214   7.180   4.554   1.196 -0.2122 -0.4725  0.0581
    6MOL     C5 2215   7.245   4.688   1.241 -0.5969  0.9365  0.2633
    6MOL     C6 2216   7.379   4.651   1.306 -0.0028  0.2268 -0.3686
    6MOL     C7 2217   7.473   4.568   1.206 -0.1830 -0.1197 -0.1310
    6MOL     C8 2218   7.606   4.284   1.119 -0.2266  0.0921  0.3793
    6MOL     H9 2219   7.419   4.273   1.025  1.7820 -0.5471  0.1053
    6MOL    H10 2220   7.380   4.371   1.243 -0.3313  2.2333  1.0629
    6MOL    H11 2221   7.272   4.520   1.004  0.0247  2.9851  1.7538
    6MOL    H12 2222   7.200   4.381   1.076 -2.3704  1.1729  1.5337
    6MOL    H13 2223   7.154   4.491   1.281 -2.6919 -0.9345 -1.0027
    6MOL    H14 2224   7.083   4.586   1.159  0.1187 -0.4479 -0.7963
    6MOL    H15 2225   7.177   4.737   1.311 -1.3883 -0.1772  0.2979
    6MOL    H16 2226   7.257   4.750   1.153  1.3927  1.6479  1.0130
    6MOL    H17 2227   7.432   4.737   1.347  0.4259  0.5090 -1.4852
    6MOL    H18 2228   7.362   4.582   1.388 -0.0509  0.1383 -0.4525
    6MOL    H19 2229   7.571   4.558   1.253  0.5045  1.7105 -1.1259
    6MOL    H20 2230   7.497   4.629   1.118 -0.0589 -0.0031 -0.0158
    6MOL    H21 2231   7.570   4.225   1.203 -0.0525  0.3370  0.6293
    6MOL    H22 2232   7.668   4.356   1.173 -1.8648  0.7145  1.4642
    6MOL    H23 2233   7.508   4.422   0.982  1.0375 -0.6084 -0.5657
    6MOL    C24 2234   7.677   4.180   1.015 -0.2180  0.2094 -0.1557
    6MOL    C25 2235   7.717   4.251   0.886 -0.9151  0.0220 -0.1704
    6MOL    C26 2236   7.771   4.157   0.771  0.0420 -0.2366 -0.2339
    6MOL    C27 2237   0.051   4.231   0.645  0.3757 -0.3153  0.0540
    6MOL    C28 2238   0.147   4.349   0.673  0.7742 -0.1419  0.2476
    6MOL    C29 2239   0.085   4.439   0.773 -0.3733  0.0840  0.1092
    6MOL    C30 2240   0.046   4.371   0.903  0.7727 -0.0867 -0.5577
    6MOL    C31 2241   0.012   4.100   1.092  1.0899  0.0858  0.2807
    6MOL    H32 2242   7.591   4.119   0.989  0.1701  0.0611 -1.1063
    6MOL    H33 2243   7.621   4.280   0.843 -2.2397 -1.9243  1.4412
    6MOL    H34 2244   7.702   4.076   0.748  1.6834 -1.2916 -1.6748
    6MOL    H35 2245   0.087   4.107   0.812  0.9860 -0.1202 -2.0552
    6MOL    H36 2246   0.109   4.165   0.582  1.5935  0.8987 -0.1179
    6MOL    H37 2247   7.739   4.269   0.586  0.2130 -1.3200 -0.3696
    6MOL    H38 2248   0.162   4.408   0.582  0.3164  0.0669  0.3068
    6MOL    H39 2249   0.239   4.309   0.717  1.8772  0.9241 -1.0182
    6MOL    H40 2250   0.157   4.517   0.796 -1.2580  1.6635 -2.2917
    6MOL    H41 2251   7.765   4.474   0.726 -0.9288 -2.6339 -0.9066
    6MOL    H42 2252   0.136   4.334   0.952 -0.6604 -1.5970  1.0357
    6MOL    H43 2253   7.770   4.442   0.970  1.2041 -0.0164 -0.3256
    6MOL    H44 2254   0.076   4.169   1.146 -1.9090  1.6797  1.8904
    6MOL    H45 2255   0.089   4.064   1.023  1.7273  0.6722  0.6847
    6MOL    C46 2256   7.742   3.989   1.193  0.5980  0.0648  0.1288
    6MOL    C47 2257   0.006   4.026   1.340 -0.1914  0.5822  1.0482
    6MOL    C48 2258   0.162   4.016   1.356 -0.1690  0.1683  0.0547
    6MOL    C49 2259   0.207   4.049   1.499 -0.2292  0.3192 -0.3389
    6MOL    C50 2260   0.135   3.963   1.605  0.1045  1.2220 -0.8171
    6MOL    C51 2261   7.752   3.982   1.582 -0.4262  0.3682 -0.6354
    6MOL    C52 2262   7.707   3.945   1.440 -0.6117  0.8217 -0.5660
    6MOL    C53 2263   0.019   3.851   1.146  0.1007 -0.2979  0.1397
    6MOL    H54 2264   7.634   3.978   1.193  0.7702 -1.9477 -1.8306
    6MOL    H55 2265   7.747   4.129   1.356 -0.0960  0.7677  0.1155
    6MOL    H56 2266   0.190   3.914   1.331  0.4551  0.2897  0.2620
    6MOL    H57 2267   0.213   4.081   1.286  0.5572  0.9782  1.3175
    6MOL    H58 2268   0.194   4.155   1.519  0.5504  0.3445  0.0557
    6MOL    H59 2269   0.315   4.036   1.510 -0.4180 -1.2793 -0.2256
    6MOL    H60 2270   0.151   3.855   1.601 -0.2264  1.1498 -0.2278
    6MOL    H61 2271   0.163   3.995   1.705  2.0688 -1.7974 -0.3174
    6MOL    H62 2272   7.711   4.080   1.607 -1.7456 -0.0665 -1.0390
    6MOL    H63 2273   7.703   3.914   1.651  0.6098  0.4992  0.2293
    6MOL    H64 2274   7.728   3.840   1.424  0.7548  0.8486  0.9211
    6MOL    H65 2275   7.598   3.953   1.430 -0.8031  1.7887  1.8164
    6MOL    H66 2276   0.000   3.782   1.228 -2.4251  2.1625  1.7154
    6MOL    H67 2277   0.128   3.851   1.144  0.1091 -1.1274  0.2033
    6MOL    C68 2278   7.722   3.795   1.012 -1.0409  0.7847 -0.3654
    6MOL    C69 2279   0.057   3.729   0.923  0.4544 -0.2966 -0.1569
    6MOL    C70 2280   0.116   3.595   0.969  0.0528 -0.7245 -0.1981
    6MOL    C71 2281   0.236   3.559   0.879  0.2169 -0.4727 -0.1552
    6MOL    C72 2282   0.189   3.556   0.731 -0.1467  0.6377  0.1903
    6MOL    C73 2283   0.119   3.691   0.687  0.2973  0.2345  0.1044
    6MOL    C74 2284   0.007   3.716   0.781  0.5944  0.3801  0.8617
    6MOL    C75 2285   7.600   3.697   1.042  0.3392  0.2024  0.0117
    6MOL    H76 2286   7.701   3.882   0.950  1.3950 -0.0159 -2.4185
    6MOL    H77 2287   0.139   3.800   0.923 -0.6034  1.0812  3.9964
    6MOL    H78 2288   0.043   3.516   0.954 -0.7347  0.3904 -2.3769
    6MOL    H79 2289   0.135   3.588   1.076 -1.2371  0.6015  0.1422
    6MOL    H80 2290   0.321   3.626   0.889  0.3583 -0.2272 -2.7089
    6MOL    H81 2291   0.268   3.456   0.898  1.3052 -0.0443  0.3642
    6MOL    H82 2292   0.114   3.477   0.726  0.6507 -0.2152  1.5880
    6MOL    H83 2293   0.276   3.529   0.671 -0.2898 -1.2928  0.8222
    6MOL    H84 2294   0.076   3.678   0.588 -2.0220  0.9092  1.0023
    6MOL    H85 2295   0.190   3.774   0.692 -1.5848  1.8375  0.6500
    6MOL    H86 2296   7.704   3.640   0.759 -1.4210  3.2273 -2.6551
    6MOL    H87 2297   7.740   3.815   0.758  0.3890 -0.0268 -0.5918
    6MOL    H88 2298   7.585   3.628   0.959 -0.5117 -0.4465  0.6958
    6MOL    H89 2299   7.628   3.624   1.117 -1.2818 -1.7799 -1.2527
    6MOL    C90 2300   7.462   3.771   1.075  0.1016 -0.6499  0.2928
    6MOL    C91 2301   7.415   3.867   0.962 -0.0633 -0.1176 -0.2911
    6MOL    C92 2302   7.351   3.786   0.846  0.4793 -0.2909  0.4310
    6MOL    C93 2303   7.302   3.880   0.739 -0.6056 -0.7205  0.3448
    6MOL    C94 2304   7.198   3.976   0.801  0.0630 -0.0686 -0.3995
    6MOL    C95 2305   7.262   4.066   0.906  0.8180  0.2045 -0.1506
    6MOL    C96 2306   7.326   3.978   1.020  0.2440  0.3235 -0.4429
    6MOL    C97 2307   7.351   3.679   1.136 -0.7242 -0.2120 -0.2797
    6MOL    H98 2308   7.483   3.851   1.147 -3.8611 -0.0178  0.8615
    6MOL    H99 2309   7.500   3.918   0.916 -2.3501  0.4573 -4.0700
    6MOL   H100 2310   7.267   3.721   0.869 -0.8687  1.2873  0.1251
    6MOL   H101 2311   7.433   3.724   0.809  1.1534  0.3300  0.8716
    6MOL   H102 2312   7.263   3.817   0.659 -0.6190  0.0390 -0.2445
    6MOL   H103 2313   7.383   3.943   0.702 -2.0329  1.2175  0.4927
    6MOL   H104 2314   7.124   3.909   0.846 -0.0375 -0.7939 -1.5869
    6MOL   H105 2315   7.157   4.035   0.718 -0.0973 -0.0317 -0.2933
    6MOL   H106 2316   7.330   4.138   0.860 -0.7682  2.7061  1.2756
    6MOL   H107 2317   7.192   4.144   0.936 -1.4318 -0.9167 -2.2483
    6MOL   H108 2318   7.378   4.049   1.084  0.1899  2.2676 -2.5143
    6MOL   H109 2319   7.243   3.946   1.083 -0.6284 -0.2979 -1.8824
    6MOL   H110 2320   7.262   3.726   1.095 -1.3543 -0.7315  0.4862
    6MOL   H111 2321   7.347   3.576   1.100 -0.7951  0.3769 -2.0400
    6MOL   C112 2322   7.344   3.682   1.289  0.3629  0.2993 -0.4108
    6MOL   C113 2323   7.462   3.615   1.360  0.2882  0.5136 -0.0457
    6MOL   C114 2324   7.471   3.463   1.345  0.3640 -0.1642 -0.1454
    6MOL   C115 2325   7.603   3.415   1.409 -0.0290  0.4073 -0.4191
    6MOL   C116 2326   7.601   3.450   1.554 -0.6924 -0.4505  0.6968
    6MOL   C117 2327   7.594   3.602   1.582 -0.3085 -0.3110 -1.1558
    6MOL   C118 2328   7.471   3.666   1.511  0.2283 -0.2195 -0.2178
    6MOL   C119 2329   7.202   3.637   1.338 -0.0662  0.4845  0.3176
    6MOL   H120 2330   7.343   3.788   1.317 -2.8542  0.4569 -0.9186
    6MOL   H121 2331   7.552   3.657   1.315  0.9831 -0.4545  0.4158
    6MOL   H122 2332   7.457   3.441   1.239  0.4212 -1.1198  0.0444
    6MOL   H123 2333   7.386   3.422   1.400 -0.3961  0.8956 -0.4928
    6MOL   H124 2334   7.596   3.306   1.399  1.8702  0.2570 -0.4018
    6MOL   H125 2335   7.688   3.453   1.352  0.6747 -0.4246  0.0516
    6MOL   H126 2336   7.515   3.405   1.604 -1.2270  0.0933  0.2783
    6MOL   H127 2337   7.695   3.424   1.602  0.8825 -2.6112 -3.3368
    6MOL   H128 2338   7.578   3.636   1.684 -0.5570  0.4669 -1.4486
    6MOL   H129 2339   7.691   3.641   1.551  0.7703 -0.3590  2.0121
    6MOL   H130 2340   7.477   3.773   1.525 -0.1019 -0.2401  0.0894
    6MOL   H131 2341   7.379   3.639   1.562  0.7893  1.1709  1.5721
    6MOL   H132 2342   7.216   3.605   1.441 -0.6565  0.8134  0.5023
    6MOL   H133 2343   7.180   3.541   1.292  1.2549  0.1639  0.3264
    6MOL   C134 2344   7.078   3.737   1.319 -0.5018 -0.2236 -0.1918
    6MOL   C135 2345   7.091   3.891   1.371 -0.0332  0.0894  0.4795
    6MOL   C136 2346   7.104   3.911   1.525  0.4367 -0.3954 -0.5275
    6MOL   C137 2347   7.143   4.048   1.556 -0.1464  0.3000  0.6800
    6MOL   C138 2348   7.030   4.146   1.513 -0.0952 -0.2721  0.1214
    6MOL   C139 2349   7.006   4.133   1.364 -0.0667 -0.1108 -0.0373
    6MOL   C140 2350   6.977   3.983   1.329  0.5544 -0.6962 -0.1630
    6MOL   C141 2351   6.952   3.667   1.388  0.2079 -0.3053  0.2563
    6MOL   H142 2352   7.057   3.744   1.212 -0.5484 -2.4109 -0.3487
    6MOL   H143 2353   7.181   3.927   1.321 -0.4526 -0.0483 -0.3786
    6MOL   H144 2354   7.015   3.882   1.580  1.5572  0.5029  1.8398
    6MOL   H145 2355   7.181   3.839   1.555  0.8210 -0.5182 -1.7824
    6MOL   H146 2356   7.237   4.073   1.507 -1.0443  2.6334  0.0546
    6MOL   H147 2357   7.149   4.055   1.664  2.1830 -0.6001  0.6354
    6MOL   H148 2358   6.951   4.108   1.579 -1.2276  1.6261 -0.1088
    6MOL   H149 2359   7.060   4.248   1.538 -0.8347 -0.2077  0.7906
    6MOL   H150 2360   7.087   4.181   1.310 -0.4201 -0.0489 -0.5184
    6MOL   H151 2361   6.921   4.193   1.333 -0.6534  0.2484  2.1554
    6MOL   H152 2362   6.882   3.950   1.370  0.7965 -2.1035 -0.7256
    6MOL   H153 2363   6.958   3.992   1.222 -2.2723  0.3698  0.3811
    6MOL   H154 2364   6.885   3.751   1.406  0.3328 -0.1236 -0.1264
    6MOL   H155 2365   6.991   3.647   1.488  0.9125  2.4909  0.5954
    6MOL   C156 2366   6.875   3.553   1.313 -0.0102 -0.1757  0.3436
    6MOL   C157 2367   6.805   3.594   1.185 -0.1913 -0.5967  0.7923
    6MOL   C158 2368   6.777   3.465   1.095  0.5513  0.4514 -0.0237
    6MOL   C159 2369   6.733   3.515   0.950 -0.4934  0.0147 -0.5623
    6MOL   C160 2370   6.608   3.603   0.965  0.6319  0.2122 -0.2886
    6MOL   C161 2371   6.636   3.717   1.052  0.1468 -0.8540 -0.4788
    6MOL   C162 2372   6.680   3.686   1.192  0.2686  0.3439 -0.3662
    6MOL   C163 2373   6.781   3.492   1.418 -0.2198 -0.0742  0.1209
    6MOL   H164 2374   6.951   3.477   1.293 -0.9203 -0.8756 -0.5242
    6MOL   H165 2375   6.878   3.662   1.141 -0.1734 -1.1876 -0.0895
    6MOL   H166 2376   6.871   3.410   1.084 -0.6676 -1.2898 -2.0508
    6MOL   H167 2377   6.698   3.403   1.137  0.9213  0.3680  0.5524
    6MOL   H168 2378   6.821   3.571   0.919  1.9050 -2.1695  1.9949
    6MOL   H169 2379   6.715   3.437   0.876 -0.2505 -0.7335  0.1584
    6MOL   H170 2380   6.530   3.543   1.011  1.7830  0.7125  2.4355
    6MOL   H171 2381   6.564   3.630   0.869  0.6125 -2.8338 -1.1713
    6MOL   H172 2382   6.548   3.781   1.053 -0.0582 -1.1422 -0.1963
    6MOL   H173 2383   6.719   3.776   1.012 -0.4083 -0.6181 -1.2868
    6MOL   H174 2384   6.693   3.782   1.242 -1.4480  0.8348 -0.8157
    6MOL   H175 2385   6.595   3.630   1.231  0.1386  1.2888  0.7488
    6MOL   H176 2386   6.701   3.435   1.370 -1.0042  1.4806 -0.4308
    6MOL   H177 2387   6.732   3.573   1.471  1.1456  0.9258 -0.1235
    6MOL   C178 2388   6.855   3.403   1.533 -0.3515  0.4690  0.0426
    6MOL   C179 2389   6.815   3.462   1.667  0.0722 -0.4532  0.2354
    6MOL   C180 2390   6.891   3.410   1.785  0.3087  0.1186  0.0239
    6MOL   C181 2391   6.878   3.498   1.912  0.0315 -0.8711  0.2936
    6MOL   C182 2392   6.731   3.506   1.952 -0.1729  0.0469  0.1066
    6MOL   C183 2393   6.639   3.549   1.839  0.1223 -0.3729  1.0684
    6MOL   C184 2394   6.663   3.465   1.708 -0.6950 -0.2511 -0.2611
    6MOL   C185 2395   6.832   3.249   1.521 -0.2658 -0.1044  0.1242
    6MOL   H186 2396   6.964   3.411   1.535 -0.3412  0.7967 -1.2020
    6MOL   H187 2397   6.840   3.568   1.660 -0.4465 -0.3752 -0.5724
    6MOL   H188 2398   6.865   3.306   1.802  1.3468 -0.4150 -1.5581
    6MOL   H189 2399   6.998   3.398   1.768  0.6575  1.0737  1.4464
    6MOL   H190 2400   6.918   3.598   1.896 -1.0599 -0.7415 -1.8832
    6MOL   H191 2401   6.933   3.457   1.997 -1.9341 -0.3140  1.8550
    6MOL   H192 2402   6.694   3.406   1.977 -0.9581  0.5506  0.9847
    6MOL   H193 2403   6.714   3.578   2.031  2.6142  1.2778 -0.3643
    6MOL   H194 2404   6.645   3.655   1.819 -0.1221 -0.8477 -1.6611
    6MOL   H195 2405   6.535   3.545   1.871 -0.5261 -1.8347 -1.1456
    6MOL   H196 2406   6.618   3.366   1.706  1.0960 -1.0897 -0.6664
    6MOL   H197 2407   6.596   3.506   1.633 -0.3355  1.4610  0.3420
    6MOL   H198 2408   6.875   3.199   1.608  1.0735 -1.2660 -1.1766
    6MOL   H199 2409   6.725   3.228   1.523 -0.5624  1.3326 -0.1969
    6MOL   C200 2410   6.901   3.186   1.394 -0.1764  0.3010 -0.2939
    6MOL   C201 2411   7.062   3.210   1.385 -0.5944 -0.2109 -0.5966
    6MOL   C202 2412   7.138   3.144   1.498  0.4692 -0.1791  0.0859
    6MOL   C203 2413   7.292   3.158   1.507  0.2519 -0.0388 -0.2605
    6MOL   C204 2414   7.353   3.128   1.369  0.1880  0.2399  0.2377
    6MOL   C205 2415   7.269   3.195   1.255  0.1639  0.5196  0.0677
    6MOL   C206 2416   7.121   3.166   1.253 -0.8013 -0.0538  0.6723
    6MOL   C207 2417   6.865   3.035   1.377 -0.1279 -0.5684  0.0300
    6MOL   H208 2418   6.867   3.237   1.304  2.1895  0.1893 -1.2921
    6MOL   H209 2419   7.083   3.316   1.387  2.4686 -0.8017  2.2532
    6MOL   H210 2420   7.117   3.037   1.500  3.7526 -0.8928 -1.0170
    6MOL   H211 2421   7.104   3.191   1.590  2.8315  2.2490 -0.2259
    6MOL   H212 2422   7.315   3.260   1.538 -3.0440 -0.4054  3.7044
    6MOL   H213 2423   7.328   3.095   1.589  1.3966  0.3807 -0.4245
    6MOL   H214 2424   7.462   3.128   1.369  0.1916  0.1935 -0.5124
    6MOL   H215 2425   7.333   3.023   1.349 -0.2653  0.7786 -2.3608
    6MOL   H216 2426   7.280   3.302   1.235  0.4051  0.4047 -0.4189
    6MOL   H217 2427   7.313   3.147   1.168 -2.1661 -2.0077  0.2281
    6MOL   H218 2428   7.085   3.208   1.159  1.6783  1.4930  0.3812
    6MOL   H219 2429   7.114   3.058   1.236 -0.9077 -0.6471  4.0473
    6MOL   H220 2430   6.924   2.981   1.304  1.5045  1.2076 -0.0046
    6MOL   H221 2431   6.890   2.985   1.471  0.1987  0.2081  0.3653
    6MOL   C222 2432   6.715   3.007   1.339 -0.4045  0.1990  0.0369
    6MOL   C223 2433   6.693   2.973   1.192  0.1044 -0.3000  0.6629
    6MOL   C224 2434   6.755   3.069   1.090 -0.7022  0.0946  1.0427
    6MOL   C225 2435   6.725   3.024   0.947  0.5203  0.1731  0.5716
    6MOL   C226 2436   6.576   3.014   0.913  0.0774  0.8532  0.1986
    6MOL   C227 2437   6.515   2.925   1.019 -0.1528 -0.8713  0.9811
    6MOL   C228 2438   6.544   2.965   1.159 -0.4450  0.0903  0.1292
    6MOL   C229 2439   6.674   2.881   1.432 -0.1798 -0.0547 -0.3480
    6MOL   H230 2440   6.649   3.091   1.360  0.8039  0.9210  1.0457
    6MOL   H231 2441   6.733   2.874   1.173  0.7766  0.2882 -1.1008
    6MOL   H232 2442   6.723   3.172   1.108  0.0481  0.4019  0.6870
    6MOL   H233 2443   6.864   3.073   1.101 -0.3886 -0.4481 -1.3739
    6MOL   H234 2444   6.766   2.923   0.943 -2.1452 -0.9053 -0.2833
    6MOL   H235 2445   6.779   3.096   0.885 -1.2326  1.5116  0.5876
    6MOL   H236 2446   6.535   3.115   0.920  1.4543  1.4239  0.2222
    6MOL   H237 2447   6.544   2.971   0.818  0.8827 -0.2556  0.4151
    6MOL   H238 2448   6.564   2.830   0.998  0.1870 -0.0368 -2.3670
    6MOL   H239 2449   6.409   2.903   1.005 -0.0458 -0.9810  0.3188
    6MOL   H240 2450   6.502   3.061   1.188  0.7063  0.4692  0.5563
    6MOL   H241 2451   6.490   2.893   1.221 -0.0790 -1.4498 -1.2935
    6MOL   H242 2452   6.761   2.821   1.458 -0.2867  0.1724  0.5727
    6MOL   H243 2453   6.616   2.802   1.385  1.3956 -0.0760 -2.3010
    6MOL   C244 2454   6.607   2.923   1.566  0.2064  0.0638 -0.2185
    6MOL   C245 2455   6.708   2.892   1.691 -0.1505 -0.2237  0.4634
    6MOL   C246 2456   6.712   2.752   1.747  0.2167 -0.4079 -0.3256
    6MOL   C247 2457   6.800   2.733   1.876 -0.2717  0.0740  0.6020
    6MOL   C248 2458   6.786   2.835   1.984  0.2525 -0.4473 -0.4438
    6MOL   C249 2459   6.800   2.975   1.913  0.1592  0.6429 -0.0027
    6MOL   C250 2460   6.693   2.991   1.811 -0.4465  0.1746 -0.5199
    6MOL   C251 2461   6.456   2.877   1.566 -0.2978  0.3770 -0.0990
    6MOL   H252 2462   6.594   3.031   1.558  1.7829  0.2979  0.2050
    6MOL   H253 2463   6.809   2.911   1.654 -0.6473  1.8018  0.0595
    6MOL   H254 2464   6.750   2.695   1.662  0.1462 -1.6700  0.4753
    6MOL   H255 2465   6.610   2.717   1.762  0.0890 -0.1351 -0.5544
    6MOL   H256 2466   6.793   2.632   1.918  2.3319 -1.1763 -1.7672
    6MOL   H257 2467   6.898   2.727   1.829  0.1423  1.2890  1.2969
    6MOL   H258 2468   6.690   2.833   2.036  1.1749  1.9802  1.4352
    6MOL   H259 2469   6.869   2.818   2.052 -0.8616 -1.6708  0.6567
    6MOL   H260 2470   6.893   3.001   1.862  0.1076  2.0546  0.6234
    6MOL   H261 2471   6.791   3.048   1.993 -1.7030 -0.0759  0.4673
    6MOL   H262 2472   6.600   2.975   1.866  0.4285  1.1834  1.3027
    6MOL   H263 2473   6.682   3.096   1.782 -1.2120 -0.2188 -1.7201
    6MOL   H264 2474   6.462   2.768   1.572  2.1242  0.3952 -1.6542
    6MOL   H265 2475   6.405   2.896   1.472  0.6352  0.7186 -0.5412
    6MOL   C266 2476   6.367   2.929   1.684 -0.8216 -0.4047 -0.2571
    6MOL   C267 2477   6.356   3.089   1.675  0.4183 -1.0693  0.0222
    6MOL   C268 2478   6.257   3.151   1.780  0.1578 -0.1092  0.4465
    6MOL   C269 2479   6.264   3.303   1.771  0.6640 -0.5631  0.6861
    6MOL   C270 2480   6.213   3.345   1.631 -0.0845  0.3345 -0.0750
    6MOL   C271 2481   6.314   3.298   1.518  0.2690  0.9050 -0.8064
    6MOL   C272 2482   6.335   3.146   1.531 -0.4336 -0.4664  0.2805
    6MOL   C273 2483   6.226   2.868   1.672  0.1823  0.2113 -0.7937
    6MOL   H274 2484   6.411   2.900   1.779  1.0914  0.0710 -0.9739
    6MOL   H275 2485   6.446   3.138   1.712 -0.0043 -0.5292  0.3378
    6MOL   H276 2486   6.157   3.121   1.751  0.2054 -0.2905  0.4654
    6MOL   H277 2487   6.279   3.113   1.880 -0.9052 -1.2470  0.2617
    6MOL   H278 2488   6.366   3.343   1.776  1.5066 -2.4885 -0.3536
    6MOL   H279 2489   6.198   3.335   1.851  0.9670  2.2181 -0.1407
    6MOL   H280 2490   6.111   3.311   1.617  0.0728 -0.5508  0.8318
    6MOL   H281 2491   6.207   3.454   1.623  0.7142  0.4092  0.2675
    6MOL   H282 2492   6.408   3.352   1.522  0.5160  0.3500  1.9151
    6MOL   H283 2493   6.264   3.325   1.425 -0.7551  2.5136  0.1801
    6MOL   H284 2494   6.423   3.122   1.471 -0.1985  0.9862  0.0196
    6MOL   H285 2495   6.245   3.093   1.499 -1.4980  1.0015  0.8062
    6MOL   H286 2496   6.184   2.914   1.582 -0.3412  1.7336  0.1982
    6MOL   H287 2497   6.176   2.902   1.762 -1.3576 -3.1434 -0.3171
    6MOL   C288 2498   6.215   2.713   1.666 -0.4786 -0.3106  0.4708
    6MOL   C289 2499   6.072   2.666   1.677  0.2854  0.8344  0.3603
    6MOL   C290 2500   5.990   2.716   1.802  0.0421  0.5413  0.1578
    6MOL   C291 2501   5.861   2.632   1.815 -0.5175 -0.0769  0.2813
    6MOL   C292 2502   5.768   2.639   1.686 -0.2813 -0.4266 -0.2592
    6MOL   C293 2503   5.856   2.609   1.560 -0.6338 -0.5031  0.0983
    6MOL   C294 2504   5.987   2.693   1.553  0.6248  0.4402 -0.6466
    6MOL   C295 2505   6.298   2.660   1.792 -0.1791  0.1032  0.2677
    6MOL   H296 2506   6.256   2.678   1.572  1.4762 -1.3154  1.6701
    6MOL   H297 2507   6.078   2.557   1.686  1.4026  0.9383  1.1682
    6MOL   H298 2508   6.051   2.703   1.892  1.2628 -0.1995 -0.7481
    6MOL   H299 2509   5.970   2.823   1.795 -2.1237  0.2566  1.8055
    6MOL   H300 2510   5.887   2.528   1.831  0.4857  0.3072  1.1795
    6MOL   H301 2511   5.793   2.662   1.895  0.5125  0.9318  0.7948
    6MOL   H302 2512   5.722   2.738   1.685  0.9341  0.1592  0.9622
    6MOL   H303 2513   5.683   2.572   1.700 -1.7723  1.0070 -2.1469
    6MOL   H304 2514   5.814   2.632   1.462 -1.2353 -1.5201  0.1086
    6MOL   H305 2515   5.894   2.507   1.557  2.0059  0.4277  0.4948
    6MOL   H306 2516   5.957   2.798   1.551 -2.8467 -0.4917  0.1136
    6MOL   H307 2517   6.053   2.662   1.472 -0.2403 -0.6081 -0.9604
    6MOL   H308 2518   6.406   2.677   1.789 -0.0846 -0.4588  0.4282
    6MOL   H309 2519   6.276   2.726   1.876 -1.0308  0.1472  0.0146
    6MOL   C310 2520   6.291   2.509   1.824  0.4731  0.1222 -0.0857
    6MOL   C311 2521   6.333   2.417   1.704  0.2839 -0.1013 -0.1276
    6MOL   C312 2522   6.467   2.435   1.636  0.4087 -0.4604  0.7155
    6MOL   C313 2523   6.485   2.354   1.506 -0.7136  0.1602  0.3782
    6MOL   C314 2524   6.477   2.211   1.538  0.7430 -0.3233  0.0507
    6MOL   C315 2525   6.343   2.172   1.606  0.5792 -0.1010  0.3092
    6MOL   C316 2526   6.321   2.264   1.730  0.6197  0.5271 -0.9343
    6MOL   C317 2527   6.370   2.481   1.955  0.0182 -0.4026 -0.2258
    6MOL   H318 2528   6.190   2.486   1.856  1.3029 -2.8004  0.6292
    6MOL   H319 2529   6.263   2.453   1.629  0.7040  1.0070 -0.0020
    6MOL   H320 2530   6.469   2.537   1.598 -0.4692 -1.1054 -1.1389
    6MOL   H321 2531   6.549   2.419   1.706  0.3994 -0.7395  0.6627
    6MOL   H322 2532   6.576   2.385   1.456 -0.2055  2.5057  2.6524
    6MOL   H323 2533   6.408   2.380   1.432 -0.7697 -0.5304  0.1895
    6MOL   H324 2534   6.494   2.152   1.448 -1.1075  0.1433 -0.6258
    6MOL   H325 2535   6.560   2.182   1.602  2.6609  1.4018 -1.6055
    6MOL   H326 2536   6.256   2.180   1.541  1.8292  0.0521 -1.3989
    6MOL   H327 2537   6.351   2.077   1.658 -3.2428 -0.1184  1.0143
    6MOL   H328 2538   6.385   2.222   1.808 -1.5527  0.0968  0.6588
    6MOL   H329 2539   6.219   2.250   1.765  0.7401  0.8154 -0.4640
    6MOL   H330 2540   6.476   2.492   1.935  0.4712 -3.8435 -0.0844
    6MOL   H331 2541   6.360   2.373   1.968  1.5308 -0.6567 -1.1241
    6MOL   C332 2542   6.324   2.547   2.086  0.3812 -0.2379 -1.1657
    6MOL   C333 2543   6.429   2.524   2.203 -0.2709 -0.0688 -0.6986
    6MOL   C334 2544   6.564   2.598   2.177 -0.6380 -0.0231  0.0347
    6MOL   C335 2545   6.673   2.575   2.287 -0.1350 -0.3165  0.1585
    6MOL   C336 2546   6.685   2.418   2.305  0.0978 -0.7762 -0.6437
    6MOL   C337 2547   6.555   2.356   2.340  0.2060  0.4160 -0.3892
    6MOL   C338 2548   6.454   2.376   2.231  0.6497 -0.5496  0.0924
    6MOL   C339 2549   6.174   2.516   2.129 -0.3702  0.6366 -0.0466
    6MOL   H340 2550   6.339   2.654   2.074  0.7688 -0.2977 -1.2354
    6MOL   H341 2551   6.388   2.559   2.298  0.6706  0.0165 -0.3245
    6MOL   H342 2552   6.616   2.558   2.091 -0.7643 -4.3496  1.8303
    6MOL   H343 2553   6.557   2.705   2.157  1.5405  0.6823  2.6536
    6MOL   H344 2554   6.766   2.616   2.249  0.3659 -3.3721 -2.0888
    6MOL   H345 2555   6.630   2.627   2.373  0.4577  4.1036 -2.0861
    6MOL   H346 2556   6.735   2.375   2.218  0.2261  0.1410 -1.0324
    6MOL   H347 2557   6.759   2.409   2.384  1.5975  0.5276 -1.8561
    6MOL   H348 2558   6.527   2.405   2.433 -1.3226  1.5779 -1.4245
    6MOL   H349 2559   6.572   2.249   2.340 -0.4052  0.3210  0.5285
    6MOL   H350 2560   6.365   2.318   2.254  1.7486 -1.9186  0.9462
    6MOL   H351 2561   6.500   2.339   2.139  1.9651  0.6583  0.2424
    6MOL   H352 2562   6.186   2.413   2.163 -0.0590  0.5189 -0.5042
    6MOL   H353 2563   6.110   2.521   2.041  0.1102 -0.5121 -0.4699
    6MOL   C354 2564   6.114   2.602   2.238 -0.1202  0.2948 -0.3968
    6MOL   C355 2565   5.982   2.536   2.287  0.1053 -0.3442 -0.0098
    6MOL   C356 2566   5.999   2.420   2.385  0.0235  0.6265 -0.1353
    6MOL   C357 2567   5.868   2.353   2.434  0.2170  0.9489  0.8865
    6MOL   C358 2568   5.783   2.319   2.310  0.2218 -0.2699 -0.2073
    6MOL   C359 2569   5.757   2.443   2.225 -0.5935  1.0487 -0.1845
    6MOL   C360 2570   5.884   2.499   2.170  0.2167 -0.6401 -0.3944
    6MOL   C361 2571   6.092   2.750   2.199 -0.2532  0.9477 -0.3466
    6MOL   H362 2572   6.186   2.590   2.319 -0.2075  2.6238  0.0375
    6MOL   H363 2573   5.930   2.612   2.345 -0.4084 -0.4813 -0.2941
    6MOL   H364 2574   6.058   2.457   2.469 -0.5894  1.0320  0.1191
    6MOL   H365 2575   6.052   2.335   2.342  0.6801  0.3861  1.1159
    6MOL   H366 2576   5.875   2.256   2.483 -0.3461 -0.3909 -1.5866
    6MOL   H367 2577   5.824   2.419   2.508  3.1833  1.4620  2.2764
    6MOL   H368 2578   5.831   2.241   2.250 -1.0142 -2.0921  1.1063
    6MOL   H369 2579   5.689   2.278   2.347  0.6955 -2.4922 -1.3784
    6MOL   H370 2580   5.690   2.420   2.142 -2.1114  0.2142  1.2491
    6MOL   H371 2581   5.708   2.521   2.284  1.9332  3.2981 -0.9389
    6MOL   H372 2582   5.854   2.588   2.115  2.1238 -1.6845 -3.2823
    6MOL   H373 2583   5.921   2.424   2.100  0.8685 -1.3157  0.6480
    6MOL   H374 2584   6.000   2.763   2.144  0.8646  1.6845 -2.0764
    6MOL   H375 2585   6.170   2.792   2.135  1.1500  0.4476  0.9924
    6MOL   C376 2586   6.087   2.851   2.329  0.1075  0.7115  0.1211
    6MOL   C377 2587   6.220   2.861   2.403  0.6342 -0.1065  1.2144
    6MOL   C378 2588   6.218   2.939   2.542  0.7049  0.1434  0.5735
    6MOL   C379 2589   6.356   2.952   2.616  0.0686  0.4196 -0.0895
    6MOL   C380 2590   6.463   2.996   2.515 -0.6059 -0.5317 -1.0547
    6MOL   C381 2591   6.464   2.915   2.381  0.1871  0.1323 -0.2442
    6MOL   C382 2592   6.323   2.922   2.316  0.0422  0.5879  0.1075
    6MOL   C383 2593   6.024   2.982   2.283  0.2483  1.0292  0.0865
    6MOL   H384 2594   6.022   2.811   2.407 -0.8895  0.6621 -0.7132
    6MOL   H385 2595   6.257   2.759   2.418 -0.7835 -0.6949  0.8082
    6MOL   H386 2596   6.176   3.037   2.523  0.6794  0.7216  3.3334
    6MOL   H387 2597   6.151   2.877   2.602  1.1784 -1.4516 -0.5138
    6MOL   H388 2598   6.389   2.859   2.663 -0.0469  0.7564  0.6713
    6MOL   H389 2599   6.342   3.026   2.695 -2.9162 -0.5633  0.3490
    6MOL   H390 2600   6.442   3.099   2.488  0.6693 -0.3582 -1.4008
    6MOL   H391 2601   6.564   2.997   2.555 -1.3902 -0.3819  1.0089
    6MOL   H392 2602   6.544   2.945   2.313 -0.3750 -1.5535 -1.6705
    6MOL   H393 2603   6.482   2.809   2.401  0.9561  0.4898  1.0042
    6MOL   H394 2604   6.294   3.022   2.287 -0.3346  0.0667 -1.3441
    6MOL   H395 2605   6.330   2.863   2.225  1.1213  1.0619 -0.1215
    6MOL   H396 2606   6.073   3.004   2.188 -0.9983 -1.5129 -1.1689
    6MOL   H397 2607   6.046   3.066   2.350  1.0205  0.2189  0.8610
    6MOL   C398 2608   5.868   2.978   2.258  0.4803  0.1645 -0.3184
    6MOL   C399 2609   5.767   2.988   2.387  0.3110 -0.2213 -0.8401
    6MOL   C400 2610   5.751   3.134   2.451 -0.6797 -0.1731 -0.3830
    6MOL   C401 2611   5.641   3.143   2.556  0.2266  0.6154 -0.1364
    6MOL   C402 2612   5.511   3.108   2.494 -0.4769  0.0258 -0.4549
    6MOL   C403 2613   5.514   2.961   2.448  0.1037 -0.0430 -0.6602
    6MOL   C404 2614   5.629   2.916   2.350 -0.3923  0.5297 -0.0100
    6MOL   C405 2615   5.829   3.091   2.156  0.3300  0.3534 -0.6668
    6MOL   H406 2616   5.837   2.884   2.211 -1.3354 -0.0738  1.2764
    6MOL   H407 2617   5.808   2.924   2.465 -0.1903 -1.2151 -1.3969
    6MOL   H408 2618   5.716   3.207   2.378 -2.1651  0.1304  0.6032
    6MOL   H409 2619   5.843   3.173   2.495 -0.8258  0.3947 -0.5732
    6MOL   H410 2620   5.644   3.250   2.576  0.6027  0.8187 -1.2461
    6MOL   H411 2621   5.667   3.092   2.648  0.7384  2.4360  0.7561
    6MOL   H412 2622   5.489   3.166   2.404  2.5568  2.9442  0.5706
    6MOL   H413 2623   5.434   3.129   2.568  1.8479  1.8820  1.5076
    6MOL   H414 2624   5.526   2.896   2.534  1.2062 -0.2664 -0.9765
    6MOL   H415 2625   5.412   2.938   2.417 -0.1936  0.1138  0.1827
    6MOL   H416 2626   5.650   2.809   2.348  0.3158  0.6598  0.3362
    6MOL   H417 2627   5.607   2.945   2.247 -1.3557  0.2425  0.1098
    6MOL   H418 2628   5.724   3.117   2.167 -0.0509 -1.7649  1.1403
    6MOL   H419 2629   5.877   3.180   2.198 -2.0719 -0.1226  3.3499
    6MOL   C420 2630   5.854   3.061   2.003  0.7783  0.1676  0.2328
    6MOL   C421 2631   5.825   3.189   1.921  0.4218 -0.0010 -0.0599
    6MOL   C422 2632   5.915   3.308   1.966  0.0102  0.4716 -0.9137
    6MOL   C423 2633   5.909   3.425   1.859  0.2372  0.5306 -0.0987
    6MOL   C424 2634   5.761   3.469   1.844  0.2564  0.0992 -0.1012
    6MOL   C425 2635   5.657   3.360   1.804 -0.1972 -0.3346  0.7856
    6MOL   C426 2636   5.680   3.237   1.904 -0.1941 -0.4864  0.0962
    6MOL   C427 2637   5.768   2.942   1.954  0.3869  0.7270  0.6572
    6MOL   H428 2638   5.962   3.051   1.996  0.7112  0.4210 -1.4026
    6MOL   H429 2639   5.865   3.171   1.821 -0.4232 -1.5271 -0.1295
    6MOL   H430 2640   5.876   3.351   2.058  0.6615 -1.8741  0.5137
    6MOL   H431 2641   6.016   3.287   2.000 -0.7213 -0.5232  0.7398
    6MOL   H432 2642   5.963   3.509   1.904  0.2011 -0.7474  2.4052
    6MOL   H433 2643   5.957   3.401   1.764 -0.0067 -2.2871  0.4538
    6MOL   H434 2644   5.756   3.552   1.773 -1.0740 -2.2996 -2.9125
    6MOL   H435 2645   5.732   3.493   1.946 -1.2979 -0.2651 -0.4393
    6MOL   H436 2646   5.673   3.329   1.700  1.1196 -3.1763  1.7848
    6MOL   H437 2647   5.556   3.395   1.821 -0.0639  0.6590 -0.4191
    6MOL   H438 2648   5.641   3.263   2.002  1.4423  2.7071 -0.0224
    6MOL   H439 2649   5.620   3.151   1.875  1.6324 -1.9805  0.7118
    6MOL   H440 2650   5.660   2.951   1.964  0.4534  1.5293  0.6580
    6MOL   H441 2651   5.779   2.916   1.849  0.1639 -2.4407  1.3720
    6MOL   H442 2652   5.804   2.860   2.016 -0.0514 -0.7076 -0.9196
    7MOL     C1 2653   1.030   4.895   0.337  0.6680  0.3958  0.2777
    7MOL     C2 2654   0.897   4.857   0.262  0.1754 -0.3216  0.5816
    7MOL     C3 2655   0.881   4.945   0.135  1.3102 -0.5332 -0.5811
    7MOL     C4 2656   0.744   4.916   0.070 -0.1754 -0.4385 -0.4021
    7MOL     C5 2657   0.627   4.941   0.170  0.1920  0.6162 -0.3821
    7MOL     C6 2658   0.646   4.848   0.296 -0.0614 -1.4567 -0.1393
    7MOL     C7 2659   0.785   4.878   0.362 -0.5571  0.3117 -0.8288
    7MOL     C8 2660   1.094   4.767   0.403  0.2063 -0.9117 -0.0151
    7MOL     H9 2661   1.098   4.926   0.258 -0.1142 -0.4492 -0.7503
    7MOL    H10 2662   0.899   4.755   0.223  0.2074 -0.3850  0.7486
    7MOL    H11 2663   0.884   5.051   0.159 -0.2300 -0.5899 -0.0939
    7MOL    H12 2664   0.957   4.914   0.064 -0.1371 -2.3645 -1.3691
    7MOL    H13 2665   0.743   4.809   0.049  0.1791 -0.7936  1.2977
    7MOL    H14 2666   0.707   4.971   7.756  0.3809  0.2058 -0.2293
    7MOL    H15 2667   0.534   4.913   0.119 -0.3110  0.9796  0.3217
    7MOL    H16 2668   0.616   5.046   0.194  1.6372  0.7434 -0.2706
    7MOL    H17 2669   0.561   4.868   0.362 -0.6767  0.7602 -1.5113
    7MOL    H18 2670   0.620   4.746   0.269 -0.8088 -0.9972 -1.1994
    7MOL    H19 2671   0.789   4.809   0.446  2.1902  2.1290  0.6119
    7MOL    H20 2672   0.796   4.976   0.407  0.4177 -1.1822  2.3513
    7MOL    H21 2673   1.096   4.675   0.345 -1.6404 -0.5823 -0.6248
    7MOL    H22 2674   1.022   4.732   0.477  0.4467  1.7898  1.5677
    7MOL    H23 2675   1.017   4.975   0.410  0.4833 -0.0637  0.7578
    7MOL    C24 2676   1.238   4.793   0.461  0.4570 -0.7772  0.4098
    7MOL    C25 2677   1.275   4.696   0.575  0.2599 -0.0621 -0.7976
    7MOL    C26 2678   1.248   4.549   0.538 -0.2409 -1.0366 -0.2409
    7MOL    C27 2679   1.292   4.452   0.645  0.8472 -0.3485  0.1293
    7MOL    C28 2680   1.236   4.489   0.781 -0.7368 -0.0610  0.1570
    7MOL    C29 2681   1.250   4.644   0.816  0.3497 -0.3867 -0.0826
    7MOL    C30 2682   1.200   4.728   0.700  0.2793  0.7154 -0.1203
    7MOL    C31 2683   1.350   4.810   0.350 -0.0831  1.0288 -0.2642
    7MOL    H32 2684   1.230   4.890   0.510 -1.5095  0.3585 -2.0428
    7MOL    H33 2685   1.382   4.705   0.593  0.4616 -1.3229 -1.3126
    7MOL    H34 2686   1.286   4.523   0.439 -0.8667 -0.9762 -0.4959
    7MOL    H35 2687   1.141   4.543   0.516 -0.7271  2.8775  0.7079
    7MOL    H36 2688   1.273   4.348   0.617 -0.1590  0.1854 -1.1838
    7MOL    H37 2689   1.400   4.461   0.660  0.5391 -0.5772  2.6086
    7MOL    H38 2690   1.273   4.428   0.863 -1.1008 -1.5655 -0.7726
    7MOL    H39 2691   1.127   4.478   0.782 -0.9489  1.4325 -2.1885
    7MOL    H40 2692   1.202   4.664   0.911 -0.7699  1.1124 -0.9415
    7MOL    H41 2693   1.355   4.667   0.833  0.2344 -1.0833  1.6426
    7MOL    H42 2694   1.094   4.715   0.682  0.1341  0.4167  0.9245
    7MOL    H43 2695   1.216   4.834   0.716 -0.0647  0.9116 -1.0360
    7MOL    H44 2696   1.303   4.838   0.255  0.5997  3.4100  0.0615
    7MOL    H45 2697   1.394   4.712   0.332  3.1696  2.2146  0.9259
    7MOL    C46 2698   1.470   4.911   0.370 -1.2905 -0.2460 -0.0219
    7MOL    C47 2699   1.416   5.055   0.393  0.2178 -0.2864 -0.6257
    7MOL    C48 2700   1.352   5.118   0.264  0.3241  0.5873 -0.0973
    7MOL    C49 2701   1.288   5.259   0.299  0.5518  0.1345  0.5426
    7MOL    C50 2702   1.394   5.353   0.365  0.1864 -0.0448  0.2071
    7MOL    C51 2703   1.467   5.286   0.485 -0.2486  0.0871  0.1107
    7MOL    C52 2704   1.529   5.149   0.445 -0.0538  0.6108  0.2987
    7MOL    C53 2705   1.569   4.912   0.243  0.4179  0.0820 -0.2733
    7MOL    H54 2706   1.523   4.866   0.454 -2.1370 -1.8006 -0.2844
    7MOL    H55 2707   1.343   5.050   0.473 -0.6634 -0.2275 -1.4197
    7MOL    H56 2708   1.427   5.131   0.187  0.7252  1.7095  0.4782
    7MOL    H57 2709   1.279   5.051   0.217 -0.9197  1.3554  0.7146
    7MOL    H58 2710   1.200   5.239   0.361  0.5260  0.2230  0.5357
    7MOL    H59 2711   1.254   5.296   0.202 -0.0472 -1.8948 -0.0442
    7MOL    H60 2712   1.461   5.397   0.291 -0.5108  2.4991  1.0382
    7MOL    H61 2713   1.356   5.447   0.405 -1.9565 -0.5667 -0.5227
    7MOL    H62 2714   1.390   5.257   0.557  1.3310  2.1826  2.7781
    7MOL    H63 2715   1.533   5.362   0.527 -0.6565  0.8725 -0.6402
    7MOL    H64 2716   1.599   5.175   0.365 -0.4361  0.0768 -0.2142
    7MOL    H65 2717   1.593   5.095   0.514 -1.3125  0.3358  1.2741
    7MOL    H66 2718   1.625   5.005   0.238  3.2364 -1.5815 -0.7179
    7MOL    H67 2719   1.512   4.905   0.150 -4.5582  1.6462  2.4371
    7MOL    C68 2720   1.670   4.796   0.241  0.4430  0.6096 -0.0396
    7MOL    C69 2721   1.713   4.742   0.105 -0.0206 -0.6269  0.0158
    7MOL    C70 2722   1.628   4.629   0.049  0.2397  0.0739 -0.6305
    7MOL    C71 2723   1.680   4.552   7.699 -0.3140 -0.4541 -0.3555
    7MOL    C72 2724   1.715   4.654   7.588 -0.5229 -0.4949 -0.3962
    7MOL    C73 2725   1.790   4.782   7.638  0.3961 -0.0578  0.0024
    7MOL    C74 2726   1.733   4.847   7.761  0.8272  0.2929  0.2407
    7MOL    C75 2727   1.788   4.833   0.337  0.0136 -0.3884  0.0292
    7MOL    H76 2728   1.614   4.713   0.285 -0.8550  1.3013 -0.3796
    7MOL    H77 2729   1.808   4.694   0.126 -0.4410 -0.7034  1.8418
    7MOL    H78 2730   1.532   4.670   0.016 -0.5562 -0.9720  0.3514
    7MOL    H79 2731   1.605   4.555   0.125 -0.8066  1.5899  0.5520
    7MOL    H80 2732   1.769   4.494   7.723  0.0928 -0.4946 -1.9119
    7MOL    H81 2733   1.612   4.477   7.660 -1.2126  0.7119 -1.0732
    7MOL    H82 2734   1.622   4.690   7.545 -1.2238  0.5642  1.9323
    7MOL    H83 2735   1.782   4.620   7.509 -0.4002  0.3176 -0.6472
    7MOL    H84 2736   1.804   4.854   7.558  0.1274 -0.1142 -0.0950
    7MOL    H85 2737   1.885   4.739   7.672 -0.0793 -0.1117  1.3040
    7MOL    H86 2738   1.637   4.891   7.732  0.7520  0.2662  0.4529
    7MOL    H87 2739   1.802   4.927   0.016  1.0713  0.7411 -1.6274
    7MOL    H88 2740   1.858   4.905   0.295 -0.5907 -0.2306 -0.7081
    7MOL    H89 2741   1.752   4.890   0.423 -0.3825 -0.6586  0.0439
    7MOL    C90 2742   1.862   4.707   0.393 -0.6508 -0.3945 -0.2430
    7MOL    C91 2743   2.018   4.718   0.413  0.0875  0.4070  0.2807
    7MOL    C92 2744   2.085   4.724   0.276  0.2973 -0.3495 -0.0213
    7MOL    C93 2745   2.238   4.720   0.299 -0.2165  0.1906 -0.3651
    7MOL    C94 2746   2.281   4.841   0.389 -0.2536  0.4419  0.1042
    7MOL    C95 2747   2.213   4.845   0.522  0.3802  0.0022 -0.7249
    7MOL    C96 2748   2.062   4.839   0.499  0.0899 -0.2096  0.0504
    7MOL    C97 2749   1.800   4.670   0.533  0.8736  0.0929 -0.0022
    7MOL    H98 2750   1.839   4.623   0.326  1.1863 -2.4710  1.6194
    7MOL    H99 2751   2.057   4.627   0.458  1.0395  0.9980  0.6567
    7MOL   H100 2752   2.058   4.812   0.219  2.4722  1.2966  1.3963
    7MOL   H101 2753   2.050   4.640   0.217  1.9350 -0.8823 -0.2736
    7MOL   H102 2754   2.296   4.729   0.207 -1.6215  0.7958 -1.2156
    7MOL   H103 2755   2.268   4.630   0.352 -1.2669  1.7343  3.0235
    7MOL   H104 2756   2.264   4.933   0.333 -0.4788  0.9453  1.0041
    7MOL   H105 2757   2.387   4.835   0.413 -0.9317 -0.5795  2.9754
    7MOL   H106 2758   2.229   4.757   0.585  0.7834  0.7572  0.2323
    7MOL   H107 2759   2.237   4.933   0.581  2.7254 -1.8723  1.2058
    7MOL   H108 2760   2.015   4.837   0.598 -0.2045 -0.7094 -0.0931
    7MOL   H109 2761   2.024   4.922   0.440 -0.1348 -1.5718 -1.7625
    7MOL   H110 2762   1.818   4.755   0.599 -1.8552  0.7171 -0.0163
    7MOL   H111 2763   1.693   4.669   0.516  0.8183  0.1820  0.3373
    7MOL   C112 2764   1.828   4.531   0.598 -0.3508 -0.3945  0.7255
    7MOL   C113 2765   1.843   4.418   0.496 -0.2498 -0.3993  0.1631
    7MOL   C114 2766   1.707   4.392   0.415 -0.2248 -0.0368  0.2290
    7MOL   C115 2767   1.722   4.290   0.298 -1.0427  0.3179 -0.1353
    7MOL   C116 2768   1.780   4.158   0.352 -0.4927  0.5928 -0.3427
    7MOL   C117 2769   1.914   4.180   0.431 -0.3935  0.3639 -0.0977
    7MOL   C118 2770   1.900   4.285   0.540  0.7221  0.1137 -0.4002
    7MOL   C119 2771   1.732   4.502   0.717 -0.2566  0.5253 -0.3662
    7MOL   H120 2772   1.933   4.544   0.625 -0.0780  0.0183 -0.5203
    7MOL   H121 2773   1.924   4.442   0.426 -0.0563 -0.5685  0.3289
    7MOL   H122 2774   1.655   4.479   0.373  0.2424 -1.0123 -2.4270
    7MOL   H123 2775   1.634   4.350   0.485  1.5068  0.1834  2.2307
    7MOL   H124 2776   1.626   4.267   0.251 -1.4805 -1.0192  1.3621
    7MOL   H125 2777   1.785   4.326   0.217  0.0916  1.3565  1.1838
    7MOL   H126 2778   1.705   4.118   0.420 -0.6547  1.2322 -0.1424
    7MOL   H127 2779   1.792   4.079   0.277 -2.9775 -2.1276  1.9919
    7MOL   H128 2780   1.939   4.087   0.482 -2.6339 -1.0770 -1.5188
    7MOL   H129 2781   2.004   4.202   0.375 -0.5498 -1.5730 -1.1469
    7MOL   H130 2782   1.999   4.291   0.585 -0.1542  2.0726  1.4014
    7MOL   H131 2783   1.835   4.243   0.618  0.8416  1.2307  0.3122
    7MOL   H132 2784   1.659   4.426   0.690  2.1571 -1.7272 -0.8462
    7MOL   H133 2785   1.672   4.592   0.714  1.1489  1.4989  0.2045
    7MOL   C134 2786   1.795   4.482   0.851  0.0685 -0.8265  0.6393
    7MOL   C135 2787   1.703   4.403   0.951 -0.4293  0.0598 -0.1204
    7MOL   C136 2788   1.696   4.258   0.912 -0.1975  0.7854 -0.1081
    7MOL   C137 2789   1.597   4.172   0.994  0.1125 -0.4761  0.0777
    7MOL   C138 2790   1.465   4.239   1.036  0.0941 -0.6399 -0.4319
    7MOL   C139 2791   1.493   4.386   1.071  0.5382 -1.1250  0.2535
    7MOL   C140 2792   1.565   4.464   0.956 -0.6419 -0.0255 -0.1216
    7MOL   C141 2793   1.847   4.618   0.902 -0.5288  0.0273  0.1147
    7MOL   H142 2794   1.879   4.417   0.829 -0.5654 -0.7349 -2.1800
    7MOL   H143 2795   1.737   4.406   1.054 -0.0912  0.6768 -0.2452
    7MOL   H144 2796   1.680   4.244   0.805  0.7563  2.0029 -0.4316
    7MOL   H145 2797   1.797   4.219   0.925 -0.0638  1.3863  0.6890
    7MOL   H146 2798   1.629   4.130   1.090  0.0083  1.5418  1.0248
    7MOL   H147 2799   1.572   4.091   0.925 -1.4980 -0.4244  0.5953
    7MOL   H148 2800   1.400   4.236   0.949  0.8404 -0.5878 -0.9924
    7MOL   H149 2801   1.408   4.180   1.109 -1.6193  0.4296 -0.8760
    7MOL   H150 2802   1.542   4.380   1.168 -0.3112  4.1007  1.1655
    7MOL   H151 2803   1.397   4.436   1.083  0.8402 -0.1140 -1.3518
    7MOL   H152 2804   1.498   4.451   0.871 -1.2984 -0.1671  0.4155
    7MOL   H153 2805   1.575   4.570   0.979  2.7322 -0.3184  0.0056
    7MOL   H154 2806   1.766   4.671   0.950  0.1135  0.4148  0.7813
    7MOL   H155 2807   1.866   4.677   0.813 -2.7660 -1.2111 -1.2371
    7MOL   C156 2808   1.976   4.616   0.997 -1.0966 -0.0612 -0.2012
    7MOL   C157 2809   1.997   4.747   1.077 -0.6759  0.2704 -0.3373
    7MOL   C158 2810   2.010   4.867   0.983  0.6878 -0.6874  0.5594
    7MOL   C159 2811   2.026   4.996   1.064 -0.3286 -0.1256 -0.1877
    7MOL   C160 2812   1.912   5.008   1.173  0.3933 -0.6975  0.4030
    7MOL   C161 2813   1.917   4.882   1.268 -0.2672  0.3440  0.7779
    7MOL   C162 2814   1.881   4.760   1.186 -0.1298 -0.5767 -0.3709
    7MOL   C163 2815   2.103   4.570   0.916  0.0589  0.8386  0.2913
    7MOL   H164 2816   1.959   4.535   1.067 -0.9891  0.7589  0.7843
    7MOL   H165 2817   2.090   4.725   1.131 -0.9315 -1.3580 -0.5323
    7MOL   H166 2818   2.098   4.850   0.921 -0.6719  0.4620 -1.7184
    7MOL   H167 2819   1.920   4.865   0.921  0.2750  0.6530  1.1032
    7MOL   H168 2820   2.115   4.987   1.126 -0.8998 -2.6799  0.2935
    7MOL   H169 2821   2.035   5.087   1.004 -0.0075  0.2504  0.4270
    7MOL   H170 2822   1.813   5.009   1.127 -0.5055  0.1462  2.3071
    7MOL   H171 2823   1.924   5.098   1.233 -2.0719 -0.1612  0.1429
    7MOL   H172 2824   1.841   4.890   1.346 -1.9611  0.5138 -0.8410
    7MOL   H173 2825   2.015   4.868   1.313  0.5658  1.7209 -0.5555
    7MOL   H174 2826   1.871   4.666   1.240 -0.1392 -0.8284 -0.8079
    7MOL   H175 2827   1.785   4.780   1.139 -0.4815  1.7282  1.2400
    7MOL   H176 2828   2.194   4.628   0.933  2.4733 -3.5998  3.4109
    7MOL   H177 2829   2.097   4.602   0.812  0.6753  2.3837  0.7087
    7MOL   C178 2830   2.155   4.427   0.924  0.0321 -0.7494  0.8699
    7MOL   C179 2831   2.211   4.374   0.789  0.6936 -0.6782 -1.3639
    7MOL   C180 2832   2.240   4.221   0.788  0.3352  0.3197 -0.0469
    7MOL   C181 2833   2.292   4.164   0.654 -0.4411 -0.6008  0.4952
    7MOL   C182 2834   2.412   4.239   0.611 -0.3230  0.3205  0.6749
    7MOL   C183 2835   2.398   4.397   0.617  0.5891 -0.3139  0.4224
    7MOL   C184 2836   2.337   4.454   0.745 -0.6795  0.2552  0.3788
    7MOL   C185 2837   2.246   4.403   1.054 -0.4714 -0.4016 -0.2033
    7MOL   H186 2838   2.065   4.367   0.936 -0.2304 -0.1848  1.8013
    7MOL   H187 2839   2.125   4.388   0.724  0.2630 -1.3437 -0.9464
    7MOL   H188 2840   2.319   4.211   0.862 -1.0937  0.2598  1.4983
    7MOL   H189 2841   2.150   4.166   0.815  0.8459  0.4732  2.0202
    7MOL   H190 2842   2.202   4.173   0.593  0.2009  0.5901 -0.3003
    7MOL   H191 2843   2.312   4.060   0.678  0.4104 -0.1828  1.6549
    7MOL   H192 2844   2.488   4.216   0.685 -0.2187 -0.1002  0.4356
    7MOL   H193 2845   2.446   4.201   0.514 -1.6139 -2.7375  1.3883
    7MOL   H194 2846   2.327   4.414   0.536  1.9476 -0.2476 -0.7738
    7MOL   H195 2847   2.487   4.454   0.590 -0.8860  0.2278 -3.7180
    7MOL   H196 2848   2.421   4.452   0.814 -0.9123 -1.8144  0.6554
    7MOL   H197 2849   2.302   4.556   0.731 -0.7154  0.0663 -0.9343
    7MOL   H198 2850   2.306   4.312   1.054 -1.3010 -0.9530 -0.1915
    7MOL   H199 2851   2.315   4.487   1.060 -0.3787 -0.5846  1.4873
    7MOL   C200 2852   2.170   4.394   1.198 -0.1777  0.2288 -0.0288
    7MOL   C201 2853   2.048   4.305   1.217 -0.3414  0.4114  0.3589
    7MOL   C202 2854   2.082   4.154   1.224 -0.0732 -0.1887  0.6805
    7MOL   C203 2855   1.949   4.078   1.232 -0.2408  0.6836  0.0967
    7MOL   C204 2856   1.860   4.122   1.348  0.3877  0.1953 -0.8365
    7MOL   C205 2857   1.823   4.267   1.340  0.2245 -0.0307  0.1176
    7MOL   C206 2858   1.954   4.349   1.325 -0.1564 -0.0846 -0.0829
    7MOL   C207 2859   2.274   4.383   1.309 -0.2579 -1.0577 -0.3039
    7MOL   H208 2860   2.131   4.494   1.217  0.4959  1.2331 -3.7068
    7MOL   H209 2861   2.003   4.318   1.118  2.2317  2.3724 -0.6000
    7MOL   H210 2862   2.132   4.130   1.318  1.4283  0.2636  0.0086
    7MOL   H211 2863   2.151   4.127   1.144  1.4197  1.7504  1.2730
    7MOL   H212 2864   1.887   4.102   1.145  1.1587 -1.6030 -1.5966
    7MOL   H213 2865   1.959   3.969   1.229  0.3681  0.7661 -1.1268
    7MOL   H214 2866   1.774   4.056   1.356 -0.9814  1.8320 -1.6009
    7MOL   H215 2867   1.916   4.101   1.439 -1.4601  0.2398  0.3326
    7MOL   H216 2868   1.756   4.298   1.260  1.1021 -0.2915 -0.7388
    7MOL   H217 2869   1.770   4.276   1.434  0.9335 -0.9482  0.6108
    7MOL   H218 2870   1.928   4.451   1.294 -0.7525 -0.5409 -1.1344
    7MOL   H219 2871   1.998   4.357   1.424  1.2427  1.7434 -0.8141
    7MOL   H220 2872   2.223   4.401   1.404  0.5443 -0.8740  0.0992
    7MOL   H221 2873   2.301   4.280   1.334 -1.8009 -1.4275 -0.0923
    7MOL   C222 2874   2.406   4.471   1.307 -0.0576  0.2584  0.3816
    7MOL   C223 2875   2.422   4.548   1.442  0.3193 -0.2858  0.1563
    7MOL   C224 2876   2.436   4.449   1.558  0.3804 -0.1714 -0.3626
    7MOL   C225 2877   2.456   4.528   1.686  0.1917  0.2214 -0.9136
    7MOL   C226 2878   2.338   4.621   1.710 -0.5916 -0.0474  0.7705
    7MOL   C227 2879   2.327   4.715   1.593  0.5960  0.2524 -0.4145
    7MOL   C228 2880   2.308   4.653   1.462 -0.0248  0.0172 -0.7174
    7MOL   C229 2881   2.538   4.404   1.263 -0.4391  0.3998  0.0614
    7MOL   H230 2882   2.392   4.560   1.246 -1.5789 -0.4328 -0.2941
    7MOL   H231 2883   2.512   4.609   1.439 -0.8454  1.4254 -2.0706
    7MOL   H232 2884   2.352   4.383   1.578  0.5430  0.3753  2.3387
    7MOL   H233 2885   2.524   4.387   1.540 -0.5500 -1.7491  0.4778
    7MOL   H234 2886   2.552   4.579   1.682  0.8016 -0.9116 -0.8867
    7MOL   H235 2887   2.467   4.465   1.775 -3.6003 -0.5807 -0.9361
    7MOL   H236 2888   2.241   4.571   1.710 -1.3801  1.4524  1.7845
    7MOL   H237 2889   2.339   4.691   1.794  1.4000 -0.1096  0.8204
    7MOL   H238 2890   2.410   4.786   1.583 -1.3015  2.3827 -1.3676
    7MOL   H239 2891   2.242   4.783   1.605  0.7431  0.2155  0.9774
    7MOL   H240 2892   2.206   4.617   1.450 -0.5551  0.1033  3.0020
    7MOL   H241 2893   2.305   4.722   1.377  3.0172  1.6445  0.4079
    7MOL   H242 2894   2.514   4.302   1.235  1.3238  0.4269 -1.6945
    7MOL   H243 2895   2.608   4.378   1.342  0.1865 -0.9455 -0.9064
    7MOL   C244 2896   2.617   4.482   1.150  0.3279 -0.4580 -0.1702
    7MOL   C245 2897   2.711   4.393   1.068  0.1221  0.5930  0.3323
    7MOL   C246 2898   2.650   4.258   1.010  0.0281  0.2706  0.3337
    7MOL   C247 2899   2.741   4.180   0.907 -0.5999  0.2315  0.3678
    7MOL   C248 2900   2.867   4.146   0.986 -0.0006  0.3903 -0.2447
    7MOL   C249 2901   2.938   4.274   1.043  0.3100  0.2367 -0.3807
    7MOL   C250 2902   2.849   4.364   1.133 -0.1964 -0.0417  0.0428
    7MOL   C251 2903   2.674   4.618   1.200 -0.5144  0.2296  0.4540
    7MOL   H252 2904   2.532   4.508   1.088 -2.1443 -2.4438  2.2663
    7MOL   H253 2905   2.728   4.444   0.973 -0.7519 -1.2607 -0.8785
    7MOL   H254 2906   2.558   4.268   0.952  0.3848 -1.7624 -0.6067
    7MOL   H255 2907   2.631   4.201   1.101  1.0580 -0.6312 -0.0089
    7MOL   H256 2908   2.691   4.090   0.872 -0.9130 -0.0252  1.4362
    7MOL   H257 2909   2.765   4.242   0.821  0.0666 -0.0866  0.3295
    7MOL   H258 2910   2.840   4.075   1.064 -2.3944  0.4850 -0.9467
    7MOL   H259 2911   2.930   4.092   0.914 -1.2237  1.5119 -2.2119
    7MOL   H260 2912   2.967   4.333   0.955  1.5696  0.0597 -0.0953
    7MOL   H261 2913   3.030   4.255   1.098  1.3233 -1.6683 -2.6553
    7MOL   H262 2914   2.838   4.310   1.227 -0.4246 -0.0389  0.0175
    7MOL   H263 2915   2.907   4.455   1.151 -1.1002  0.6573 -0.5472
    7MOL   H264 2916   2.747   4.605   1.279  0.7114  0.4465 -0.6343
    7MOL   H265 2917   2.600   4.685   1.244  0.3478  0.9469  0.8317
    7MOL   C266 2918   2.746   4.706   1.089  0.0700 -0.6709  0.5492
    7MOL   C267 2919   2.654   4.722   0.973 -0.3894  0.2016  0.0873
    7MOL   C268 2920   2.725   4.772   0.844  0.1045 -0.0167  0.2899
    7MOL   C269 2921   2.629   4.792   0.727  0.2317 -0.3243  0.3692
    7MOL   C270 2922   2.514   4.891   0.764 -0.1023  0.3739 -0.3403
    7MOL   C271 2923   2.440   4.839   0.882 -0.2740 -0.3791 -0.0537
    7MOL   C272 2924   2.529   4.808   1.004 -0.0927  0.3131  0.2648
    7MOL   C273 2925   2.787   4.842   1.149  0.5032 -0.4634  0.2093
    7MOL   H274 2926   2.838   4.658   1.056  0.6720  0.6777  0.2159
    7MOL   H275 2927   2.609   4.626   0.945 -1.0162  0.5537 -0.1151
    7MOL   H276 2928   2.790   4.859   0.852  1.9773 -1.4603  1.1189
    7MOL   H277 2929   2.795   4.691   0.820  0.4812  0.8926 -1.8188
    7MOL   H278 2930   2.595   4.697   0.686  0.0309  0.0937 -0.4574
    7MOL   H279 2931   2.686   4.856   0.659 -0.5115  0.4306  0.4514
    7MOL   H280 2932   2.562   4.987   0.787 -1.8333  1.3392 -0.6770
    7MOL   H281 2933   2.449   4.920   0.681  1.4370  2.1438 -0.9643
    7MOL   H282 2934   2.399   4.743   0.852  0.0868  0.3365 -2.9721
    7MOL   H283 2935   2.357   4.906   0.905 -0.8264 -0.8715 -0.5987
    7MOL   H284 2936   2.465   4.765   1.081  0.7992  1.0742  1.4648
    7MOL   H285 2937   2.564   4.905   1.040  2.3932 -1.1968  2.1244
    7MOL   H286 2938   2.696   4.888   1.187  1.7878  0.7108  1.9290
    7MOL   H287 2939   2.818   4.907   1.067  1.9302  0.3842  1.3966
    7MOL   C288 2940   2.896   4.848   1.257 -0.3438 -0.3172 -0.3400
    7MOL   C289 2941   2.852   4.920   1.390 -0.0341  0.9271  0.2942
    7MOL   C290 2942   2.844   5.072   1.383 -0.2592 -0.5655  0.5617
    7MOL   C291 2943   2.806   5.132   1.522 -0.2840 -0.0447  0.4408
    7MOL   C292 2944   2.677   5.071   1.570 -0.0758  0.7397  0.6340
    7MOL   C293 2945   2.686   4.916   1.594 -0.0718  0.2205  0.0283
    7MOL   C294 2946   2.734   4.857   1.459 -0.2285  0.0533  0.4023
    7MOL   C295 2947   3.022   4.917   1.194 -0.2705  0.4735 -0.3095
    7MOL   H296 2948   2.915   4.747   1.294  3.1244 -0.2410 -1.7822
    7MOL   H297 2949   2.928   4.907   1.466  2.8154  0.7730 -2.4585
    7MOL   H298 2950   2.939   5.114   1.348 -0.4300 -0.4791  0.2000
    7MOL   H299 2951   2.781   5.103   1.300  0.5846 -1.5333 -0.4521
    7MOL   H300 2952   2.887   5.106   1.590 -0.0643  1.2385  0.6826
    7MOL   H301 2953   2.804   5.240   1.510 -0.5825 -0.2775 -1.7360
    7MOL   H302 2954   2.597   5.077   1.496  2.1655 -1.2530 -2.0135
    7MOL   H303 2955   2.646   5.107   1.669 -0.8192 -0.1326  0.7338
    7MOL   H304 2956   2.589   4.879   1.627  0.7060 -2.1833 -0.2897
    7MOL   H305 2957   2.755   4.902   1.678  0.6751 -0.0648 -0.6286
    7MOL   H306 2958   2.648   4.863   1.393 -1.6929 -0.5174  2.2008
    7MOL   H307 2959   2.754   4.752   1.480 -0.8029 -0.1740 -0.1451
    7MOL   H308 2960   3.009   5.001   1.126  2.3181  1.3006  0.1733
    7MOL   H309 2961   3.067   4.964   1.281  1.7921  0.9521 -1.6042
    7MOL   C310 2962   3.119   4.816   1.130 -0.2637  0.0139 -0.1123
    7MOL   C311 2963   3.095   4.776   0.977  0.4231  0.0832 -0.0969
    7MOL   C312 2964   3.128   4.882   0.873  0.1096  0.1940  0.2424
    7MOL   C313 2965   3.110   4.827   0.726 -0.0401  0.4611  0.0289
    7MOL   C314 2966   3.182   4.692   0.704  0.4683  0.3922 -0.0705
    7MOL   C315 2967   3.129   4.590   0.804 -0.2489 -0.1815 -0.4518
    7MOL   C316 2968   3.164   4.637   0.943 -0.2868  0.3072  0.3813
    7MOL   C317 2969   3.271   4.871   1.149  0.3385  0.1583  0.5262
    7MOL   H318 2970   3.108   4.722   1.184 -0.0360 -0.1222 -0.3004
    7MOL   H319 2971   2.988   4.769   0.959  0.4324 -0.6195  0.1146
    7MOL   H320 2972   3.061   4.967   0.888  2.0644  2.0423 -1.1262
    7MOL   H321 2973   3.228   4.925   0.879 -0.6115  1.9998 -0.3377
    7MOL   H322 2974   3.161   4.900   0.663 -0.2629  2.1727  1.7690
    7MOL   H323 2975   3.006   4.825   0.696 -0.4114 -2.3237  1.3266
    7MOL   H324 2976   3.167   4.654   0.603 -0.2584  0.7551 -0.1063
    7MOL   H325 2977   3.291   4.697   0.702  0.6355 -1.1542  2.6892
    7MOL   H326 2978   3.022   4.574   0.793 -0.5661 -0.8478  2.9423
    7MOL   H327 2979   3.167   4.488   0.790  2.5558  1.2244 -3.7792
    7MOL   H328 2980   3.272   4.639   0.959 -0.1670  1.0052 -0.5028
    7MOL   H329 2981   3.122   4.571   1.019 -2.1117  0.5838 -0.3573
    7MOL   H330 2982   3.279   4.965   1.093  0.3478 -0.1966 -0.0670
    7MOL   H331 2983   3.339   4.807   1.093  0.9405 -0.6778  2.1759
    7MOL   C332 2984   3.336   4.886   1.291  0.7803  0.1112  0.2315
    7MOL   C333 2985   3.423   5.012   1.301  0.6037 -0.2940 -0.2183
    7MOL   C334 2986   3.344   5.149   1.298  0.0296 -0.1656 -0.1331
    7MOL   C335 2987   3.436   5.265   1.300 -0.4723 -0.1865  0.3201
    7MOL   C336 2988   3.556   5.265   1.200  0.1469 -0.0239  0.4946
    7MOL   C337 2989   3.628   5.133   1.215 -0.4316  0.5673  0.0456
    7MOL   C338 2990   3.535   5.015   1.186 -0.0120  0.0649 -0.2905
    7MOL   C339 2991   3.416   4.758   1.322  0.6188  0.0589 -0.8585
    7MOL   H340 2992   3.258   4.898   1.367  1.5801  0.9010  0.9342
    7MOL   H341 2993   3.484   5.008   1.391 -0.7383 -0.4675  0.7002
    7MOL   H342 2994   3.293   5.147   1.202  0.9287 -0.8363 -0.6022
    7MOL   H343 2995   3.266   5.160   1.374 -0.1029  1.4493 -0.4897
    7MOL   H344 2996   3.378   5.356   1.286 -0.0712  0.1660  0.9177
    7MOL   H345 2997   3.477   5.276   1.400  0.7463  1.9233 -0.3695
    7MOL   H346 2998   3.524   5.279   1.097 -1.2272  1.3844  1.0869
    7MOL   H347 2999   3.633   5.338   1.225  0.2024 -0.3068  1.1641
    7MOL   H348 3000   3.676   5.137   1.313  1.0393  1.4709 -0.6728
    7MOL   H349 3001   3.702   5.123   1.135 -0.4063 -2.5936  0.4074
    7MOL   H350 3002   3.587   4.919   1.192 -2.6180 -1.5910 -3.0439
    7MOL   H351 3003   3.491   5.032   1.088 -1.0585 -3.3752 -0.5003
    7MOL   H352 3004   3.483   4.779   1.405 -0.9234 -0.2414  0.5076
    7MOL   H353 3005   3.488   4.746   1.242  1.0134 -0.4813 -0.4279
    7MOL   C354 3006   3.339   4.629   1.353  0.9908 -0.6306 -0.1598
    7MOL   C355 3007   3.215   4.664   1.448 -0.1592  0.4669  0.6378
    7MOL   C356 3008   3.264   4.713   1.589  0.2184  0.0392 -0.1985
    7MOL   C357 3009   3.136   4.751   1.666 -0.2988 -0.1280  0.3128
    7MOL   C358 3010   3.045   4.628   1.690  0.3320 -0.3839  1.2014
    7MOL   C359 3011   3.001   4.570   1.559 -0.6047 -0.7324  0.6684
    7MOL   C360 3012   3.120   4.548   1.468  0.3379  0.1903 -0.0384
    7MOL   C361 3013   3.433   4.516   1.403 -0.9742 -0.0033  0.5982
    7MOL   H362 3014   3.282   4.612   1.262 -1.4759 -1.8122  1.5360
    7MOL   H363 3015   3.147   4.736   1.405 -1.9894 -1.5676  0.0172
    7MOL   H364 3016   3.323   4.803   1.571 -2.1700  1.7543  0.2889
    7MOL   H365 3017   3.321   4.635   1.640  2.0461  1.2045 -0.4025
    7MOL   H366 3018   3.171   4.807   1.752  1.9415  2.4191 -2.1167
    7MOL   H367 3019   3.079   4.821   1.605 -2.3263 -1.5094  0.5836
    7MOL   H368 3020   3.098   4.555   1.751  0.9324 -0.7093  0.2937
    7MOL   H369 3021   2.958   4.656   1.750 -0.2833 -2.3220  1.2539
    7MOL   H370 3022   2.939   4.481   1.569 -1.9671  0.3349  2.0923
    7MOL   H371 3023   2.920   4.631   1.519 -0.5547 -1.2440 -0.2055
    7MOL   H372 3024   3.076   4.519   1.372 -0.2019  0.9326 -0.0162
    7MOL   H373 3025   3.181   4.464   1.503  3.6517  2.6772  0.4338
    7MOL   H374 3026   3.378   4.423   1.410 -0.0354 -0.7704 -1.7292
    7MOL   H375 3027   3.465   4.532   1.506  1.7169  0.1273 -0.2211
    7MOL   C376 3028   3.553   4.498   1.309  0.4264 -0.3058 -0.0630
    7MOL   C377 3029   3.663   4.407   1.370  0.2270 -0.3362 -0.1472
    7MOL   C378 3030   3.810   4.455   1.358  0.5845 -0.3045 -0.2751
    7MOL   C379 3031   3.905   4.364   1.440 -0.0146  0.0685  0.3291
    7MOL   C380 3032   3.906   4.218   1.398  0.4735  0.1120  0.1030
    7MOL   C381 3033   3.757   4.170   1.420 -1.4269  0.5962  0.1000
    7MOL   C382 3034   3.651   4.258   1.343 -0.1294  0.2538 -0.2770
    7MOL   C383 3035   3.507   4.435   1.173 -0.7538 -0.8354  0.5361
    7MOL   H384 3036   3.601   4.592   1.283 -0.3388  0.1178  0.0612
    7MOL   H385 3037   3.643   4.417   1.477  2.2924  0.1162  0.2218
    7MOL   H386 3038   3.848   4.466   1.256  1.9199 -0.9477  0.1306
    7MOL   H387 3039   3.811   4.557   1.398 -0.6221 -0.0616 -0.8659
    7MOL   H388 3040   3.881   4.362   1.547  0.0138  1.8678  0.3712
    7MOL   H389 3041   4.007   4.399   1.431  0.4204 -0.3391  3.1566
    7MOL   H390 3042   3.936   4.196   1.295  1.7456  0.2154  0.4388
    7MOL   H391 3043   3.971   4.154   1.458 -2.6649 -3.1276  0.1829
    7MOL   H392 3044   3.746   4.072   1.375  0.6209  0.2963  0.1763
    7MOL   H393 3045   3.743   4.156   1.527  0.2530 -3.2619 -0.0890
    7MOL   H394 3046   3.675   4.247   1.237  0.1847 -1.0349 -0.0818
    7MOL   H395 3047   3.549   4.225   1.360  0.2900 -0.2010  1.4850
    7MOL   H396 3048   3.420   4.488   1.135 -0.8791 -1.5440 -0.1650
    7MOL   H397 3049   3.469   4.334   1.189 -1.1988 -0.5699  1.2079
    7MOL   C398 3050   3.607   4.441   1.054  0.7582 -0.8564  0.0186
    7MOL   C399 3051   3.569   4.343   0.942 -0.4986  0.0548 -0.1787
    7MOL   C400 3052   3.596   4.195   0.985  0.3086 -0.1268 -0.8158
    7MOL   C401 3053   3.582   4.097   0.868 -0.7298 -0.2420 -0.5669
    7MOL   C402 3054   3.439   4.098   0.834 -0.3299  0.2192 -0.2868
    7MOL   C403 3055   3.399   4.240   0.779  0.4648  0.6073 -0.8487
    7MOL   C404 3056   3.422   4.347   0.894  0.2356 -0.6947  0.2783
    7MOL   C405 3057   3.617   4.595   1.015 -0.1445  0.4028  0.3316
    7MOL   H406 3058   3.707   4.416   1.090  0.8644 -1.5817 -0.7759
    7MOL   H407 3059   3.635   4.362   0.857 -1.0464 -2.0135 -1.0876
    7MOL   H408 3060   3.514   4.171   1.053  0.4729 -1.1633 -0.9770
    7MOL   H409 3061   3.693   4.171   1.028 -2.1804 -2.0957  4.1488
    7MOL   H410 3062   3.609   3.997   0.900 -3.6356 -1.4740 -1.8073
    7MOL   H411 3063   3.653   4.119   0.787 -1.5643 -0.8533 -1.4815
    7MOL   H412 3064   3.374   4.068   0.916  0.4673  1.5241  0.8426
    7MOL   H413 3065   3.421   4.017   0.763 -0.6873  1.2844 -1.4535
    7MOL   H414 3066   3.455   4.245   0.685  2.0768 -1.1959 -0.0229
    7MOL   H415 3067   3.295   4.249   0.750  0.2426 -0.6517 -0.4838
    7MOL   H416 3068   3.418   4.444   0.844  0.3456 -0.8129  0.0420
    7MOL   H417 3069   3.349   4.331   0.973 -2.0158 -0.1053 -1.6323
    7MOL   H418 3070   3.521   4.614   0.968  0.2832 -0.7121 -1.0140
    7MOL   H419 3071   3.617   4.666   1.098  1.0352 -0.3822  1.0239
    7MOL   C420 3072   3.728   4.639   0.910  0.4351 -0.1920 -0.0406
    7MOL   C421 3073   3.869   4.666   0.975 -0.4524 -0.1864 -0.2772
    7MOL   C422 3074   3.872   4.768   1.097 -0.2309  0.7419 -0.4028
    7MOL   C423 3075   4.007   4.784   1.174 -0.5031 -0.5676  0.9074
    7MOL   C424 3076   4.117   4.817   1.076  0.6422  0.1367  0.4328
    7MOL   C425 3077   4.115   4.715   0.955 -0.3851 -0.7708 -0.1501
    7MOL   C426 3078   3.982   4.710   0.880  0.2805 -0.2081  0.2842
    7MOL   C427 3079   3.682   4.771   0.845  0.0660 -0.6545  0.5189
    7MOL   H428 3080   3.748   4.567   0.830  1.1690  1.1441 -1.0775
    7MOL   H429 3081   3.904   4.567   1.003 -3.1892 -0.3201  3.0385
    7MOL   H430 3082   3.863   4.870   1.059  0.4112  2.0665  2.8186
    7MOL   H431 3083   3.791   4.744   1.165 -0.1256  0.7927 -0.2613
    7MOL   H432 3084   4.011   4.863   1.249 -0.2042 -0.4034  0.7214
    7MOL   H433 3085   4.032   4.688   1.219 -2.6533 -1.3270  0.5541
    7MOL   H434 3086   4.207   4.837   1.134  0.2873  0.3594  0.9062
    7MOL   H435 3087   4.098   4.917   1.037  0.0574 -0.6116 -1.2455
    7MOL   H436 3088   4.138   4.612   0.981  1.4521  0.3733  3.0703
    7MOL   H437 3089   4.198   4.748   0.893 -0.2729  0.1238  0.4732
    7MOL   H438 3090   3.954   4.812   0.854  2.4147  0.0403 -1.0959
    7MOL   H439 3091   3.987   4.651   0.788  1.5044 -2.5080  1.7771
    7MOL   H440 3092   3.672   4.861   0.907  2.4802 -1.3465  1.9722
    7MOL   H441 3093   3.737   4.786   0.753  0.0840  1.5511  0.8399
    7MOL   H442 3094   3.582   4.760   0.803  0.2205  2.1073 -0.6916
    8MOL     C1 3095   2.436   6.448   1.495 -0.1542  0.1501  0.8659
    8MOL     C2 3096   2.313   6.493   1.577 -0.4557  0.0803 -0.1762
    8MOL     C3 3097   2.275   6.646   1.575 -0.4705  0.2727  0.6595
    8MOL     C4 3098   2.161   6.687   1.667 -0.1578 -0.4525 -0.0135
    8MOL     C5 3099   2.188   6.642   1.815  0.8136 -0.2101  0.0891
    8MOL     C6 3100   2.194   6.490   1.812  0.1411 -0.0678 -0.4653
    8MOL     C7 3101   2.315   6.443   1.725 -0.7217 -0.2726 -0.4584
    8MOL     C8 3102   2.440   6.472   1.337 -0.9705  0.1639  0.3340
    8MOL     H9 3103   2.524   6.496   1.540  0.3796  2.4716 -2.5050
    8MOL    H10 3104   2.231   6.448   1.521  0.0552 -2.2390  0.9012
    8MOL    H11 3105   2.364   6.702   1.604  0.7719 -1.5718  0.5153
    8MOL    H12 3106   2.255   6.682   1.474 -2.5689 -0.6071  0.7446
    8MOL    H13 3107   2.072   6.639   1.626 -0.8414 -1.0438  2.0919
    8MOL    H14 3108   2.145   6.794   1.652 -0.2489 -0.2128  1.7426
    8MOL    H15 3109   2.105   6.674   1.877  1.4177  2.1800 -0.2816
    8MOL    H16 3110   2.279   6.681   1.861 -0.1192  2.8659 -0.5985
    8MOL    H17 3111   2.215   6.440   1.907 -1.1016 -2.1758 -1.2768
    8MOL    H18 3112   2.109   6.437   1.769  0.1000 -0.2734 -0.1316
    8MOL    H19 3113   2.326   6.334   1.728  0.6552 -0.1198  0.7190
    8MOL    H20 3114   2.412   6.473   1.766 -0.1768  0.9555 -2.5846
    8MOL    H21 3115   2.423   6.576   1.310  0.1875  0.0929 -0.6960
    8MOL    H22 3116   2.351   6.423   1.299 -0.1231  0.3377 -1.9368
    8MOL    H23 3117   2.450   6.342   1.517 -0.0271  0.2936  1.4983
    8MOL    C24 3118   2.572   6.437   1.270 -0.4383 -0.0360 -0.3806
    8MOL    C25 3119   2.562   6.407   1.121  0.2551  0.1745  0.3399
    8MOL    C26 3120   2.509   6.525   1.031  0.2458  0.1348  0.4564
    8MOL    C27 3121   2.506   6.484   0.878  0.0500  0.5423 -0.0959
    8MOL    C28 3122   2.415   6.371   0.862  0.2427 -0.5266 -0.2639
    8MOL    C29 3123   2.470   6.247   0.929  1.0813  0.0832 -0.1646
    8MOL    C30 3124   2.477   6.276   1.083 -0.4109  0.4900  0.1053
    8MOL    C31 3125   2.671   6.555   1.295  0.5772 -0.1149  0.5831
    8MOL    H32 3126   2.610   6.344   1.312 -1.6989 -0.0194  0.8062
    8MOL    H33 3127   2.660   6.374   1.084  0.6309 -0.0817  1.5444
    8MOL    H34 3128   2.570   6.616   1.037 -0.2252  0.5171 -0.4974
    8MOL    H35 3129   2.412   6.555   1.071  0.5857 -0.2754  1.6049
    8MOL    H36 3130   2.464   6.571   0.829 -0.6365 -1.0838 -2.4692
    8MOL    H37 3131   2.608   6.475   0.842 -0.4583  0.1556 -1.4433
    8MOL    H38 3132   2.400   6.363   0.754  0.2704  1.1208 -0.4141
    8MOL    H39 3133   2.315   6.388   0.901  0.0781 -1.7538 -0.1375
    8MOL    H40 3134   2.406   6.160   0.912  0.7884  0.3155 -0.2636
    8MOL    H41 3135   2.571   6.228   0.894  1.1524 -0.4251  0.3163
    8MOL    H42 3136   2.378   6.291   1.126 -1.7367 -0.9697 -2.3722
    8MOL    H43 3137   2.522   6.191   1.134  0.7105  2.0313  1.7832
    8MOL    H44 3138   2.672   6.585   1.400 -0.8241 -0.3892  0.6780
    8MOL    H45 3139   2.629   6.642   1.244 -0.1213 -0.0203  1.3249
    8MOL    C46 3140   2.820   6.520   1.267 -0.3870 -0.4870 -0.1636
    8MOL    C47 3141   2.885   6.411   1.354 -0.2423  0.5875 -0.6957
    8MOL    C48 3142   2.892   6.270   1.295 -0.5229  0.2051 -0.5694
    8MOL    C49 3143   2.988   6.182   1.383 -0.5641 -0.4698  0.1493
    8MOL    C50 3144   2.954   6.185   1.536 -0.1363 -0.1407 -0.2262
    8MOL    C51 3145   2.939   6.322   1.585  0.3885  0.6888 -1.1355
    8MOL    C52 3146   2.832   6.401   1.506  0.3156 -0.2395  0.4643
    8MOL    C53 3147   2.891   6.662   1.285  0.1026 -0.0381 -0.4770
    8MOL    H54 3148   2.838   6.494   1.162 -1.0690 -0.0405 -0.3984
    8MOL    H55 3149   2.990   6.435   1.370 -1.0841  3.4968  0.9683
    8MOL    H56 3150   2.792   6.227   1.294 -0.5173  0.1691 -0.0330
    8MOL    H57 3151   2.934   6.272   1.195  1.3107 -2.1006  0.0949
    8MOL    H58 3152   3.091   6.218   1.386 -1.1092  1.0462  1.0896
    8MOL    H59 3153   2.987   6.081   1.342 -1.1775 -0.1560 -0.6229
    8MOL    H60 3154   2.872   6.119   1.563 -1.3430  1.4833  0.1792
    8MOL    H61 3155   3.038   6.138   1.587  1.9380  1.6887 -1.8773
    8MOL    H62 3156   3.036   6.371   1.572 -0.8411  3.1868 -1.1505
    8MOL    H63 3157   2.917   6.299   1.689  2.0203 -0.7164 -1.0611
    8MOL    H64 3158   2.737   6.349   1.502  0.1026  0.1560  0.3475
    8MOL    H65 3159   2.806   6.486   1.570 -2.4416 -0.5499 -0.2081
    8MOL    H66 3160   2.860   6.695   1.384  1.1578 -0.9004  0.1581
    8MOL    H67 3161   2.845   6.740   1.224  2.6642  0.2814 -2.0994
    8MOL    C68 3162   3.046   6.673   1.258  0.6137 -0.2708  0.2687
    8MOL    C69 3163   3.081   6.740   1.127 -0.1940 -0.0945 -0.5803
    8MOL    C70 3164   3.239   6.739   1.098 -0.4177 -0.3330 -0.2685
    8MOL    C71 3165   3.268   6.813   0.966  0.6825  0.1942  0.2870
    8MOL    C72 3166   3.181   6.750   0.846 -0.2834  0.0597  0.2092
    8MOL    C73 3167   3.034   6.743   0.875 -0.3166  0.3844  0.0792
    8MOL    C74 3168   3.007   6.671   1.009  0.0942 -0.4147 -0.0869
    8MOL    C75 3169   3.121   6.724   1.385  0.0091 -0.3631 -0.1488
    8MOL    H76 3170   3.083   6.574   1.231 -0.7549 -0.4038 -1.1993
    8MOL    H77 3171   3.062   6.847   1.129  1.3352  0.1886 -0.6468
    8MOL    H78 3172   3.280   6.641   1.073  0.4249 -0.6157  2.0899
    8MOL    H79 3173   3.300   6.787   1.174  0.3352 -0.2993 -0.8893
    8MOL    H80 3174   3.252   6.920   0.980  0.6922  0.3494 -0.8312
    8MOL    H81 3175   3.375   6.803   0.945  0.7611 -0.9555  1.2233
    8MOL    H82 3176   3.207   6.647   0.824  1.8935  0.6662 -0.1799
    8MOL    H83 3177   3.197   6.804   0.752  1.4621 -0.4195  0.2167
    8MOL    H84 3178   2.979   6.693   0.795 -0.2419 -1.0653  0.9158
    8MOL    H85 3179   2.984   6.840   0.866 -2.6511 -0.9893 -2.7201
    8MOL    H86 3180   3.042   6.568   0.997 -1.9936 -1.0395 -0.9463
    8MOL    H87 3181   2.900   6.683   1.020  0.0561  0.3344 -1.1704
    8MOL    H88 3182   3.126   6.628   1.436  0.1043  0.5877  1.6878
    8MOL    H89 3183   3.228   6.738   1.372 -0.1435  0.9047 -0.0999
    8MOL    C90 3184   3.063   6.839   1.484  0.2599 -0.1647 -0.1853
    8MOL    C91 3185   2.992   6.764   1.605  0.0298 -0.2964  0.0258
    8MOL    C92 3186   3.073   6.726   1.724 -0.0021  0.0797  0.7496
    8MOL    C93 3187   2.997   6.657   1.837  0.5954 -0.0495  0.1514
    8MOL    C94 3188   2.870   6.739   1.877 -0.0079  0.6335 -0.7382
    8MOL    C95 3189   2.789   6.790   1.755  0.4817 -0.1869 -0.1574
    8MOL    C96 3190   2.881   6.860   1.657  0.5602  0.2242  0.0808
    8MOL    C97 3191   3.170   6.946   1.510  0.1338 -0.3088 -0.1981
    8MOL    H98 3192   2.981   6.873   1.421  1.3770 -0.1484 -1.6776
    8MOL    H99 3193   2.957   6.671   1.562 -0.7217 -1.1043  2.2757
    8MOL   H100 3194   3.105   6.819   1.771  2.3385  0.1998 -0.9534
    8MOL   H101 3195   3.165   6.670   1.704  1.2136  2.4648 -0.5408
    8MOL   H102 3196   3.065   6.648   1.922 -0.2215 -1.3038  0.6843
    8MOL   H103 3197   2.959   6.562   1.800  0.0983  0.0266  0.4618
    8MOL   H104 3198   2.903   6.832   1.924 -1.6077  1.8139 -1.8738
    8MOL   H105 3199   2.811   6.682   1.949  0.8272 -1.5725 -1.7816
    8MOL   H106 3200   2.743   6.706   1.702 -1.3983  1.4828 -1.2558
    8MOL   H107 3201   2.706   6.852   1.790  0.3608 -0.4479  0.0175
    8MOL   H108 3202   2.826   6.892   1.568  0.3472 -0.2548  0.0390
    8MOL   H109 3203   2.941   6.939   1.701  0.1803 -0.4794  1.8992
    8MOL   H110 3204   3.126   7.022   1.574 -2.2259 -1.5793 -0.2283
    8MOL   H111 3205   3.260   6.904   1.554  0.1446  1.8600  1.9706
    8MOL   C112 3206   3.200   7.033   1.389 -0.6231 -1.0272  0.9196
    8MOL   C113 3207   3.343   7.099   1.401  0.0452  0.3823  0.2862
    8MOL   C114 3208   3.457   6.995   1.370  0.1187  0.2819 -0.1188
    8MOL   C115 3209   3.594   7.061   1.336  0.6727  0.1404 -0.0209
    8MOL   C116 3210   3.632   7.159   1.451 -0.0788 -0.4407  0.2591
    8MOL   C117 3211   3.511   7.251   1.487  1.0933 -0.5205  0.0708
    8MOL   C118 3212   3.384   7.174   1.528  0.8659  0.8664  0.2314
    8MOL   C119 3213   3.092   7.140   1.365  0.6191 -0.1200  0.4302
    8MOL   H120 3214   3.203   6.975   1.297 -0.4014  3.3207 -1.9833
    8MOL   H121 3215   3.341   7.161   1.311  0.5052 -0.7912 -0.5591
    8MOL   H122 3216   3.426   6.933   1.287 -0.8578  0.8672 -0.2040
    8MOL   H123 3217   3.473   6.947   1.466  2.7174  0.5005 -0.4005
    8MOL   H124 3218   3.673   6.989   1.317  0.2966  0.6074 -3.7223
    8MOL   H125 3219   3.589   7.110   1.239 -0.3349 -0.8404 -0.4684
    8MOL   H126 3220   3.669   7.105   1.538 -2.3367  1.8280  2.7009
    8MOL   H127 3221   3.706   7.232   1.419 -1.4536  1.3944  1.1384
    8MOL   H128 3222   3.529   7.323   1.567 -0.1721 -1.4826  1.2391
    8MOL   H129 3223   3.482   7.313   1.402  1.0708 -0.7257 -0.0708
    8MOL   H130 3224   3.299   7.240   1.546 -0.6082 -1.1090  0.6067
    8MOL   H131 3225   3.388   7.120   1.622  0.1801 -0.3054 -0.4046
    8MOL   H132 3226   3.125   7.237   1.399 -2.8329  0.7725  1.4758
    8MOL   H133 3227   3.012   7.110   1.433 -0.9680 -0.4138 -1.4992
    8MOL   C134 3228   3.029   7.146   1.220  0.0971 -0.2893  0.2549
    8MOL   C135 3229   3.137   7.168   1.109  0.7334  0.1879  0.1752
    8MOL   C136 3230   3.198   7.314   1.121 -0.2149 -0.6561 -0.0065
    8MOL   C137 3231   3.303   7.335   1.012  0.4095 -0.2808  0.5252
    8MOL   C138 3232   3.245   7.316   0.870  0.6743  0.1934  0.1923
    8MOL   C139 3233   3.189   7.177   0.857 -0.2931  1.0003 -0.6471
    8MOL   C140 3234   3.083   7.154   0.963 -0.3220 -0.0452  0.3801
    8MOL   C141 3235   2.920   7.258   1.227 -0.6584  0.0409  0.5217
    8MOL   H142 3236   2.979   7.051   1.202  1.6204 -0.4314 -4.0836
    8MOL   H143 3237   3.218   7.096   1.121  1.7557  1.4147  0.8623
    8MOL   H144 3238   3.119   7.383   1.091 -1.8553 -1.5935  1.9940
    8MOL   H145 3239   3.232   7.339   1.221 -0.5266  1.2052 -0.3540
    8MOL   H146 3240   3.387   7.272   1.039  0.9708 -0.3152 -1.2450
    8MOL   H147 3241   3.340   7.437   1.020 -0.6434  0.0987  0.6046
    8MOL   H148 3242   3.167   7.390   0.850 -0.7195 -0.9951  1.0562
    8MOL   H149 3243   3.316   7.344   0.793 -0.7816  1.3034 -0.7659
    8MOL   H150 3244   3.263   7.098   0.873 -2.9046 -1.3502  0.2360
    8MOL   H151 3245   3.128   7.177   0.767 -1.4219  0.3977  0.1113
    8MOL   H152 3246   3.003   7.224   0.941  0.6112  0.6995 -0.6974
    8MOL   H153 3247   3.031   7.058   0.962 -0.2363 -0.0880 -0.1282
    8MOL   H154 3248   2.885   7.259   1.123  3.5156  1.8115 -0.9737
    8MOL   H155 3249   2.969   7.354   1.241 -1.4463  0.8518 -2.0124
    8MOL   C156 3250   2.795   7.238   1.319  0.5118  0.3665 -0.2389
    8MOL   C157 3251   2.719   7.109   1.292  0.6218 -0.6153  0.6033
    8MOL   C158 3252   2.634   7.071   1.415  0.4396  0.3461 -0.0019
    8MOL   C159 3253   2.566   6.928   1.398  0.1456  0.2804  0.3468
    8MOL   C160 3254   2.478   6.938   1.269 -0.0092 -0.3594 -0.9023
    8MOL   C161 3255   2.554   6.982   1.140 -0.6042 -0.1251  0.1974
    8MOL   C162 3256   2.627   7.112   1.170 -0.5808 -0.6297  0.0778
    8MOL   C163 3257   2.705   7.368   1.315  0.4715 -0.3802 -0.1201
    8MOL   H164 3258   2.829   7.230   1.422 -1.1394  0.1072  0.3186
    8MOL   H165 3259   2.788   7.026   1.279  1.9844  0.1246  2.7011
    8MOL   H166 3260   2.692   7.053   1.506 -2.2247  0.3890  1.7606
    8MOL   H167 3261   2.556   7.144   1.434 -0.2019 -0.7273  1.6545
    8MOL   H168 3262   2.647   6.857   1.381 -0.3746  0.2247 -2.1239
    8MOL   H169 3263   2.509   6.890   1.483  0.1561 -1.1785 -0.2781
    8MOL   H170 3264   2.394   7.005   1.282  0.6352  0.2188  0.3711
    8MOL   H171 3265   2.432   6.839   1.262  1.1531 -1.0030  0.2907
    8MOL   H172 3266   2.503   6.990   1.044  1.1603  0.3638 -0.7458
    8MOL   H173 3267   2.630   6.904   1.133  1.3469  1.7049  0.3332
    8MOL   H174 3268   2.694   7.131   1.087  0.1206  0.1007  0.8033
    8MOL   H175 3269   2.555   7.192   1.185  1.0928  0.4078  3.1802
    8MOL   H176 3270   2.601   7.352   1.347 -0.3299  1.8135 -1.4955
    8MOL   H177 3271   2.683   7.384   1.209 -0.1992 -1.0006 -0.0776
    8MOL   C178 3272   2.771   7.487   1.380 -0.1870  0.3327 -0.3301
    8MOL   C179 3273   2.771   7.611   1.287 -0.6075  0.4449  0.3393
    8MOL   C180 3274   2.878   7.716   1.332 -0.7794  0.4994 -0.3124
    8MOL   C181 3275   2.879   0.068   1.240  0.5799 -0.4428  0.2394
    8MOL   C182 3276   2.740   0.139   1.232 -0.1723 -0.2144  0.1288
    8MOL   C183 3277   2.638   0.033   1.191  0.1091 -0.6407 -0.3466
    8MOL   C184 3278   2.634   7.679   1.273 -0.9371  1.0011  0.2004
    8MOL   C185 3279   2.706   7.522   1.515  0.0449 -0.0498 -0.4924
    8MOL   H186 3280   2.877   7.465   1.386 -0.0571  0.3319 -2.3154
    8MOL   H187 3281   2.809   7.573   1.191  0.0414 -1.3159  1.2745
    8MOL   H188 3282   2.858   7.747   1.435 -0.6043  0.5474 -0.2938
    8MOL   H189 3283   2.975   7.667   1.329 -1.3381 -0.5856 -0.8578
    8MOL   H190 3284   2.906   0.035   1.140  1.2427  0.1446  0.2251
    8MOL   H191 3285   2.968   0.128   1.257  0.8315 -0.3500 -1.3990
    8MOL   H192 3286   2.723   0.187   1.328 -1.0822 -1.3431  0.5385
    8MOL   H193 3287   2.735   0.223   1.163  3.7775 -0.5170 -0.6656
    8MOL   H194 3288   2.652   7.771   1.089  1.6159  0.3005 -0.4692
    8MOL   H195 3289   2.545   0.089   1.203  1.9416  2.2968  0.7560
    8MOL   H196 3290   2.610   7.715   1.373  1.2093  1.9392  0.4061
    8MOL   H197 3291   2.560   7.604   1.246  0.5369  0.1541 -1.5992
    8MOL   H198 3292   2.744   7.620   1.545 -1.3932  1.4519 -3.3450
    8MOL   H199 3293   2.600   7.541   1.495  0.6007  2.6514 -1.0452
    8MOL   C200 3294   2.722   7.422   1.631 -0.7358  0.4178 -0.0119
    8MOL   C201 3295   2.870   7.388   1.664 -0.0984  0.3680 -0.8615
    8MOL   C202 3296   2.944   7.497   1.744  0.3176 -0.1329 -0.0956
    8MOL   C203 3297   3.098   7.473   1.766  0.3135 -0.2208  0.0563
    8MOL   C204 3298   3.127   7.342   1.835 -0.0405  0.2075 -0.1305
    8MOL   C205 3299   3.037   7.228   1.773  0.4975  0.3408 -0.0763
    8MOL   C206 3300   2.885   7.257   1.745  0.8765 -0.2179 -0.0491
    8MOL   C207 3301   2.641   7.464   1.754  0.2699 -0.0366 -0.0164
    8MOL   H208 3302   2.676   7.328   1.601 -0.1196 -0.3262  1.2998
    8MOL   H209 3303   2.928   7.384   1.572 -2.8831 -3.0251 -2.5798
    8MOL   H210 3304   2.911   7.505   1.848  0.5694  0.7462 -0.0801
    8MOL   H211 3305   2.924   7.594   1.697 -0.2873  0.5634  1.5697
    8MOL   H212 3306   3.149   7.473   1.670  0.1723 -1.8366 -0.0297
    8MOL   H213 3307   3.139   7.557   1.823 -1.8369  2.5915 -2.3598
    8MOL   H214 3308   3.232   7.318   1.817  0.3146  1.8299 -0.2918
    8MOL   H215 3309   3.116   7.331   1.943 -2.0086  0.2138 -0.3241
    8MOL   H216 3310   3.076   7.204   1.674  1.9340  0.2941  0.4956
    8MOL   H217 3311   3.054   7.137   1.831  0.2370 -0.5885 -1.4465
    8MOL   H218 3312   2.841   7.182   1.679  0.2336  1.3585 -1.4690
    8MOL   H219 3313   2.830   7.263   1.839 -0.7872 -0.0071 -1.0175
    8MOL   H220 3314   2.673   7.425   1.851 -0.1489  1.8409  0.9070
    8MOL   H221 3315   2.652   7.571   1.768  3.4348 -0.0657 -1.8555
    8MOL   C222 3316   2.488   7.430   1.744 -0.1358  0.1651  0.2458
    8MOL   C223 3317   2.460   7.272   1.758 -0.2177  0.0867 -0.0703
    8MOL   C224 3318   2.325   7.245   1.702  0.8806  0.3512  0.6701
    8MOL   C225 3319   2.291   7.097   1.701  0.4456  0.3714 -0.3150
    8MOL   C226 3320   2.284   7.044   1.847  0.8664  0.2436  0.1454
    8MOL   C227 3321   2.426   7.064   1.907 -0.3833  0.3666  0.3938
    8MOL   C228 3322   2.465   7.213   1.900  0.5396 -0.2783  0.5216
    8MOL   C229 3323   2.412   7.529   1.840 -0.3019  0.0927  0.4503
    8MOL   H230 3324   2.461   7.452   1.641  0.9505  0.6629  0.0634
    8MOL   H231 3325   2.533   7.215   1.702 -0.9223  0.4131 -1.3397
    8MOL   H232 3326   2.245   7.282   1.767 -1.8756 -0.4870 -2.1174
    8MOL   H233 3327   2.311   7.288   1.603  0.9928  0.4462  0.6952
    8MOL   H234 3328   2.344   7.038   1.626 -2.5738  1.0640 -3.1145
    8MOL   H235 3329   2.188   7.094   1.665  1.1427 -0.5655 -2.3152
    8MOL   H236 3330   2.208   7.107   1.894  0.2794 -0.6332  0.3864
    8MOL   H237 3331   2.243   6.944   1.851 -1.2712  1.0641 -1.0020
    8MOL   H238 3332   2.505   7.014   1.851 -0.1862 -1.1857  2.0181
    8MOL   H239 3333   2.425   7.019   2.006 -2.0102  0.8303  0.6034
    8MOL   H240 3334   2.400   7.266   1.969  0.2518 -1.7885  1.4351
    8MOL   H241 3335   2.568   7.227   1.933 -0.1704  1.7982  1.9408
    8MOL   H242 3336   2.480   7.555   1.920 -1.0996  0.9963  0.8449
    8MOL   H243 3337   2.335   7.467   1.886 -0.8183  0.3855 -0.0054
    8MOL   C244 3338   2.347   7.657   1.781 -0.4187  0.1687  0.6220
    8MOL   C245 3339   2.449   7.764   1.721  0.1442  0.1808 -0.5514
    8MOL   C246 3340   2.505   0.088   1.824  0.4746 -0.1044  0.4320
    8MOL   C247 3341   2.617   0.163   1.750 -0.4714 -0.0150  0.0136
    8MOL   C248 3342   2.561   0.260   1.638  0.3902 -0.4008  0.3630
    8MOL   C249 3343   2.477   0.174   1.547 -0.4853  0.3223 -0.2098
    8MOL   C250 3344   2.370   0.083   1.615  0.2237 -0.1332 -0.1505
    8MOL   C251 3345   2.247   7.709   1.880  0.0184  0.3895  0.2736
    8MOL   H252 3346   2.289   7.620   1.697 -0.5665  0.7326  0.4748
    8MOL   H253 3347   2.527   7.719   1.661  0.1462  0.3469 -0.6746
    8MOL   H254 3348   2.546   0.036   1.911 -0.1363 -1.4970 -0.0857
    8MOL   H255 3349   2.428   0.155   1.863 -0.0051 -0.0147 -0.6608
    8MOL   H256 3350   2.671   0.229   1.818 -1.1241 -2.3161  2.9267
    8MOL   H257 3351   2.689   0.093   1.708  1.1326  2.7162 -1.9242
    8MOL   H258 3352   2.499   0.336   1.686 -0.1570 -0.8775  0.4229
    8MOL   H259 3353   2.640   0.319   1.591 -0.3546  0.0955 -0.2694
    8MOL   H260 3354   2.544   0.109   1.490  0.6183  1.7101 -0.5455
    8MOL   H261 3355   2.427   0.245   1.481 -0.7547 -0.6851 -1.1061
    8MOL   H262 3356   2.302   0.142   1.677  0.3606 -2.1039  1.9223
    8MOL   H263 3357   2.311   0.027   1.543  1.8201 -1.6730 -0.2915
    8MOL   H264 3358   2.214   0.028   1.829 -0.9941 -1.5385 -2.6696
    8MOL   H265 3359   2.285   7.742   1.976 -0.9161 -0.8012  1.0606
    8MOL   C266 3360   2.115   7.642   1.903 -0.6029 -0.0100  0.0366
    8MOL   C267 3361   2.093   7.586   2.052  0.0786  0.7909 -0.2814
    8MOL   C268 3362   1.961   7.509   2.071  0.1391  0.6319 -0.5827
    8MOL   C269 3363   1.969   7.429   2.201 -0.1719  0.0295  0.0056
    8MOL   C270 3364   1.988   7.524   2.323 -0.2871 -0.1045  0.3792
    8MOL   C271 3365   2.113   7.618   2.302  0.5179  0.4961 -0.2786
    8MOL   C272 3366   2.107   7.688   2.167 -0.1867 -0.3988  0.1674
    8MOL   C273 3367   1.987   7.728   1.862  0.7195  0.2243 -0.1095
    8MOL   H274 3368   2.117   7.555   1.836  1.9373  0.2549 -0.2479
    8MOL   H275 3369   2.177   7.517   2.066 -1.8158 -1.9091 -1.8292
    8MOL   H276 3370   1.874   7.574   2.068 -1.3286 -1.3165 -1.1864
    8MOL   H277 3371   1.946   7.432   1.996 -1.0875 -2.1372  2.4385
    8MOL   H278 3372   2.061   7.372   2.188  0.5984  1.0979  0.6597
    8MOL   H279 3373   1.880   7.370   2.222 -0.2245 -0.3870 -1.3431
    8MOL   H280 3374   1.909   7.595   2.345 -2.1513 -2.1572  0.4364
    8MOL   H281 3375   2.012   7.462   2.410  0.6394 -1.0187 -0.4997
    8MOL   H282 3376   2.205   7.562   2.314  0.7929  0.6511 -1.5546
    8MOL   H283 3377   2.115   7.690   2.383 -3.6895  0.5535 -0.1198
    8MOL   H284 3378   2.186   7.761   2.146  0.1284 -0.9919 -0.7595
    8MOL   H285 3379   2.014   7.745   2.168  0.0517  0.1622 -3.0750
    8MOL   H286 3380   1.993   0.051   1.915 -1.4837  0.2963  0.0379
    8MOL   H287 3381   1.903   7.670   1.901  0.7229 -0.8064 -1.5884
    8MOL   C288 3382   1.976   7.754   1.706  0.3776 -0.2030 -0.6828
    8MOL   C289 3383   1.891   0.111   1.672  0.4664 -0.1319 -0.1446
    8MOL   C290 3384   1.770   0.123   1.765  0.2591 -0.8357  0.0612
    8MOL   C291 3385   1.680   0.242   1.728 -0.1594  0.4240  0.5969
    8MOL   C292 3386   1.761   0.369   1.739 -0.7367 -0.4553 -0.1870
    8MOL   C293 3387   1.894   0.363   1.664 -0.0204  0.4810 -1.2245
    8MOL   C294 3388   1.971   0.237   1.696  0.6305 -0.5780 -0.3546
    8MOL   C295 3389   1.917   7.630   1.644  0.2492  0.0174 -0.4363
    8MOL   H296 3390   2.075   0.008   1.669 -0.4740  0.7784 -2.3355
    8MOL   H297 3391   1.858   0.118   1.568  1.5144 -0.2673 -0.4888
    8MOL   H298 3392   1.722   0.025   1.765 -1.3695 -0.0550  0.5405
    8MOL   H299 3393   1.803   0.146   1.866 -0.6992 -1.9274  0.6424
    8MOL   H300 3394   1.646   0.216   1.628 -0.7054 -0.0271  0.8923
    8MOL   H301 3395   1.592   0.256   1.790 -0.3948 -0.1569  0.3989
    8MOL   H302 3396   1.778   0.393   1.844  1.9652  1.9237 -1.1080
    8MOL   H303 3397   1.713   0.450   1.684  0.6462 -1.2265 -2.6017
    8MOL   H304 3398   1.958   0.450   1.684  1.0146 -0.8522  1.5716
    8MOL   H305 3399   1.872   0.366   1.558  0.4696 -0.0432 -1.3406
    8MOL   H306 3400   2.001   0.239   1.801 -0.8802  0.9651  0.0787
    8MOL   H307 3401   2.061   0.228   1.635 -0.8681 -0.3143 -2.6569
    8MOL   H308 3402   1.977   7.545   1.677 -0.1763  0.1753  0.7617
    8MOL   H309 3403   1.817   7.618   1.684 -0.0687  0.9402 -0.9535
    8MOL   C310 3404   1.916   7.618   1.485  0.2026  0.0126  0.1847
    8MOL   C311 3405   2.053   7.602   1.424 -0.0375  0.0726 -0.1271
    8MOL   C312 3406   2.134   7.475   1.467  0.7929  0.3143 -0.1058
    8MOL   C313 3407   2.272   7.465   1.397  0.2669  0.3013  0.1055
    8MOL   C314 3408   2.254   7.477   1.245 -0.2460 -0.0341 -0.1922
    8MOL   C315 3409   2.179   7.596   1.192 -0.0275  0.1633  1.1353
    8MOL   C316 3410   2.048   7.621   1.268 -0.2510  0.5800 -0.3603
    8MOL   C317 3411   1.816   7.507   1.430 -0.1780 -0.0810 -0.1224
    8MOL   H318 3412   1.872   7.710   1.446  0.1878 -0.3430 -0.6527
    8MOL   H319 3413   2.121   7.682   1.453  0.1046 -0.6512  1.5620
    8MOL   H320 3414   2.158   7.473   1.573 -0.2700 -1.3922  0.1224
    8MOL   H321 3415   2.067   7.396   1.432 -1.6140  2.9730 -1.6893
    8MOL   H322 3416   2.327   7.376   1.427 -1.2434 -0.6465  0.1023
    8MOL   H323 3417   2.331   7.551   1.428  2.8105 -0.5147 -2.2377
    8MOL   H324 3418   2.350   7.456   1.199  0.0278 -0.2256  0.4609
    8MOL   H325 3419   2.202   7.387   1.212  1.1238 -0.4003 -1.4084
    8MOL   H326 3420   2.240   7.685   1.208  0.9086 -0.4483  1.0485
    8MOL   H327 3421   2.160   7.586   1.085  1.7489 -0.4529  0.8517
    8MOL   H328 3422   1.973   7.551   1.231 -0.1073  0.4191 -0.3438
    8MOL   H329 3423   2.015   7.724   1.250  0.3619  1.3853  2.9221
    8MOL   H330 3424   1.795   7.429   1.503  4.7584 -1.7081 -0.2833
    8MOL   H331 3425   1.870   7.437   1.366  0.4170 -0.3852  0.6990
    8MOL   C332 3426   1.679   7.549   1.370  0.0365 -0.1508 -0.0384
    8MOL   C333 3427   1.596   7.602   1.490  0.0328 -0.4493  0.3407
    8MOL   C334 3428   1.540   7.485   1.578 -0.0014 -0.8937  0.2184
    8MOL   C335 3429   1.472   7.538   1.706  0.3232 -0.0248  0.1537
    8MOL   C336 3430   1.354   7.619   1.658 -0.3141  0.2995 -0.0734
    8MOL   C337 3431   1.396   7.731   1.568  0.1482  0.1744  0.0248
    8MOL   C338 3432   1.475   7.679   1.448 -0.0149 -0.6461 -0.2339
    8MOL   C339 3433   1.610   7.443   1.272 -0.5556 -0.4247 -0.7945
    8MOL   H340 3434   1.716   7.629   1.306  0.0864 -1.0813 -1.1872
    8MOL   H341 3435   1.662   7.676   1.535  0.2800  0.7810 -1.9418
    8MOL   H342 3436   1.468   7.432   1.516  0.2036  0.8277 -1.5417
    8MOL   H343 3437   1.618   7.412   1.597 -0.3886 -1.5765 -0.7955
    8MOL   H344 3438   1.439   7.455   1.769 -1.8738  1.1251  0.5665
    8MOL   H345 3439   1.535   7.603   1.766  0.0002 -0.7491  1.3003
    8MOL   H346 3440   1.291   7.543   1.613  0.2068  0.9679 -1.9630
    8MOL   H347 3441   1.293   7.655   1.741 -0.1092 -0.3431  0.3646
    8MOL   H348 3442   1.444   0.035   1.630 -0.0816  0.5633 -0.2797
    8MOL   H349 3443   1.304   0.008   1.539  0.1112 -0.4074 -0.8483
    8MOL   H350 3444   1.495   7.760   1.378  0.6659 -1.3199 -0.8251
    8MOL   H351 3445   1.419   7.609   1.386  0.2553 -0.7394 -0.3703
    8MOL   H352 3446   1.520   7.480   1.223 -0.3339 -2.7054 -3.0269
    8MOL   H353 3447   1.584   7.358   1.335  3.6184 -0.9742  0.2924
    8MOL   C354 3448   1.701   7.402   1.146 -0.3048 -0.4153  0.3402
    8MOL   C355 3449   1.736   7.515   1.051  0.0225  0.9807  0.4133
    8MOL   C356 3450   1.626   7.601   0.989 -0.1747  0.0457 -0.0061
    8MOL   C357 3451   1.690   7.720   0.911  0.0879  0.3382  0.1749
    8MOL   C358 3452   1.776   7.675   0.802 -0.3715 -0.8977 -0.4998
    8MOL   C359 3453   1.896   7.603   0.862  0.4191  0.3197  0.1151
    8MOL   C360 3454   1.839   7.478   0.941  0.1268  0.1174 -0.5649
    8MOL   C361 3455   1.629   7.276   1.082  0.1228 -0.1183  0.3007
    8MOL   H362 3456   1.788   7.366   1.200  0.9650  2.2674  0.1293
    8MOL   H363 3457   1.789   7.590   1.109 -1.9124  1.2965  1.8156
    8MOL   H364 3458   1.566   7.653   1.063 -0.0811  1.2154 -0.7413
    8MOL   H365 3459   1.558   7.536   0.932  0.1363 -1.3549  1.1774
    8MOL   H366 3460   1.617   0.012   0.861  1.4280 -0.1646 -2.5160
    8MOL   H367 3461   1.741   0.008   0.986 -0.4775 -0.3123  1.0949
    8MOL   H368 3462   1.732   7.617   0.720  2.5859 -1.7609 -1.5714
    8MOL   H369 3463   1.822   7.760   0.752  2.3977 -1.7268  0.4983
    8MOL   H370 3464   1.965   7.568   0.785 -0.5035  0.0873 -0.6195
    8MOL   H371 3465   1.957   7.659   0.933 -1.2193  2.5603 -0.1906
    8MOL   H372 3466   1.924   7.424   0.983 -0.2358  0.5438  0.7235
    8MOL   H373 3467   1.787   7.418   0.866 -0.7278  0.4180 -0.2165
    8MOL   H374 3468   1.544   7.307   1.022  0.4431  1.3216  0.5789
    8MOL   H375 3469   1.593   7.213   1.163  0.7562  1.4272  1.8109
    8MOL   C376 3470   1.712   7.179   0.993  0.3920  0.1168 -0.3517
    8MOL   C377 3471   1.753   7.043   1.061  0.1334 -0.0648  0.0844
    8MOL   C378 3472   1.648   6.926   1.075  0.3693 -0.1990  0.6178
    8MOL   C379 3473   1.705   6.794   1.133 -0.7014 -0.5735  0.3561
    8MOL   C380 3474   1.784   6.821   1.263 -0.5025  0.8132  0.6739
    8MOL   C381 3475   1.893   6.923   1.240  0.6291 -0.3574  0.3490
    8MOL   C382 3476   1.829   7.055   1.199 -0.2532 -0.0997  0.3622
    8MOL   C383 3477   1.651   7.164   0.852 -0.0271 -0.4909 -0.3546
    8MOL   H384 3478   1.810   7.221   0.972  1.1413 -1.0674  0.7460
    8MOL   H385 3479   1.832   7.004   0.997  1.9519  0.8921  1.6870
    8MOL   H386 3480   1.563   6.955   1.136 -1.1830  1.6824 -2.3776
    8MOL   H387 3481   1.610   6.894   0.978  2.4892 -1.5989  0.2007
    8MOL   H388 3482   1.760   6.722   1.072  0.0802 -0.4889  0.9504
    8MOL   H389 3483   1.617   6.737   1.162 -0.4579  0.4796  3.2720
    8MOL   H390 3484   1.718   6.855   1.343 -0.6094  0.1284  0.8809
    8MOL   H391 3485   1.834   6.733   1.304 -0.1833 -0.9965 -3.3255
    8MOL   H392 3486   1.956   6.927   1.329 -1.5056 -3.8429  2.1586
    8MOL   H393 3487   1.962   6.895   1.161 -0.0450 -0.3589 -0.2412
    8MOL   H394 3488   1.772   7.091   1.285 -0.5269 -0.4706  0.3347
    8MOL   H395 3489   1.907   7.131   1.201  0.4221 -0.8079  1.7780
    8MOL   H396 3490   1.615   7.261   0.818 -0.3754 -0.4640  0.0856
    8MOL   H397 3491   1.558   7.108   0.858 -0.0378 -0.4284  0.0533
    8MOL   C398 3492   1.731   7.095   0.741  0.4263  0.5536  1.1282
    8MOL   C399 3493   1.640   7.090   0.619 -0.0553  0.1200 -0.2857
    8MOL   C400 3494   1.510   6.996   0.632  0.2040 -0.6935  0.3423
    8MOL   C401 3495   1.460   6.964   0.490 -0.2167 -0.3565  0.3791
    8MOL   C402 3496   1.428   7.088   0.414  0.1793 -0.0641 -0.0155
    8MOL   C403 3497   1.553   7.189   0.410 -0.2190 -0.0733 -0.3227
    8MOL   C404 3498   1.603   7.220   0.552  0.2599 -0.6018  0.8405
    8MOL   C405 3499   1.865   7.168   0.700 -0.6521 -0.1321 -0.0571
    8MOL   H406 3500   1.731   6.992   0.776 -2.1373 -0.3508 -1.3620
    8MOL   H407 3501   1.710   7.040   0.552  1.1257 -0.0280  1.0464
    8MOL   H408 3502   1.435   7.036   0.701  0.7050 -0.6946  0.8887
    8MOL   H409 3503   1.545   6.905   0.680  0.7419 -0.2736  0.7445
    8MOL   H410 3504   1.380   6.890   0.487 -0.0861 -0.5183  0.8055
    8MOL   H411 3505   1.548   6.910   0.456 -0.1361 -0.7469  1.2080
    8MOL   H412 3506   1.346   7.139   0.465  0.6386  0.0558  0.6057
    8MOL   H413 3507   1.392   7.055   0.316 -1.5437 -1.5495  1.0960
    8MOL   H414 3508   1.639   7.164   0.348  0.1303  1.3887 -0.4498
    8MOL   H415 3509   1.528   7.283   0.362 -0.0227 -0.5312 -1.3389
    8MOL   H416 3510   1.679   7.298   0.552 -2.5124  2.2024  0.4024
    8MOL   H417 3511   1.521   7.271   0.601  0.3475  0.6983 -0.3443
    8MOL   H418 3512   1.877   7.157   0.592  3.4308  0.1675  0.2776
    8MOL   H419 3513   1.851   7.275   0.716 -0.6285 -0.1916  0.3603
    8MOL   C420 3514   1.992   7.113   0.775 -0.2229  0.2782 -0.1388
    8MOL   C421 3515   2.121   7.190   0.735  0.4844 -0.4916 -0.6532
    8MOL   C422 3516   2.250   7.132   0.795  0.3375 -0.0139  0.9626
    8MOL   C423 3517   2.387   7.209   0.763  0.2975 -0.3195  0.6402
    8MOL   C424 3518   2.376   7.356   0.791  0.5954 -0.1114  0.2013
    8MOL   C425 3519   2.248   7.413   0.724 -1.1720 -0.2606  0.2333
    8MOL   C426 3520   2.118   7.341   0.769  0.5641 -0.0984  0.3878
    8MOL   C427 3521   1.998   6.960   0.745  0.6076 -0.0876  0.1748
    8MOL   H428 3522   1.979   7.128   0.883  0.8540  0.7584 -0.0666
    8MOL   H429 3523   2.130   7.189   0.626  3.4746 -1.7641 -0.4762
    8MOL   H430 3524   2.242   7.118   0.903 -1.5169  0.3962  0.8984
    8MOL   H431 3525   2.265   7.030   0.762 -0.4498  0.0886  0.2769
    8MOL   H432 3526   2.465   7.159   0.820 -0.8433 -1.3873  1.3188
    8MOL   H433 3527   2.419   7.194   0.660  0.2922 -1.4294  0.7945
    8MOL   H434 3528   2.466   7.412   0.764 -0.9520  2.1364 -0.4637
    8MOL   H435 3529   2.372   7.357   0.900  1.2363 -2.2129  0.2705
    8MOL   H436 3530   2.259   7.402   0.616  1.7248 -2.1605  0.6404
    8MOL   H437 3531   2.226   7.517   0.748  0.6735 -0.3384  2.4465
    8MOL   H438 3532   2.117   7.339   0.878  1.0971  2.8901  0.4727
    8MOL   H439 3533   2.023   7.377   0.729 -0.2318 -0.3095  2.0247
    8MOL   H440 3534   1.977   6.938   0.640  1.7868 -1.1510  0.1461
    8MOL   H441 3535   2.086   6.902   0.773 -0.7534 -1.7254  1.1628
    8MOL   H442 3536   1.922   6.916   0.809  1.5924 -1.9432  0.1183
    9MOL     C1 3537   3.190   0.251   3.520 -0.1790 -0.1027 -0.8169
    9MOL     C2 3538   3.294   0.363   3.498  0.1766  0.1210 -0.3729
    9MOL     C3 3539   3.411   0.349   3.593 -0.1746 -0.3280 -0.3937
    9MOL     C4 3540   3.524   0.449   3.564 -0.5772  0.1104  0.5078
    9MOL     C5 3541   3.465   0.598   3.581 -0.1154  0.2780 -0.1403
    9MOL     C6 3542   3.338   0.615   3.492  0.3399 -0.0704  0.0217
    9MOL     C7 3543   3.238   0.503   3.488  1.0838  0.2744 -0.7246
    9MOL     C8 3544   3.233   0.115   3.465 -0.5603  0.3737  0.6611
    9MOL     H9 3545   3.164   0.245   3.625  0.4021  0.2182 -0.6577
    9MOL    H10 3546   3.345   0.351   3.403  3.1488  2.2340  0.8736
    9MOL    H11 3547   3.381   0.362   3.697  1.1309 -1.0650  0.0785
    9MOL    H12 3548   3.445   0.245   3.588  0.5910 -0.2039  1.8067
    9MOL    H13 3549   3.575   0.426   3.471 -0.2336 -0.5261  0.8523
    9MOL    H14 3550   3.612   0.441   3.628 -0.4846  1.0546  0.4982
    9MOL    H15 3551   3.541   0.672   3.558 -1.5025  2.0411  0.8499
    9MOL    H16 3552   3.446   0.610   3.688  0.7047  3.3068 -0.3029
    9MOL    H17 3553   3.281   0.704   3.520  1.7077 -0.2366  3.5518
    9MOL    H18 3554   3.373   0.633   3.390  2.7288 -0.0659  0.8283
    9MOL    H19 3555   3.163   0.523   3.412 -0.2843 -1.7333  0.0506
    9MOL    H20 3556   3.173   0.504   3.575  1.2194 -0.0870 -0.6168
    9MOL    H21 3557   3.321   0.078   3.516 -2.1294 -3.3180  0.8645
    9MOL    H22 3558   3.268   0.129   3.363  0.3477 -0.7913  0.8045
    9MOL    H23 3559   3.102   0.271   3.458  0.4281  0.2346 -1.5836
    9MOL    C24 3560   3.127   0.010   3.459  0.1696 -0.3952  0.0920
    9MOL    C25 3561   3.182   7.651   3.390  0.2543  0.6898 -0.5094
    9MOL    C26 3562   3.065   7.560   3.354 -0.4766  0.4559 -0.4665
    9MOL    C27 3563   3.114   7.445   3.272  0.1375  0.4620 -0.1594
    9MOL    C28 3564   3.215   7.365   3.347  0.3555  0.4495  0.1948
    9MOL    C29 3565   3.335   7.450   3.374 -0.2082 -0.2136 -0.1690
    9MOL    C30 3566   3.294   7.576   3.460 -0.8760 -0.2202  0.2195
    9MOL    C31 3567   3.071   7.755   3.601  0.4793 -0.1107 -0.3312
    9MOL    H32 3568   3.042   0.053   3.406 -2.5058 -3.4972  1.6850
    9MOL    H33 3569   3.231   7.678   3.296 -2.2931  2.7317 -1.2888
    9MOL    H34 3570   2.993   7.627   3.307 -0.5839  1.6920  1.3943
    9MOL    H35 3571   3.015   7.518   3.441 -1.3030  0.9381 -0.7021
    9MOL    H36 3572   3.034   7.385   3.229  0.9200  0.9665 -2.3962
    9MOL    H37 3573   3.160   7.481   3.180 -0.6653  1.2708 -0.2450
    9MOL    H38 3574   3.238   7.269   3.299 -0.6644  0.5755 -0.5428
    9MOL    H39 3575   3.172   7.331   3.441 -1.9294 -1.4307 -1.4861
    9MOL    H40 3576   3.408   7.392   3.430 -0.1157 -0.2144 -0.2899
    9MOL    H41 3577   3.393   7.480   3.286 -1.4253  2.0195 -0.2459
    9MOL    H42 3578   3.256   7.536   3.554 -1.8787  0.6875  0.2105
    9MOL    H43 3579   3.384   7.630   3.488 -1.0707  1.1838 -1.7211
    9MOL    H44 3580   3.141   0.003   3.682  0.2980 -3.2015  0.6551
    9MOL    H45 3581   3.065   7.647   3.617 -2.8752  0.1882  0.7311
    9MOL    C46 3582   2.932   0.044   3.640  0.2466  0.4863 -0.1149
    9MOL    C47 3583   2.903   0.033   3.789  0.3019 -0.6711  0.5717
    9MOL    C48 3584   2.870   7.664   3.849  0.4430  0.6845  0.4163
    9MOL    C49 3585   2.846   7.672   3.996  0.0744  0.0786 -0.2518
    9MOL    C50 3586   2.726   7.758   4.035 -0.6130  0.4794 -0.1412
    9MOL    C51 3587   2.750   0.125   3.977 -0.3897  0.3355 -0.3195
    9MOL    C52 3588   2.777   0.118   3.819  0.1296  0.4620 -0.6156
    9MOL    C53 3589   2.824   7.768   3.549  0.5256 -0.1893  0.4605
    9MOL    H54 3590   2.945   0.151   3.623 -0.7924  0.7284  0.5661
    9MOL    H55 3591   2.984   0.089   3.835 -0.2154  0.0205  0.6431
    9MOL    H56 3592   2.783   7.620   3.800  1.2764 -1.1424  0.5261
    9MOL    H57 3593   2.947   7.592   3.821 -0.3200  0.1274 -0.3109
    9MOL    H58 3594   2.935   7.711   4.047  1.5532 -1.7314 -1.3983
    9MOL    H59 3595   2.833   7.573   4.041 -1.7161 -0.1016 -1.1151
    9MOL    H60 3596   2.634   7.707   4.006 -1.2992  0.1718  2.4766
    9MOL    H61 3597   2.715   7.755   4.144 -1.3893 -0.8724 -0.2374
    9MOL    H62 3598   2.830   0.177   4.028 -0.0156 -1.3980  0.9136
    9MOL    H63 3599   2.657   0.179   3.997 -0.4897 -0.6248  1.9830
    9MOL    H64 3600   2.686   0.071   3.782  0.5595  0.9114 -2.2551
    9MOL    H65 3601   2.773   0.216   3.770  0.4782  0.4515 -0.6621
    9MOL    H66 3602   2.768   7.692   3.604  0.5766 -0.2915  0.3717
    9MOL    H67 3603   2.865   7.709   3.468  0.6308 -0.6056  0.8152
    9MOL    C68 3604   2.736   0.104   3.484  0.2203  0.1490 -0.3906
    9MOL    C69 3605   2.802   0.206   3.383 -0.5483 -0.0787 -0.0185
    9MOL    C70 3606   2.835   0.154   3.249  0.8986 -0.5597  0.5880
    9MOL    C71 3607   2.887   0.269   3.151  1.0151  0.1082  0.6936
    9MOL    C72 3608   2.787   0.394   3.156 -0.8371 -0.1377 -0.3019
    9MOL    C73 3609   2.783   0.452   3.299 -0.4720  1.0608 -0.4792
    9MOL    C74 3610   2.723   0.341   3.385 -0.3228  0.1573  0.7667
    9MOL    C75 3611   2.613   0.033   3.421 -0.3458 -0.3087 -0.4191
    9MOL    H76 3612   2.697   0.174   3.559 -1.3256 -1.4697  0.3405
    9MOL    H77 3613   2.889   0.253   3.431 -1.8780  2.0316  0.4072
    9MOL    H78 3614   2.749   0.111   3.198 -0.4875  0.5863  1.8992
    9MOL    H79 3615   2.917   0.083   3.245  2.1282  0.8742  0.0422
    9MOL    H80 3616   2.989   0.290   3.184  1.2527 -1.0801  0.7273
    9MOL    H81 3617   2.888   0.234   3.048  1.2437  0.3830  0.6031
    9MOL    H82 3618   2.686   0.361   3.135 -0.9937  0.4207 -0.4365
    9MOL    H83 3619   2.817   0.471   3.086 -1.5208  0.7426  0.3663
    9MOL    H84 3620   2.719   0.540   3.308  0.2068  1.3927  1.4209
    9MOL    H85 3621   2.881   0.487   3.333 -0.2547  0.1234 -0.1339
    9MOL    H86 3622   2.620   0.327   3.354  0.3901 -1.0389 -1.1997
    9MOL    H87 3623   2.715   0.373   3.489 -0.4296 -0.1774  0.8615
    9MOL    H88 3624   2.564   0.094   3.345 -1.0724 -0.3309  0.0205
    9MOL    H89 3625   2.646   7.719   3.363  0.0197  0.0671 -0.7749
    9MOL    C90 3626   2.508   7.757   3.521 -0.1520 -0.6567  0.3492
    9MOL    C91 3627   2.420   0.110   3.561  0.2493  0.3488 -0.3452
    9MOL    C92 3628   2.304   0.134   3.466 -0.1953  0.1975  0.0899
    9MOL    C93 3629   2.206   0.241   3.507 -0.7792  0.6968 -0.0091
    9MOL    C94 3630   2.164   0.232   3.655 -0.6923  0.0314 -0.2565
    9MOL    C95 3631   2.279   0.216   3.755 -0.1439  0.2922  0.3611
    9MOL    C96 3632   2.367   0.097   3.706 -0.2384  0.0438 -0.9550
    9MOL    C97 3633   2.420   7.633   3.491  0.3486 -0.2612 -0.3686
    9MOL    H98 3634   2.555   7.745   3.618  0.8981  1.3275  0.1053
    9MOL    H99 3635   2.483   0.199   3.564  2.1536 -1.0094  1.0085
    9MOL   H100 3636   2.246   0.042   3.452  0.2867 -0.2283  0.8338
    9MOL   H101 3637   2.332   0.175   3.369 -0.4231  0.2953  0.0639
    9MOL   H102 3638   2.123   0.236   3.437 -0.2992  0.4001 -0.5627
    9MOL   H103 3639   2.257   0.335   3.487 -1.2472  0.3686 -2.9406
    9MOL   H104 3640   2.099   0.146   3.662  0.2873 -0.8065 -1.2387
    9MOL   H105 3641   2.102   0.317   3.684 -1.1533  0.2420 -1.8367
    9MOL   H106 3642   2.342   0.304   3.766  0.1959  0.0430  0.4310
    9MOL   H107 3643   2.236   0.195   3.853  1.4082  1.4207  1.3018
    9MOL   H108 3644   2.450   0.069   3.771 -1.0766  0.1032  0.1666
    9MOL   H109 3645   2.299   0.012   3.717 -2.1836  1.5984 -0.7460
    9MOL   H110 3646   2.319   7.642   3.532  0.3652 -0.0916 -0.3655
    9MOL   H111 3647   2.399   7.626   3.384 -0.1127  0.4806 -0.3316
    9MOL   C112 3648   2.468   7.492   3.538  0.6211  0.3398  0.3933
    9MOL   C113 3649   2.603   7.447   3.484 -0.7428  1.2548 -0.0873
    9MOL   C114 3650   2.606   7.419   3.329  0.1715  0.6097  0.0630
    9MOL   C115 3651   2.747   7.369   3.293 -0.5007  0.0779 -0.1406
    9MOL   C116 3652   2.796   7.250   3.373 -0.0922  0.8010  0.1591
    9MOL   C117 3653   2.785   7.269   3.525 -0.0213 -0.3312 -0.1708
    9MOL   C118 3654   2.636   7.309   3.560 -0.0284 -0.6220 -0.0787
    9MOL   C119 3655   2.345   7.391   3.503  0.1752 -0.0990 -0.2522
    9MOL   H120 3656   2.485   7.502   3.645  1.5503  1.8141  0.1136
    9MOL   H121 3657   2.683   7.516   3.507  0.0283  0.1833  0.4655
    9MOL   H122 3658   2.580   7.510   3.275 -0.9162 -0.6245 -1.5744
    9MOL   H123 3659   2.527   7.348   3.302 -0.3773  0.7632  1.2508
    9MOL   H124 3660   2.735   7.340   3.188 -0.5533  0.4319 -0.2336
    9MOL   H125 3661   2.816   7.452   3.301 -0.5616  0.1967 -0.7964
    9MOL   H126 3662   2.756   7.158   3.331 -2.5918  1.0276  1.9383
    9MOL   H127 3663   2.901   7.239   3.346 -0.2689  2.2202 -1.1586
    9MOL   H128 3664   2.818   7.180   3.577  0.1973 -0.1218  0.0506
    9MOL   H129 3665   2.837   7.348   3.579  0.6587 -2.8616  3.0117
    9MOL   H130 3666   2.624   7.330   3.666  0.3380 -2.4857  0.3401
    9MOL   H131 3667   2.564   7.228   3.547 -1.7608  0.7502  0.7740
    9MOL   H132 3668   2.361   7.285   3.485 -2.1446 -1.0553  2.9272
    9MOL   H133 3669   2.311   7.417   3.403  0.2986  1.7701  0.1794
    9MOL   C134 3670   2.228   7.381   3.604  0.4006 -0.2739  0.1620
    9MOL   C135 3671   2.267   7.281   3.715  0.0146 -0.2096  0.9100
    9MOL   C136 3672   2.259   7.133   3.669 -0.2371  0.4571 -0.5139
    9MOL   C137 3673   2.323   7.043   3.781  0.7069 -0.6512  0.1033
    9MOL   C138 3674   2.261   7.062   3.922  0.0382 -0.0142  0.1750
    9MOL   C139 3675   2.257   7.211   3.955 -0.2835  1.1336 -0.2529
    9MOL   C140 3676   2.201   7.306   3.846 -0.0457  0.1816 -0.2035
    9MOL   C141 3677   2.092   7.360   3.535 -0.0119 -0.4610  0.5615
    9MOL   H142 3678   2.225   7.473   3.662  0.1644 -0.8444  1.0620
    9MOL   H143 3679   2.369   7.307   3.743  0.0766  1.9225 -1.1216
    9MOL   H144 3680   2.154   7.102   3.663 -0.6919  1.7565  0.6327
    9MOL   H145 3681   2.312   7.122   3.574 -0.1904  3.2012 -0.8447
    9MOL   H146 3682   2.431   7.057   3.792  0.7322 -2.6199  2.9643
    9MOL   H147 3683   2.317   6.936   3.764  2.7661 -0.9366  0.9518
    9MOL   H148 3684   2.160   7.023   3.919 -0.0116  0.1139  0.2054
    9MOL   H149 3685   2.327   7.014   3.996  1.5393 -0.3003 -1.3156
    9MOL   H150 3686   2.357   7.249   3.979 -0.3929  2.1803 -1.3980
    9MOL   H151 3687   2.192   7.219   4.042  1.5028  0.7155  1.1472
    9MOL   H152 3688   2.093   7.298   3.840  0.2056 -2.7516 -1.6643
    9MOL   H153 3689   2.220   7.402   3.893  0.3908  0.7282 -1.4686
    9MOL   H154 3690   2.021   7.326   3.611 -0.9316  0.6647  0.2201
    9MOL   H155 3691   2.091   7.278   3.463 -0.8845 -0.0514  0.1095
    9MOL   C156 3692   2.036   7.484   3.460  0.2953  0.1788 -0.0433
    9MOL   C157 3693   1.948   7.573   3.553  0.2620 -0.3204 -0.4731
    9MOL   C158 3694   1.918   7.719   3.507  0.2497  0.4681 -1.1264
    9MOL   C159 3695   1.844   0.027   3.621 -0.0085 -0.3077  0.2183
    9MOL   C160 3696   1.715   7.726   3.668 -0.3008  0.2582 -0.2280
    9MOL   C161 3697   1.744   7.582   3.705  0.6831 -0.4885 -0.0357
    9MOL   C162 3698   1.816   7.509   3.589  0.2267  0.2637 -0.1709
    9MOL   C163 3699   1.968   7.453   3.323  0.0933  0.0852 -0.4094
    9MOL   H164 3700   2.113   7.556   3.434  1.7284 -1.9977 -2.0673
    9MOL   H165 3701   2.007   7.585   3.644  1.2524  0.9174 -1.2486
    9MOL   H166 3702   2.011   7.756   3.463  0.3168  2.0564  0.3019
    9MOL   H167 3703   1.845   7.710   3.427  0.2673 -1.0921 -0.9906
    9MOL   H168 3704   1.915   0.035   3.703  0.8431 -0.1960 -0.5253
    9MOL   H169 3705   1.822   0.131   3.596 -0.1778  0.0301  1.7196
    9MOL   H170 3706   1.643   7.717   3.587 -1.0917 -1.1047  0.6165
    9MOL   H171 3707   1.662   0.006   3.748 -0.8095 -1.7105  0.7375
    9MOL   H172 3708   1.644   7.541   3.717  0.0900  1.7387  3.3206
    9MOL   H173 3709   1.787   7.569   3.804  0.9039 -0.8154 -0.1729
    9MOL   H174 3710   1.829   7.406   3.623 -0.1561 -0.0687 -1.0207
    9MOL   H175 3711   1.752   7.501   3.502 -1.0411  0.4499  0.7265
    9MOL   H176 3712   1.916   7.544   3.295 -2.0128 -1.4868 -1.6982
    9MOL   H177 3713   1.897   7.375   3.351 -0.9180  1.3852  0.7257
    9MOL   C178 3714   2.053   7.406   3.213 -0.3605 -0.2844 -0.2272
    9MOL   C179 3715   1.973   7.335   3.099  0.1012 -0.0241 -0.0800
    9MOL   C180 3716   1.886   7.430   3.019  0.0676  0.0046 -0.4297
    9MOL   C181 3717   1.822   7.363   2.896 -0.1458  0.2299  0.4424
    9MOL   C182 3718   1.752   7.225   2.929 -0.3198 -0.1297 -0.1422
    9MOL   C183 3719   1.844   7.135   3.012 -0.2009 -0.1314 -0.0337
    9MOL   C184 3720   1.896   7.209   3.139 -0.2518 -1.0282  0.3058
    9MOL   C185 3721   2.140   7.523   3.168  0.2153  0.5717 -0.3192
    9MOL   H186 3722   2.126   7.333   3.248 -0.8868 -0.1603  1.1241
    9MOL   H187 3723   2.052   7.290   3.038 -1.1787 -3.8818  0.9759
    9MOL   H188 3724   1.810   7.471   3.086 -3.4825 -2.3090 -2.8894
    9MOL   H189 3725   1.943   7.514   2.978 -1.0686 -0.0105 -2.1109
    9MOL   H190 3726   1.893   7.355   2.814 -2.3725  0.8285 -1.6327
    9MOL   H191 3727   1.750   7.431   2.850  0.8934  1.2402  0.2862
    9MOL   H192 3728   1.656   7.254   2.972  0.8945  6.0909 -1.1876
    9MOL   H193 3729   1.722   7.169   2.841  2.2829  0.1304 -1.2393
    9MOL   H194 3730   1.931   7.094   2.960  0.2589 -0.6317  1.1001
    9MOL   H195 3731   1.785   7.051   3.049 -1.2262  1.4414  1.9349
    9MOL   H196 3732   1.810   7.249   3.193  1.6973  1.1894  1.8663
    9MOL   H197 3733   1.957   7.144   3.202  0.1929 -1.0192 -0.1120
    9MOL   H198 3734   2.084   7.613   3.140  0.4061  1.0479  0.8284
    9MOL   H199 3735   2.199   7.554   3.254  1.7239 -0.6063 -0.9076
    9MOL   C200 3736   2.237   7.495   3.053 -0.2478 -0.6406  0.5350
    9MOL   C201 3737   2.288   7.629   2.989  0.2261 -0.3949  0.2675
    9MOL   C202 3738   2.188   7.703   2.899  0.3930 -0.5739  0.6780
    9MOL   C203 3739   2.263   0.045   2.823 -0.0788 -0.0459 -0.5816
    9MOL   C204 3740   2.299   0.155   2.925  0.6966 -0.2511 -0.1632
    9MOL   C205 3741   2.395   0.091   3.028 -0.1181 -0.0829  0.0225
    9MOL   C206 3742   2.338   7.734   3.095 -0.2043 -0.0698  0.3798
    9MOL   C207 3743   2.354   7.400   3.081 -0.6451 -0.1225 -0.7794
    9MOL   H208 3744   2.174   7.445   2.980  0.6448  0.7350 -1.2109
    9MOL   H209 3745   2.373   7.607   2.925  0.7433  0.0478  0.7912
    9MOL   H210 3746   2.102   7.742   2.954  0.9438 -0.6485  1.5937
    9MOL   H211 3747   2.148   7.640   2.819  0.5846  1.2633 -0.9002
    9MOL   H212 3748   2.346   7.770   2.770 -1.5083 -1.0835 -1.9270
    9MOL   H213 3749   2.204   0.076   2.737 -0.7684  0.8099  0.1964
    9MOL   H214 3750   2.359   0.237   2.886 -0.8152 -0.3881 -2.8999
    9MOL   H215 3751   2.211   0.188   2.978  0.9386  0.0662  0.0436
    9MOL   H216 3752   2.483   0.060   2.971 -0.8249 -1.4072 -0.3497
    9MOL   H217 3753   2.423   0.174   3.094 -2.5825  0.8165 -0.0118
    9MOL   H218 3754   2.411   7.691   3.163  1.2881 -1.7715 -2.1772
    9MOL   H219 3755   2.249   7.756   3.154 -1.2165  0.6466 -1.3445
    9MOL   H220 3756   2.449   7.452   3.087  0.3439 -1.6293 -2.6808
    9MOL   H221 3757   2.328   7.367   3.181  2.0391 -1.0577 -0.3683
    9MOL   C222 3758   2.380   7.273   2.985  0.7947 -0.2479  0.6525
    9MOL   C223 3759   2.450   7.310   2.849  0.0610 -0.3846  0.7264
    9MOL   C224 3760   2.575   7.396   2.850 -0.6434  0.3861 -0.2088
    9MOL   C225 3761   2.633   7.431   2.709 -0.4511  0.1621 -0.1106
    9MOL   C226 3762   2.534   7.497   2.613  0.5190 -0.4714 -0.1955
    9MOL   C227 3763   2.412   7.403   2.599  0.2581  0.4069  0.0100
    9MOL   C228 3764   2.346   7.363   2.740  0.3158  0.1239  0.3535
    9MOL   C229 3765   2.454   7.161   3.055  0.0494 -0.6897  0.0312
    9MOL   H230 3766   2.278   7.241   2.963  1.5460 -0.5369 -2.7587
    9MOL   H231 3767   2.505   7.225   2.808  0.9336 -0.9327  2.9591
    9MOL   H232 3768   2.553   7.482   2.913 -0.9774 -2.0842  3.1753
    9MOL   H233 3769   2.651   7.342   2.905 -1.3794 -0.6931 -0.2406
    9MOL   H234 3770   2.662   7.332   2.673  0.9298  0.7342 -0.6043
    9MOL   H235 3771   2.718   7.497   2.722  0.1258 -0.7518  0.8211
    9MOL   H236 3772   2.498   7.591   2.655 -0.3875 -0.4223 -1.0754
    9MOL   H237 3773   2.576   7.512   2.513 -0.1870 -1.3926 -0.6294
    9MOL   H238 3774   2.464   7.331   2.535  0.4779 -0.2841  0.9487
    9MOL   H239 3775   2.330   7.444   2.541 -0.6844  0.4832  1.3782
    9MOL   H240 3776   2.274   7.431   2.786 -0.4959 -1.6628  1.7888
    9MOL   H241 3777   2.274   7.287   2.708 -0.0703  1.4373 -2.0529
    9MOL   H242 3778   2.442   7.169   3.163  1.6238  1.6768  0.0813
    9MOL   H243 3779   2.557   7.191   3.036 -1.0062  2.9574 -0.3053
    9MOL   C244 3780   2.420   7.020   3.013  0.3238 -0.6075 -0.3550
    9MOL   C245 3781   2.300   6.963   3.093  0.3897  0.5922 -0.1220
    9MOL   C246 3782   2.329   6.907   3.229  0.1017  0.2083 -0.2708
    9MOL   C247 3783   2.195   6.867   3.306 -0.5423 -0.4986  0.0631
    9MOL   C248 3784   2.109   6.765   3.225  0.2216  0.5550 -0.2730
    9MOL   C249 3785   2.096   6.809   3.078  0.5122  0.0263 -0.0294
    9MOL   C250 3786   2.227   6.852   3.011 -0.4985  0.1151 -0.2214
    9MOL   C251 3787   2.547   6.930   3.014  0.3611 -0.5546 -0.2840
    9MOL   H252 3788   2.378   7.027   2.912 -2.0065 -2.6748  0.4231
    9MOL   H253 3789   2.222   7.037   3.108  1.0062  1.0311  1.0510
    9MOL   H254 3790   2.395   6.962   3.298  2.3076 -2.6454 -0.0112
    9MOL   H255 3791   2.391   6.818   3.221 -1.6263 -1.1025  0.6817
    9MOL   H256 3792   2.222   6.824   3.402 -1.9062 -1.2886  0.1126
    9MOL   H257 3793   2.145   6.961   3.328  1.1043  0.5027 -0.3899
    9MOL   H258 3794   2.147   6.663   3.237 -2.0170 -0.2357  0.2159
    9MOL   H259 3795   2.007   6.767   3.262  0.3655 -1.3072  0.2934
    9MOL   H260 3796   2.024   6.891   3.075 -1.6764 -1.8607 -0.6337
    9MOL   H261 3797   2.043   6.735   3.018  1.6448  0.1124 -1.1540
    9MOL   H262 3798   2.300   6.776   2.984 -0.8333  0.6110 -2.6530
    9MOL   H263 3799   2.199   6.898   2.916  2.1866 -0.2373 -1.2220
    9MOL   H264 3800   2.521   6.824   3.020 -1.0631 -0.1539  0.6675
    9MOL   H265 3801   2.605   6.950   3.105 -0.8539  2.7661 -0.1701
    9MOL   C266 3802   2.633   6.947   2.885 -0.3447  0.5485 -0.3584
    9MOL   C267 3803   2.757   7.038   2.895 -0.7828 -0.1843  0.6228
    9MOL   C268 3804   2.838   7.064   2.759  0.1592 -0.2842 -0.5744
    9MOL   C269 3805   2.939   7.177   2.768  0.2330  0.2646  0.6903
    9MOL   C270 3806   3.034   7.151   2.890  0.6312 -0.0482 -0.5590
    9MOL   C271 3807   2.962   7.126   3.026 -0.0620 -0.4079 -0.0663
    9MOL   C272 3808   2.855   7.015   3.007  0.6871  0.0911 -0.0873
    9MOL   C273 3809   2.672   6.803   2.831  0.1981  0.2612 -0.0290
    9MOL   H274 3810   2.562   6.982   2.811 -2.9628 -1.3248  1.1884
    9MOL   H275 3811   2.708   7.129   2.929  0.2244  0.3192  0.7395
    9MOL   H276 3812   2.888   6.975   2.723  1.4669  0.6949 -1.2054
    9MOL   H277 3813   2.772   7.091   2.676 -1.6823 -0.4565  0.7796
    9MOL   H278 3814   2.894   7.276   2.763  2.0892  1.1764  1.3825
    9MOL   H279 3815   3.004   7.164   2.681 -0.2799 -0.5003  0.4228
    9MOL   H280 3816   3.115   7.078   2.883 -0.2399 -1.2751  1.6792
    9MOL   H281 3817   3.089   7.245   2.894  2.7651 -1.0657 -3.7867
    9MOL   H282 3818   2.915   7.217   3.064 -1.9296 -0.5362 -2.0214
    9MOL   H283 3819   3.035   7.091   3.100 -1.0110 -2.9573 -0.2971
    9MOL   H284 3820   2.794   7.010   3.098 -0.1827 -3.4826 -0.7858
    9MOL   H285 3821   2.909   6.920   3.006 -0.0403 -0.3114 -1.1568
    9MOL   H286 3822   2.714   6.758   2.921  1.7404 -1.7403 -1.6942
    9MOL   H287 3823   2.756   6.795   2.761 -0.1451  0.1979 -0.4365
    9MOL   C288 3824   2.564   6.712   2.759 -0.9556 -0.6500 -0.8531
    9MOL   C289 3825   2.560   6.561   2.781  0.3480 -0.6314 -0.4087
    9MOL   C290 3826   2.694   6.496   2.747 -0.9113 -0.5673 -0.5357
    9MOL   C291 3827   2.685   6.345   2.765  0.5881  0.1952 -0.0296
    9MOL   C292 3828   2.655   6.319   2.912 -0.2756 -0.1708  0.0901
    9MOL   C293 3829   2.529   6.376   2.964  1.1279  0.0406  0.4957
    9MOL   C294 3830   2.522   6.526   2.926 -0.0933 -0.0296 -0.6797
    9MOL   C295 3831   2.565   6.749   2.604 -0.8603  0.5314 -0.2183
    9MOL   H296 3832   2.468   6.746   2.796 -0.3913 -1.9133  1.9037
    9MOL   H297 3833   2.483   6.510   2.723  0.9971 -1.8010 -0.2540
    9MOL   H298 3834   2.718   6.520   2.643  1.5091 -0.5874  0.0022
    9MOL   H299 3835   2.781   6.535   2.800 -0.8953  0.7625 -1.4866
    9MOL   H300 3836   2.604   6.304   2.704  0.1591  3.1193 -1.5105
    9MOL   H301 3837   2.784   6.308   2.740  1.3469 -0.0775  3.1802
    9MOL   H302 3838   2.740   6.344   2.975 -0.8664  1.8743  0.1158
    9MOL   H303 3839   2.651   6.211   2.924  1.5724 -0.1852  0.8185
    9MOL   H304 3840   2.506   6.366   3.070  0.4025  1.3468  0.4669
    9MOL   H305 3841   2.439   6.336   2.916 -0.6450  1.3467  2.6758
    9MOL   H306 3842   2.585   6.572   3.002  0.0077 -2.0866  0.5101
    9MOL   H307 3843   2.422   6.565   2.946 -0.1169 -0.2933 -0.2679
    9MOL   H308 3844   2.671   6.752   2.578 -0.7643  0.1722  0.1290
    9MOL   H309 3845   2.525   6.668   2.543  1.7436 -1.5589  0.7754
    9MOL   C310 3846   2.503   6.882   2.554  0.2479  0.0696 -0.2623
    9MOL   C311 3847   2.518   6.917   2.402  0.2467 -0.5588 -0.2370
    9MOL   C312 3848   2.527   7.072   2.395  0.5498 -0.6656  0.2998
    9MOL   C313 3849   2.556   7.110   2.249 -0.1266  0.0873  0.7342
    9MOL   C314 3850   2.685   7.050   2.194 -0.1591 -0.2529  0.1104
    9MOL   C315 3851   2.679   6.897   2.209  0.0131 -0.4428 -0.0006
    9MOL   C316 3852   2.648   6.855   2.348 -0.1138  0.3055  0.3475
    9MOL   C317 3853   2.366   6.915   2.608  0.1722  0.4061  0.4747
    9MOL   H318 3854   2.570   6.958   2.595  0.6608  0.9372 -2.4531
    9MOL   H319 3855   2.436   6.882   2.339 -0.4128 -0.4264  0.5335
    9MOL   H320 3856   2.433   7.119   2.426 -0.0249 -1.4630 -0.2182
    9MOL   H321 3857   2.609   7.118   2.450 -0.0585  1.0890 -0.2058
    9MOL   H322 3858   2.561   7.219   2.249 -0.1210  0.1066  2.6733
    9MOL   H323 3859   2.464   7.095   2.192 -1.2261  1.5443  2.0625
    9MOL   H324 3860   2.703   7.080   2.091  0.0888  0.5800  0.3904
    9MOL   H325 3861   2.769   7.084   2.255  1.7077 -1.7775 -1.5750
    9MOL   H326 3862   2.599   6.870   2.140  0.4396  1.2580 -1.2004
    9MOL   H327 3863   2.765   6.838   2.178  0.9220  1.5521 -1.3853
    9MOL   H328 3864   2.733   6.882   2.411  1.0477 -0.5260 -0.8292
    9MOL   H329 3865   2.644   6.746   2.346  0.8772  0.2659  0.2206
    9MOL   H330 3866   2.351   7.022   2.594  1.2226  0.2610 -2.0122
    9MOL   H331 3867   2.349   6.924   2.716  0.5151  0.5107  0.5188
    9MOL   C332 3868   2.250   6.827   2.553  0.0703  0.2390  0.2054
    9MOL   C333 3869   2.119   6.906   2.519  0.2677  0.2752 -0.7965
    9MOL   C334 3870   2.146   6.996   2.401  0.3449 -0.3918 -0.0120
    9MOL   C335 3871   2.015   7.068   2.367 -0.9308 -0.0354 -0.0099
    9MOL   C336 3872   1.966   7.160   2.483  0.8357 -0.5218  0.3050
    9MOL   C337 3873   1.944   7.071   2.607  0.2795  0.2216  1.1153
    9MOL   C338 3874   2.068   6.990   2.640  0.0200  0.5373  0.4982
    9MOL   C339 3875   2.218   6.712   2.649  0.9512  0.0420  0.3965
    9MOL   H340 3876   2.290   6.786   2.461  0.6882 -0.1342  0.6395
    9MOL   H341 3877   2.039   6.837   2.490  1.5817 -2.5667  2.0184
    9MOL   H342 3878   2.224   7.073   2.408  0.2962 -0.3607  0.2037
    9MOL   H343 3879   2.186   6.941   2.316  0.0784  0.8369 -0.9515
    9MOL   H344 3880   2.027   7.131   2.279  1.4408  0.7155  0.8053
    9MOL   H345 3881   1.941   6.992   2.344  0.2768 -1.2295 -0.0467
    9MOL   H346 3882   2.053   7.222   2.498  0.8686 -0.4065 -0.3319
    9MOL   H347 3883   1.878   7.222   2.466  0.8886 -0.4956  0.1270
    9MOL   H348 3884   1.857   7.007   2.591 -1.8712  3.3222  0.0486
    9MOL   H349 3885   1.924   7.127   2.698  3.6621 -0.4012  2.3281
    9MOL   H350 3886   2.050   6.938   2.734 -1.1127  2.9398  1.6333
    9MOL   H351 3887   2.155   7.043   2.678 -0.3898  0.7750  1.1122
    9MOL   H352 3888   2.167   6.755   2.734 -0.7542  1.0731 -1.1150
    9MOL   H353 3889   2.311   6.668   2.684  0.9823 -0.9478 -0.8683
    9MOL   C354 3890   2.138   6.597   2.584 -0.5263  0.0609  0.6044
    9MOL   C355 3891   2.071   6.513   2.697  0.2660  0.4637 -0.2785
    9MOL   C356 3892   1.944   6.573   2.758  0.4046 -0.7436 -0.3322
    9MOL   C357 3893   1.872   6.485   2.853  0.2875  0.3635  0.1645
    9MOL   C358 3894   1.976   6.436   2.953 -0.0302  0.4933 -0.0199
    9MOL   C359 3895   2.099   6.369   2.896  0.9464  0.0716 -0.3687
    9MOL   C360 3896   2.173   6.466   2.803  0.5715  0.4460 -0.4455
    9MOL   C361 3897   2.228   6.506   2.491  0.1889  0.6743  0.0728
    9MOL   H362 3898   2.052   6.637   2.530 -0.6701 -1.1324 -0.0671
    9MOL   H363 3899   2.031   6.425   2.647 -3.6096  1.5330  0.7713
    9MOL   H364 3900   1.879   6.608   2.678  1.5167  1.6155 -0.2524
    9MOL   H365 3901   1.982   6.662   2.809 -1.4450  0.9713 -1.8635
    9MOL   H366 3902   1.803   6.552   2.905 -0.6418  0.3098 -0.9864
    9MOL   H367 3903   1.828   6.409   2.789  2.7898 -0.9164 -0.0865
    9MOL   H368 3904   1.999   6.515   3.025 -1.6804 -1.0998  2.3292
    9MOL   H369 3905   1.921   6.367   3.017 -3.1955  1.2703 -1.8103
    9MOL   H370 3906   2.160   6.342   2.982  0.8365  1.6878  0.2498
    9MOL   H371 3907   2.068   6.277   2.848  0.9972 -0.2467  0.2041
    9MOL   H372 3908   2.252   6.411   2.752  0.5141  2.0746 -2.3559
    9MOL   H373 3909   2.223   6.552   2.848  0.1091  0.6295 -0.2729
    9MOL   H374 3910   2.206   6.400   2.500 -1.9591  0.8726 -2.2841
    9MOL   H375 3911   2.331   6.517   2.525  1.0733 -2.1250 -1.5259
    9MOL   C376 3912   2.231   6.537   2.338 -0.4353  1.1727 -0.4570
    9MOL   C377 3913   2.378   6.516   2.284  0.1650 -0.0681  0.2522
    9MOL   C378 3914   2.412   6.563   2.132 -0.5289 -0.1508 -0.3221
    9MOL   C379 3915   2.561   6.553   2.097 -0.0991  0.2532  0.1757
    9MOL   C380 3916   2.621   6.412   2.135 -0.5396 -0.4342 -0.1111
    9MOL   C381 3917   2.596   6.374   2.281 -0.0538 -0.1751  0.1355
    9MOL   C382 3918   2.444   6.378   2.310  0.1370 -0.0858 -0.6529
    9MOL   C383 3919   2.132   6.446   2.259 -0.3973 -0.7522  0.6729
    9MOL   H384 3920   2.206   6.641   2.316 -3.6613  0.4102 -0.6741
    9MOL   H385 3921   2.432   6.597   2.332  1.9119 -0.5172 -0.9233
    9MOL   H386 3922   2.359   6.499   2.062 -2.0814  1.5185 -0.7058
    9MOL   H387 3923   2.375   6.659   2.096  2.3717  0.7277 -1.0817
    9MOL   H388 3924   2.613   6.635   2.146  0.8913 -0.4348  0.3030
    9MOL   H389 3925   2.580   6.577   1.992  1.9001  1.6552  0.8336
    9MOL   H390 3926   2.569   6.336   2.078 -3.4619  1.2280  0.2367
    9MOL   H391 3927   2.725   6.410   2.103 -0.3764 -0.5850  0.4117
    9MOL   H392 3928   2.637   6.279   2.316  1.1875  1.4161  3.1797
    9MOL   H393 3929   2.658   6.433   2.348 -0.0266 -1.2272  1.0534
    9MOL   H394 3930   2.380   6.297   2.274 -0.0127 -1.0558  1.7494
    9MOL   H395 3931   2.441   6.360   2.417  0.4248 -0.4222 -0.7010
    9MOL   H396 3932   2.162   6.344   2.283  0.4290 -0.4722  0.8457
    9MOL   H397 3933   2.148   6.466   2.153 -0.1312 -0.3674  0.7849
    9MOL   C398 3934   1.978   6.463   2.299  0.6613 -0.2785 -0.1237
    9MOL   C399 3935   1.923   6.614   2.277  0.0701 -0.2633 -0.2064
    9MOL   C400 3936   1.916   6.658   2.133 -0.2471 -0.3733 -0.1975
    9MOL   C401 3937   1.873   6.805   2.109  0.1962 -0.1209  0.1939
    9MOL   C402 3938   1.738   6.841   2.181  0.4353  0.1080 -0.7868
    9MOL   C403 3939   1.735   6.787   2.330 -0.0028  0.1269  0.8039
    9MOL   C404 3940   1.789   6.636   2.344  0.0317 -0.4000 -0.0693
    9MOL   C405 3941   1.884   6.364   2.223  0.4753 -0.9901 -0.0126
    9MOL   H406 3942   1.965   6.451   2.406  0.6830  2.9285  0.2786
    9MOL   H407 3943   1.992   6.678   2.331  0.8617  0.3390 -1.8860
    9MOL   H408 3944   1.848   6.586   2.089  0.5552 -1.0825 -0.2833
    9MOL   H409 3945   2.014   6.643   2.089 -0.7463 -2.2206 -0.7147
    9MOL   H410 3946   1.854   6.826   2.004 -0.1716 -1.6494 -0.0485
    9MOL   H411 3947   1.944   6.874   2.154 -1.3562  0.6195  1.5891
    9MOL   H412 3948   1.649   6.803   2.131 -0.5538 -0.2282  1.1737
    9MOL   H413 3949   1.729   6.949   2.177  2.5350  0.4295  1.5929
    9MOL   H414 3950   1.785   6.857   2.396  0.5253 -0.3145  0.8762
    9MOL   H415 3951   1.638   6.807   2.375 -0.0164 -1.5070  1.5509
    9MOL   H416 3952   1.795   6.614   2.450  0.7530  1.6664  0.3399
    9MOL   H417 3953   1.715   6.572   2.296 -0.9924  0.5159  0.2696
    9MOL   H418 3954   1.779   6.380   2.248  0.7659  1.2772 -0.0788
    9MOL   H419 3955   1.898   6.388   2.118 -0.8298  1.4391  0.3324
    9MOL   C420 3956   1.915   6.212   2.239  0.2078 -0.2903  0.0309
    9MOL   C421 3957   1.816   6.133   2.149  0.4255 -0.2522  0.4124
    9MOL   C422 3958   1.860   6.135   1.990 -0.4608 -0.4101  0.0877
    9MOL   C423 3959   1.775   6.043   1.896  0.8727 -0.2715  0.1110
    9MOL   C424 3960   1.622   6.082   1.915 -0.2036 -0.6116  0.4009
    9MOL   C425 3961   1.591   6.067   2.068  0.2598  0.1394  0.0572
    9MOL   C426 3962   1.666   6.174   2.153 -0.2528 -0.1651  0.0874
    9MOL   C427 3963   1.913   6.161   2.379  0.4717  1.0668  0.1488
    9MOL   H428 3964   2.016   6.196   2.199  0.0076  0.5410 -0.8213
    9MOL   H429 3965   1.826   6.028   2.177  0.9443 -0.7492 -1.5535
    9MOL   H430 3966   1.852   6.238   1.956 -2.9786  0.0919  2.0573
    9MOL   H431 3967   1.967   6.116   1.980  0.0056  1.5699  1.0535
    9MOL   H432 3968   1.814   6.048   1.794  1.3022  2.7559  0.3652
    9MOL   H433 3969   1.774   5.938   1.923 -2.1793  0.0881  1.5898
    9MOL   H434 3970   1.555   6.014   1.863  0.8533 -0.8220 -0.7136
    9MOL   H435 3971   1.605   6.182   1.875 -0.3833 -0.7601  0.1013
    9MOL   H436 3972   1.612   5.969   2.113 -0.1549 -0.3389 -0.7868
    9MOL   H437 3973   1.485   6.080   2.086  0.4865  1.2898  0.5570
    9MOL   H438 3974   1.639   6.274   2.119 -0.7072  0.0162  0.9829
    9MOL   H439 3975   1.636   6.170   2.258  0.7442 -0.7379  0.3555
    9MOL   H440 3976   1.815   6.158   2.427  0.7443 -0.8241  0.6247
    9MOL   H441 3977   1.945   6.057   2.379 -1.4338  0.4353  1.7107
    9MOL   H442 3978   1.989   6.212   2.439 -0.1962  0.7043  1.3194
   10MOL     C1 3979   5.482   7.101   7.753  0.9712  0.5571 -0.1313
   10MOL     C2 3980   5.458   7.255   7.731  0.2690 -0.6079 -0.2255
   10MOL     C3 3981   5.554   7.354   0.032  0.4104  0.6868 -0.2067
   10MOL     C4 3982   5.513   7.504   0.003  0.8003 -0.3319 -0.0862
   10MOL     C5 3983   5.362   7.530   0.028 -1.0028  0.3557 -0.0814
   10MOL     C6 3984   5.277   7.433   7.714  0.1215 -0.6662 -0.2895
   10MOL     C7 3985   5.316   7.290   7.749 -0.5050 -0.7174 -0.4666
   10MOL     C8 3986   5.619   7.037   7.695 -0.0351 -0.0211 -0.0096
   10MOL     H9 3987   5.471   7.080   0.087 -0.2907 -1.3287 -0.6028
   10MOL    H10 3988   5.472   7.258   7.623  0.0043  0.5118 -0.2336
   10MOL    H11 3989   5.528   7.333   0.136 -0.7741 -1.0556 -0.8234
   10MOL    H12 3990   5.657   7.337   0.003  0.2705  3.0331 -2.1877
   10MOL    H13 3991   5.540   7.522   7.671 -3.7279  0.6417 -1.2443
   10MOL    H14 3992   5.565   7.583   0.057 -1.9733  1.7909 -0.4076
   10MOL    H15 3993   5.333   7.631   7.772 -1.8538  0.9111  2.5979
   10MOL    H16 3994   5.335   7.523   0.133 -0.0563  3.9803  0.4583
   10MOL    H17 3995   5.170   7.447   7.730  0.4300  0.2647  0.9980
   10MOL    H18 3996   5.304   7.452   7.610 -2.7449  1.3935 -0.7092
   10MOL    H19 3997   5.246   7.219   7.705 -1.9848  0.6195 -0.3386
   10MOL    H20 3998   5.302   7.277   0.084  1.9286 -2.1911 -0.3070
   10MOL    H21 3999   5.641   6.967   0.004 -1.4703  0.3212  0.6906
   10MOL    H22 4000   5.693   7.117   7.691  1.5280 -1.4074  0.7497
   10MOL    H23 4001   5.402   7.039   7.712  1.4082 -0.1993  0.1287
   10MOL    C24 4002   5.596   6.971   7.554 -0.3692 -0.1456  0.6158
   10MOL    C25 4003   5.525   7.063   7.446 -0.2015 -0.4311  1.1046
   10MOL    C26 4004   5.484   6.982   7.324  0.2926  0.0709  0.0691
   10MOL    C27 4005   5.391   7.055   7.227  0.0272  0.7557 -0.5680
   10MOL    C28 4006   5.461   7.189   7.185  0.7807 -0.3736  0.5470
   10MOL    C29 4007   5.515   7.268   7.303 -0.0774 -0.1496  0.2420
   10MOL    C30 4008   5.608   7.184   7.398  0.2839  0.6846  0.0861
   10MOL    C31 4009   5.735   6.911   7.506 -0.0164 -0.3004 -0.4937
   10MOL    H32 4010   5.521   6.894   7.574  0.3548 -0.6099  1.5363
   10MOL    H33 4011   5.430   7.104   7.480 -0.5847  0.8390 -1.3589
   10MOL    H34 4012   5.434   6.895   7.366 -0.2866  1.1967  1.7728
   10MOL    H35 4013   5.573   6.956   7.268 -1.3822  0.7004 -2.9814
   10MOL    H36 4014   5.370   6.994   7.139  2.4294  3.0777 -2.8559
   10MOL    H37 4015   5.298   7.085   7.277 -0.0580 -0.5417  0.0621
   10MOL    H38 4016   5.402   7.250   7.116  3.2066 -1.6338 -2.8157
   10MOL    H39 4017   5.549   7.160   7.128  0.3858  0.1411 -0.3408
   10MOL    H40 4018   5.580   7.345   7.261 -1.8913  1.7618  0.8801
   10MOL    H41 4019   5.437   7.320   7.358  0.9241 -0.0321  1.5861
   10MOL    H42 4020   5.700   7.149   7.350  0.5348  0.7457  0.5171
   10MOL    H43 4021   5.653   7.259   7.463  1.8054  0.1152 -0.2861
   10MOL    H44 4022   5.801   6.996   7.526 -2.0883  1.1045  0.6451
   10MOL    H45 4023   5.739   6.897   7.398  2.0481 -0.2441 -0.4468
   10MOL    C46 4024   5.769   6.780   7.568  0.2183  0.0298  0.7944
   10MOL    C47 4025   5.923   6.769   7.595  0.5645 -0.1127  0.4908
   10MOL    C48 4026   5.985   6.854   7.711  0.5761 -0.2454 -0.4706
   10MOL    C49 4027   6.138   6.808   7.738 -0.3517 -0.6728 -0.5708
   10MOL    C50 4028   6.226   6.809   7.609 -0.2265  0.0890  0.4245
   10MOL    C51 4029   6.161   6.736   7.493 -0.3268  0.3774  0.3141
   10MOL    C52 4030   6.016   6.779   7.464  0.7352  0.2418 -0.5757
   10MOL    C53 4031   5.703   6.670   7.489 -0.6140 -0.1497  0.3330
   10MOL    H54 4032   5.717   6.792   7.663  0.7634  2.5064  0.8024
   10MOL    H55 4033   5.934   6.665   7.625  0.6885 -0.0279  0.7399
   10MOL    H56 4034   5.988   6.959   7.680  0.2419 -0.0161  0.2631
   10MOL    H57 4035   5.919   6.857   0.026  0.6304  1.1618 -0.4681
   10MOL    H58 4036   6.150   6.705   7.771 -0.2623 -0.3257  0.5124
   10MOL    H59 4037   6.181   6.868   0.046 -0.4191 -1.3154 -0.0496
   10MOL    H60 4038   6.231   6.913   7.578  0.2342  0.0400  0.3405
   10MOL    H61 4039   6.319   6.754   7.621 -1.7074 -2.4309  0.9400
   10MOL    H62 4040   6.170   6.629   7.510 -0.8248  0.8966  4.3528
   10MOL    H63 4041   6.213   6.755   7.398  1.7309 -2.0507  0.8977
   10MOL    H64 4042   6.016   6.885   7.439 -0.6411  0.2955 -0.3730
   10MOL    H65 4043   5.979   6.723   7.378 -0.3919  0.6520 -0.3679
   10MOL    H66 4044   5.777   6.637   7.416 -2.1239  0.2021 -1.3773
   10MOL    H67 4045   5.622   6.710   7.428  0.4460 -0.7535 -1.4883
   10MOL    C68 4046   5.660   6.544   7.570  0.9028 -0.5027 -0.2717
   10MOL    C69 4047   5.525   6.577   7.648 -0.1191 -0.1647  0.6017
   10MOL    C70 4048   5.400   6.586   7.559  0.4478  0.6384 -0.2078
   10MOL    C71 4049   5.267   6.615   7.642  0.0795  0.4116  0.4403
   10MOL    C72 4050   5.258   6.525   0.000  0.0125  0.1725 -1.0885
   10MOL    C73 4051   5.376   6.532   0.082  0.3718 -0.4520 -0.2402
   10MOL    C74 4052   5.499   6.491   7.767 -0.3137  0.1611 -0.0058
   10MOL    C75 4053   5.645   6.417   7.479  0.2169  0.7540 -0.4701
   10MOL    H76 4054   5.734   6.523   7.648  0.9707 -0.2107 -0.2571
   10MOL    H77 4055   5.533   6.676   7.692  0.1150  0.1426 -0.1191
   10MOL    H78 4056   5.386   6.489   7.512  0.4871 -0.4677  2.0044
   10MOL    H79 4057   5.403   6.657   7.476  2.3569  2.4629  1.3695
   10MOL    H80 4058   5.280   6.719   7.672  0.7345  0.0119  1.5760
   10MOL    H81 4059   5.174   6.604   7.587 -0.5967 -0.7110  1.7772
   10MOL    H82 4060   5.243   6.421   7.745  2.6847 -0.3026 -0.8655
   10MOL    H83 4061   5.175   6.556   0.064  1.2260  1.8562 -0.2743
   10MOL    H84 4062   5.371   6.482   0.179  1.3024 -0.3176 -0.1132
   10MOL    H85 4063   5.402   6.634   0.113  2.7498 -0.6482 -1.4531
   10MOL    H86 4064   5.483   6.388   7.734 -2.2169  0.4935 -0.2104
   10MOL    H87 4065   5.588   6.501   0.056 -1.8507  0.8057  2.1907
   10MOL    H88 4066   5.573   6.352   7.529 -1.0188  2.2236 -0.3205
   10MOL    H89 4067   5.601   6.461   7.390 -0.9733 -2.0509 -1.3278
   10MOL    C90 4068   5.774   6.333   7.440 -0.3882 -0.2288  0.6454
   10MOL    C91 4069   5.838   6.263   7.569  0.2127  0.5452  0.5850
   10MOL    C92 4070   5.966   6.335   7.618 -0.0790 -1.0503 -0.6575
   10MOL    C93 4071   6.029   6.280   7.746  0.2245 -0.0960 -0.2452
   10MOL    C94 4072   5.926   6.240   0.081  0.3017  0.1269 -0.3738
   10MOL    C95 4073   5.812   6.155   0.038  0.0772 -0.3868  0.5620
   10MOL    C96 4074   5.749   6.201   7.680  0.0217 -0.3022  0.6235
   10MOL    C97 4075   5.735   6.244   7.323  0.2282  0.3532 -0.5665
   10MOL    H98 4076   5.843   6.404   7.393 -2.7420  3.2075  2.2239
   10MOL    H99 4077   5.874   6.171   7.524  2.5151  1.2983  0.8554
   10MOL   H100 4078   5.944   6.442   7.613  1.4216 -0.7615 -1.4587
   10MOL   H101 4079   6.045   6.308   7.548  1.1088  1.0939 -0.1831
   10MOL   H102 4080   6.099   6.357   0.008 -0.9172  0.9638 -0.2754
   10MOL   H103 4081   6.095   6.195   7.726 -0.3582 -0.4255 -0.7866
   10MOL   H104 4082   5.893   6.331   0.132  0.2105 -0.0320 -0.1486
   10MOL   H105 4083   5.981   6.189   0.160 -0.4345  2.1616  1.5126
   10MOL   H106 4084   5.861   6.060   0.018 -1.4789 -1.2210  0.6588
   10MOL   H107 4085   5.740   6.139   0.118  0.8338 -0.7663  1.1690
   10MOL   H108 4086   5.700   6.116   7.632 -1.0768  0.9570 -0.5428
   10MOL   H109 4087   5.676   6.278   7.701  0.2564  0.0142  0.2875
   10MOL   H110 4088   5.669   6.176   7.378  1.0757 -0.5077 -0.6085
   10MOL   H111 4089   5.678   6.303   7.252  1.9791  1.6987 -0.8636
   10MOL   C112 4090   5.850   6.172   7.242  0.1104 -0.1854  0.0793
   10MOL   C113 4091   5.929   6.278   7.150  0.4401  1.0649 -0.0618
   10MOL   C114 4092   5.835   6.335   7.032 -0.2867  0.7181 -0.2079
   10MOL   C115 4093   5.917   6.422   6.930  0.3494  0.3368 -1.0764
   10MOL   C116 4094   6.053   6.358   6.889  0.2396 -0.0986 -0.3148
   10MOL   C117 4095   6.143   6.332   7.009  0.3447 -0.3493 -0.1369
   10MOL   C118 4096   6.071   6.227   7.102 -0.0636 -0.6496  0.3179
   10MOL   C119 4097   5.793   6.043   7.165 -1.0421 -1.2205  0.7638
   10MOL   H120 4098   5.928   6.132   7.307  0.3660 -0.0455 -0.1406
   10MOL   H121 4099   5.957   6.360   7.217  0.6663  0.9719 -0.0414
   10MOL   H122 4100   5.741   6.388   7.051 -0.4299  0.6283 -0.6686
   10MOL   H123 4101   5.790   6.251   6.980  0.2502  0.2154  0.1373
   10MOL   H124 4102   5.856   6.425   6.839  0.6199  2.2424 -1.2264
   10MOL   H125 4103   5.933   6.521   6.973  3.9215 -0.9048  0.6583
   10MOL   H126 4104   6.048   6.268   6.827 -0.6258  0.5547 -1.2291
   10MOL   H127 4105   6.111   6.434   6.835  1.5866 -0.5112  0.5338
   10MOL   H128 4106   6.242   6.305   6.970  0.1424  0.0083 -0.8933
   10MOL   H129 4107   6.154   6.420   7.072  1.4261 -1.0149  0.6375
   10MOL   H130 4108   6.128   6.194   7.188  0.0413  1.8223  1.2512
   10MOL   H131 4109   6.052   6.139   7.041  1.4251 -1.4954  1.0673
   10MOL   H132 4110   5.881   5.999   7.118  0.0171  0.1473  1.4412
   10MOL   H133 4111   5.724   6.073   7.087  0.6354 -0.0379 -0.2750
   10MOL   C134 4112   5.733   5.932   7.259 -0.8528 -0.8332 -0.5207
   10MOL   C135 4113   5.825   5.865   7.366  0.3850 -0.6552 -0.0490
   10MOL   C136 4114   5.895   5.739   7.327 -0.1514 -0.2071  0.0190
   10MOL   C137 4115   6.001   5.707   7.434 -0.3896 -0.2470  0.0313
   10MOL   C138 4116   5.944   5.683   7.565 -0.5062  0.0954  0.0974
   10MOL   C139 4117   5.857   5.799   7.611 -0.1562  0.0431 -0.3873
   10MOL   C140 4118   5.752   5.844   7.500 -0.1750  0.1059  0.7844
   10MOL   C141 4119   5.657   5.834   7.171  0.2024  0.3996  0.0448
   10MOL   H142 4120   5.665   5.984   7.326  1.1216 -1.2305  1.8458
   10MOL   H143 4121   5.907   5.936   7.379 -0.1875 -0.1047  0.5673
   10MOL   H144 4122   5.823   5.657   7.328 -0.1415 -0.2313 -1.0011
   10MOL   H145 4123   5.933   5.736   7.225 -0.5879  2.9698 -0.3043
   10MOL   H146 4124   6.068   5.793   7.437 -1.1197  0.4364 -1.9539
   10MOL   H147 4125   6.059   5.619   7.406 -1.7307 -1.4189  0.8672
   10MOL   H148 4126   5.893   5.587   7.561 -0.1901 -0.0110 -2.0661
   10MOL   H149 4127   6.015   5.679   7.647 -0.5804  1.8541  0.2688
   10MOL   H150 4128   5.913   5.883   7.652 -1.1527  0.4296  0.1948
   10MOL   H151 4129   5.801   5.782   7.703  3.5137 -0.9795  1.7607
   10MOL   H152 4130   5.677   5.765   7.500  0.6276 -0.7166  2.8690
   10MOL   H153 4131   5.692   5.930   7.529 -1.8989 -0.1996 -1.7201
   10MOL   H154 4132   5.649   5.743   7.231 -1.6250  0.6025  0.1258
   10MOL   H155 4133   5.724   5.800   7.091  2.2281  0.7745  1.5430
   10MOL   C156 4134   5.510   5.862   7.107  0.3698 -0.0122 -0.3062
   10MOL   C157 4135   5.406   5.931   7.203 -0.0834  0.1273  0.5655
   10MOL   C158 4136   5.391   5.857   7.342  0.5352  0.0084  0.2179
   10MOL   C159 4137   5.306   5.935   7.440  0.6645  0.5076  0.0962
   10MOL   C160 4138   5.351   6.078   7.453  0.1945 -0.6242  0.7996
   10MOL   C161 4139   5.351   6.152   7.315  0.3677  0.2531  0.1390
   10MOL   C162 4140   5.433   6.084   7.206  0.4419  0.0132 -0.6849
   10MOL   C163 4141   5.441   5.743   7.031 -0.1547 -0.6551 -0.2791
   10MOL   H164 4142   5.536   5.935   7.031 -1.5434  1.5989  0.5354
   10MOL   H165 4143   5.308   5.919   7.157 -0.2296  2.1707  0.3239
   10MOL   H166 4144   5.348   5.757   7.334 -1.1303  0.8313 -1.7425
   10MOL   H167 4145   5.487   5.844   7.392  1.6368  0.3790 -1.7344
   10MOL   H168 4146   5.199   5.938   7.422  0.1517 -0.1575  2.7469
   10MOL   H169 4147   5.305   5.890   7.540 -0.5824  1.1970  0.4113
   10MOL   H170 4148   5.446   6.079   7.505  1.8915 -1.2022 -2.1968
   10MOL   H171 4149   5.288   6.131   7.525 -3.1005  0.0747 -2.4333
   10MOL   H172 4150   5.369   6.259   7.327 -2.0918  0.6921  0.0434
   10MOL   H173 4151   5.249   6.153   7.278 -0.3894 -0.5820  2.1298
   10MOL   H174 4152   5.418   6.127   7.107 -0.2633  1.6483  0.1102
   10MOL   H175 4153   5.537   6.108   7.231  1.0680 -0.6808 -2.5440
   10MOL   H176 4154   5.334   5.730   7.046 -0.2976 -0.3153 -0.9762
   10MOL   H177 4155   5.480   5.660   7.089 -0.4409 -0.2043  0.5692
   10MOL   C178 4156   5.491   5.713   6.891 -0.3032  0.0843  0.2538
   10MOL   C179 4157   5.510   5.561   6.870  0.1360  0.8470  0.2079
   10MOL   C180 4158   5.652   5.510   6.933 -0.4729 -0.6043 -0.8889
   10MOL   C181 4159   5.692   5.367   6.892  0.1513 -0.7774 -0.8852
   10MOL   C182 4160   5.680   5.354   6.742 -0.3130  0.4833  0.4528
   10MOL   C183 4161   5.539   5.380   6.691 -0.0911 -0.4992 -0.8428
   10MOL   C184 4162   5.507   5.532   6.719 -0.1655  0.7279 -1.0122
   10MOL   C185 4163   5.396   5.781   6.782 -0.4333  0.3395  0.2613
   10MOL   H186 4164   5.584   5.767   6.869  0.3351 -0.5849  1.2977
   10MOL   H187 4165   5.419   5.518   6.911 -1.5945  1.4697 -2.7775
   10MOL   H188 4166   5.728   5.572   6.886 -0.8632  1.1447  0.7311
   10MOL   H189 4167   5.646   5.515   7.042 -0.3341  2.6894 -0.9816
   10MOL   H190 4168   5.628   5.294   6.943  1.1582 -0.6048  0.6820
   10MOL   H191 4169   5.796   5.348   6.920  0.1048  2.5151  1.8554
   10MOL   H192 4170   5.752   5.414   6.686  0.4515 -0.3073  0.5779
   10MOL   H193 4171   5.705   5.249   6.729  0.1022  0.6832 -0.4381
   10MOL   H194 4172   5.463   5.316   6.737 -0.0208  1.5462  2.2732
   10MOL   H195 4173   5.530   5.348   6.587 -0.6037  3.3257 -2.0827
   10MOL   H196 4174   5.583   5.587   6.664  1.0776  0.0922  0.0344
   10MOL   H197 4175   5.408   5.549   6.676 -0.7861 -0.7979 -0.2276
   10MOL   H198 4176   5.442   5.763   6.685  1.2041 -1.3593  1.3309
   10MOL   H199 4177   5.297   5.735   6.786 -0.0840 -0.4879 -0.3817
   10MOL   C200 4178   5.388   5.939   6.781  0.4040 -1.1531 -0.4102
   10MOL   C201 4179   5.515   6.011   6.715  0.0937  0.3176  0.0148
   10MOL   C202 4180   5.526   5.996   6.560 -0.4206 -0.3957 -0.4287
   10MOL   C203 4181   5.656   6.068   6.514  0.0402 -0.3652 -0.4561
   10MOL   C204 4182   5.664   6.218   6.561 -0.7457  0.8450  0.1398
   10MOL   C205 4183   5.651   6.225   6.712 -0.2710 -0.2104 -0.1149
   10MOL   C206 4184   5.519   6.160   6.765 -0.7061 -0.5403 -0.4057
   10MOL   C207 4185   5.253   5.982   6.712 -0.1612 -0.5776 -0.7619
   10MOL   H208 4186   5.375   5.973   6.884 -3.1277  1.9053 -1.7411
   10MOL   H209 4187   5.590   5.942   6.754 -0.3498  0.8458  1.8492
   10MOL   H210 4188   5.446   6.045   6.506  0.2201 -0.1236 -1.1322
   10MOL   H211 4189   5.537   5.891   6.531 -1.4934 -0.0808 -2.0066
   10MOL   H212 4190   5.743   6.014   6.550 -0.6599 -0.9988  0.3089
   10MOL   H213 4191   5.658   6.052   6.406 -0.1491 -0.5810 -0.4288
   10MOL   H214 4192   5.751   6.274   6.526  1.4921 -1.8748  1.1647
   10MOL   H215 4193   5.586   6.277   6.513 -1.9510 -1.1972 -0.4877
   10MOL   H216 4194   5.738   6.167   6.743  0.6087  0.9257 -0.4089
   10MOL   H217 4195   5.662   6.325   6.753 -0.8723 -0.0633 -0.3195
   10MOL   H218 4196   5.508   6.162   6.873  1.5963 -0.6958 -0.1322
   10MOL   H219 4197   5.435   6.219   6.730  1.2041  3.1693  0.9437
   10MOL   H220 4198   5.261   6.080   6.665  1.0694  0.3516  1.3246
   10MOL   H221 4199   5.236   5.916   6.627 -0.0595 -1.2493 -0.2761
   10MOL   C222 4200   5.115   5.970   6.793 -0.7541  0.6821  0.1202
   10MOL   C223 4201   5.113   6.044   6.930 -0.4949 -0.1410  0.2542
   10MOL   C224 4202   4.995   6.009   7.023 -0.0011  0.2645 -0.7876
   10MOL   C225 4203   4.997   6.084   7.157  0.3946  0.5311 -0.1703
   10MOL   C226 4204   5.015   6.235   7.143 -0.1899 -0.9840  0.4293
   10MOL   C227 4205   5.125   6.275   7.045  0.1196  0.0822 -0.2977
   10MOL   C228 4206   5.114   6.194   6.911  0.7989 -0.4463  0.8114
   10MOL   C229 4207   4.995   6.012   6.696 -0.1644 -0.2771  0.4214
   10MOL   H230 4208   5.098   5.865   6.816  1.7105 -0.0202 -1.1160
   10MOL   H231 4209   5.205   6.032   6.988 -1.0541 -0.9203  0.9917
   10MOL   H232 4210   4.896   6.038   6.986  0.3783  0.0316 -2.0229
   10MOL   H233 4211   4.987   5.908   7.061 -1.1911  0.8812  0.6653
   10MOL   H234 4212   5.079   6.040   7.214 -0.0390 -1.9237 -1.3902
   10MOL   H235 4213   4.911   6.061   7.220  0.9357 -0.4955  0.1979
   10MOL   H236 4214   4.941   6.293   7.087  0.0727 -1.6921 -0.6665
   10MOL   H237 4215   5.019   6.282   7.241  2.1882  0.7151 -0.4602
   10MOL   H238 4216   5.224   6.253   7.085 -0.7689 -3.8896 -0.1514
   10MOL   H239 4217   5.128   6.382   7.024  2.0019  0.0987 -0.0775
   10MOL   H240 4218   5.031   6.232   6.851  2.6645 -0.1012 -1.6423
   10MOL   H241 4219   5.200   6.220   6.849 -0.6239 -1.7974 -1.8274
   10MOL   H242 4220   5.026   6.101   6.642  0.8732 -0.3264  0.9192
   10MOL   H243 4221   4.916   6.056   6.757 -2.3746 -1.6746 -1.3788
   10MOL   C244 4222   4.940   5.899   6.604 -0.0673 -0.3212 -0.4126
   10MOL   C245 4223   4.885   5.961   6.475 -0.1364 -0.3073  0.3026
   10MOL   C246 4224   4.775   6.073   6.507  0.5446 -0.2107  0.4734
   10MOL   C247 4225   4.721   6.141   6.386 -0.3478  0.3110  0.7135
   10MOL   C248 4226   4.674   6.037   6.278  0.0832 -0.0078 -1.0838
   10MOL   C249 4227   4.785   5.935   6.246 -0.5707 -0.7526 -0.6404
   10MOL   C250 4228   4.828   5.861   6.373  0.0550  0.6855 -0.6010
   10MOL   C251 4229   4.839   5.804   6.682 -0.4274 -0.4400  0.1148
   10MOL   H252 4230   5.027   5.840   6.575  0.7753  0.3656  0.6501
   10MOL   H253 4231   4.963   6.016   6.423  0.0645 -0.2535  0.6560
   10MOL   H254 4232   4.821   6.153   6.565 -1.8829  0.9729  0.8204
   10MOL   H255 4233   4.689   6.039   6.565 -0.8057  0.9747 -0.8178
   10MOL   H256 4234   4.656   6.225   6.406 -2.4053 -0.6641 -1.6306
   10MOL   H257 4235   4.807   6.192   6.342  0.0295 -0.7028  0.2489
   10MOL   H258 4236   4.584   5.984   6.308  0.4168 -0.0729 -0.1992
   10MOL   H259 4237   4.645   6.097   6.191  1.5541  0.3947 -1.3068
   10MOL   H260 4238   4.877   5.972   6.201 -0.6104  0.5711  0.3637
   10MOL   H261 4239   4.750   5.857   6.178  1.8264 -1.5099 -1.0812
   10MOL   H262 4240   4.745   5.799   6.408  1.5982 -1.2465 -0.2444
   10MOL   H263 4241   4.904   5.784   6.362 -1.5077 -1.0029  0.0337
   10MOL   H264 4242   4.744   5.843   6.645  0.2909  2.5398  1.2627
   10MOL   H265 4243   4.834   5.802   6.791 -1.0530 -0.9878  0.0765
   10MOL   C266 4244   4.844   5.650   6.646  0.1473  0.6583  0.2304
   10MOL   C267 4245   4.973   5.580   6.672 -1.0165  0.1836  0.0228
   10MOL   C268 4246   4.983   5.446   6.588  0.0147 -0.5913 -0.0545
   10MOL   C269 4247   5.119   5.381   6.599 -0.1233  0.2513 -0.2896
   10MOL   C270 4248   5.146   5.346   6.744 -0.8528  0.1504 -0.2922
   10MOL   C271 4249   5.128   5.462   6.838 -0.6010 -0.1606 -0.3660
   10MOL   C272 4250   4.999   5.539   6.815 -0.3571  0.3042 -0.1771
   10MOL   C273 4251   4.730   5.577   6.711  0.6828  0.1046  0.1034
   10MOL   H274 4252   4.832   5.646   6.538 -2.5778  0.6620  0.5170
   10MOL   H275 4253   5.050   5.652   6.642  0.0111 -1.3572 -1.0939
   10MOL   H276 4254   4.916   5.367   6.622  0.0109 -0.4246  0.3321
   10MOL   H277 4255   4.975   5.466   6.481  1.2371  0.6593  0.0713
   10MOL   H278 4256   5.190   5.454   6.559 -0.6865 -0.1077 -1.9929
   10MOL   H279 4257   5.126   5.293   6.535  1.0317  1.2121 -1.5273
   10MOL   H280 4258   5.072   5.277   6.785  0.2612 -1.3217 -0.7157
   10MOL   H281 4259   5.240   5.292   6.760 -2.4965 -2.4178  1.1408
   10MOL   H282 4260   5.207   5.533   6.814 -1.2039  0.4843 -0.4319
   10MOL   H283 4261   5.133   5.424   6.941 -1.0391 -0.1509 -0.3397
   10MOL   H284 4262   4.998   5.635   6.868 -3.6947  0.9683 -1.3311
   10MOL   H285 4263   4.919   5.484   6.866 -0.3465  0.8468  0.4434
   10MOL   H286 4264   4.725   5.614   6.813 -2.3837 -0.9580  0.3896
   10MOL   H287 4265   4.750   5.470   6.720 -1.0112 -0.1844  0.6572
   10MOL   C288 4266   4.585   5.590   6.646  0.3707  0.0937 -0.4631
   10MOL   C289 4267   4.470   5.595   6.751  0.1704  0.7008 -0.1923
   10MOL   C290 4268   4.447   5.466   6.837  0.1734  0.6555  1.0918
   10MOL   C291 4269   4.348   5.469   6.953 -0.0875 -0.5952 -0.2826
   10MOL   C292 4270   4.345   5.584   7.043  0.4379  1.1969  0.4277
   10MOL   C293 4271   4.354   5.712   6.954  0.0695  0.7440 -0.7941
   10MOL   C294 4272   4.472   5.710   6.859 -0.4624  0.2964 -0.7483
   10MOL   C295 4273   4.564   5.477   6.537  0.1785 -0.1241 -0.9228
   10MOL   H296 4274   4.580   5.685   6.592 -0.9661 -0.5678 -1.5280
   10MOL   H297 4275   4.379   5.606   6.693  0.3855 -1.1168 -0.8920
   10MOL   H298 4276   4.407   5.395   6.765  0.1766  0.1506  1.5822
   10MOL   H299 4277   4.543   5.435   6.878  0.6260  1.4376  0.6310
   10MOL   H300 4278   4.248   5.453   6.912 -0.3960 -0.2865  0.3438
   10MOL   H301 4279   4.370   5.383   7.017  1.4645  0.5625  0.7936
   10MOL   H302 4280   4.437   5.585   7.102  0.7222 -0.3178  0.0418
   10MOL   H303 4281   4.256   5.568   7.104 -0.7674 -0.5997 -1.7489
   10MOL   H304 4282   4.358   5.802   7.015  2.6763  1.0038 -1.3143
   10MOL   H305 4283   4.260   5.721   6.898 -1.2048 -1.1808  1.0057
   10MOL   H306 4284   4.563   5.699   6.918 -0.6831  0.1403 -0.4383
   10MOL   H307 4285   4.487   5.812   6.824 -0.6115  0.3193 -0.7412
   10MOL   H308 4286   4.663   5.441   6.512  0.1404  0.1911 -1.5212
   10MOL   H309 4287   4.529   5.386   6.586  0.2494 -0.3792 -1.3433
   10MOL   C310 4288   4.490   5.502   6.404  0.6490  0.0115  0.2191
   10MOL   C311 4289   4.546   5.422   6.285 -0.0825 -0.1589  0.3335
   10MOL   C312 4290   4.689   5.460   6.240  0.4744 -0.2364 -0.3404
   10MOL   C313 4291   4.744   5.374   6.131 -0.2658 -0.1916 -0.3443
   10MOL   C314 4292   4.711   5.215   6.135 -0.3206 -0.5022 -0.0129
   10MOL   C315 4293   4.570   5.190   6.172 -0.0916 -0.2229 -1.6377
   10MOL   C316 4294   4.529   5.268   6.297  0.4610 -0.0001 -0.6743
   10MOL   C317 4295   4.336   5.484   6.421 -0.0479 -0.6249 -0.5724
   10MOL   H318 4296   4.515   5.608   6.394  2.4550 -0.4746 -0.5994
   10MOL   H319 4297   4.472   5.443   6.208 -0.5729  2.0456  1.3715
   10MOL   H320 4298   4.703   5.564   6.211 -1.7930 -0.1645 -1.3052
   10MOL   H321 4299   4.751   5.462   6.330 -2.0047  1.6371  1.4086
   10MOL   H322 4300   4.852   5.391   6.135 -0.6873  2.8615 -0.5884
   10MOL   H323 4301   4.709   5.420   6.039 -1.3311  1.0733  0.6693
   10MOL   H324 4302   4.747   5.175   6.040 -1.3171  2.3677 -1.6683
   10MOL   H325 4303   4.769   5.161   6.209 -2.0967  0.4444  2.1275
   10MOL   H326 4304   4.508   5.213   6.085 -1.8778 -1.0295 -0.6001
   10MOL   H327 4305   4.557   5.082   6.181  2.2322 -0.2962  2.3439
   10MOL   H328 4306   4.602   5.241   6.372 -1.8901  0.5589  1.8872
   10MOL   H329 4307   4.436   5.236   6.345  1.2001  1.1070  1.5292
   10MOL   H330 4308   4.314   5.556   6.499 -1.5624 -0.0303 -1.5286
   10MOL   H331 4309   4.330   5.382   6.458  0.3731 -0.0226  1.2351
   10MOL   C332 4310   4.236   5.517   6.308 -0.0314  0.2705  0.3348
   10MOL   C333 4311   4.264   5.655   6.240  0.0060 -0.3723 -0.4821
   10MOL   C334 4312   4.257   5.785   6.328  0.5750 -0.2746 -0.1323
   10MOL   C335 4313   4.313   5.899   6.249 -0.6563  0.1532  0.4634
   10MOL   C336 4314   4.244   5.928   6.112 -0.6793  0.2795  0.0211
   10MOL   C337 4315   4.236   5.803   6.026  0.4886 -0.0463  0.0936
   10MOL   C338 4316   4.183   5.679   6.104 -0.3280 -0.1297 -0.0104
   10MOL   C339 4317   4.095   5.483   6.364  0.0291 -0.0489  0.5072
   10MOL   H340 4318   4.253   5.450   6.224  0.5439 -0.8331  1.3307
   10MOL   H341 4319   4.369   5.645   6.215  0.3538  3.8827 -1.0837
   10MOL   H342 4320   4.151   5.808   6.344  1.3500  0.8153  4.0386
   10MOL   H343 4321   4.296   5.777   6.429  0.0581  0.5017  0.1413
   10MOL   H344 4322   4.320   5.991   6.307  0.4178  0.5808 -0.3236
   10MOL   H345 4323   4.417   5.873   6.230 -1.3947 -1.7530 -1.2072
   10MOL   H346 4324   4.142   5.958   6.133 -0.1687  1.2234  1.2270
   10MOL   H347 4325   4.295   6.013   6.067 -0.7981 -1.4969 -3.5995
   10MOL   H348 4326   4.327   5.792   5.968 -0.8130  1.0732 -2.2374
   10MOL   H349 4327   4.168   5.831   5.946 -1.1001 -1.5319  0.8822
   10MOL   H350 4328   4.177   5.593   6.036  2.4115 -1.5309  1.4246
   10MOL   H351 4329   4.081   5.706   6.134 -0.0808  0.7654  0.0423
   10MOL   H352 4330   4.017   5.530   6.305  0.9377  0.5617 -0.2355
   10MOL   H353 4331   4.075   5.529   6.461 -1.3834 -2.2451  1.2931
   10MOL   C354 4332   4.062   5.329   6.369 -0.2532 -0.3817 -0.1195
   10MOL   C355 4333   4.040   5.255   6.239  0.0957  0.3056 -0.3200
   10MOL   C356 4334   3.899   5.281   6.175  0.9557  0.1280 -0.9973
   10MOL   C357 4335   3.890   5.194   6.046  0.0267  0.8699  0.1501
   10MOL   C358 4336   3.927   5.048   6.068  0.2638  0.7816  0.8327
   10MOL   C359 4337   4.070   5.023   6.131  0.3532  0.3530  0.0422
   10MOL   C360 4338   4.074   5.106   6.261  0.2172  0.6388 -0.0602
   10MOL   C361 4339   3.945   5.314   6.460 -0.4759  0.5241 -0.0812
   10MOL   H362 4340   4.142   5.278   6.422  0.6539  0.5290 -0.5910
   10MOL   H363 4341   4.116   5.289   6.168 -0.1884  1.7375  0.0360
   10MOL   H364 4342   3.887   5.386   6.150  1.4514  0.7671  1.3953
   10MOL   H365 4343   3.812   5.253   6.234 -0.1427  2.2947 -1.5402
   10MOL   H366 4344   3.791   5.195   6.002 -0.4034 -0.3368  1.0516
   10MOL   H367 4345   3.951   5.244   5.970 -1.1934  1.8704 -0.1850
   10MOL   H368 4346   3.839   5.009   6.119  1.6751  0.1172  2.8159
   10MOL   H369 4347   3.926   4.986   5.978  0.2126  1.0021  0.6800
   10MOL   H370 4348   4.098   4.918   6.136 -0.5018  0.0715 -0.9858
   10MOL   H371 4349   4.140   5.070   6.062  1.0112  0.6207  0.8747
   10MOL   H372 4350   4.174   5.089   6.301  0.5637  0.0238 -1.1719
   10MOL   H373 4351   4.008   5.060   6.335 -0.7730  1.3375 -0.4938
   10MOL   H374 4352   3.891   5.221   6.445  1.1033 -0.1380 -1.8212
   10MOL   H375 4353   3.873   5.395   6.448 -0.5478  0.5138  0.2560
   10MOL   C376 4354   3.991   5.318   6.609  0.5444 -0.1069 -0.6389
   10MOL   C377 4355   3.894   5.398   6.702  0.5564 -0.4653 -0.1290
   10MOL   C378 4356   3.746   5.355   6.695 -0.1575  0.1735  0.5287
   10MOL   C379 4357   3.674   5.428   6.810  0.8316  0.1387 -0.2323
   10MOL   C380 4358   3.702   5.580   6.823 -0.3122  0.5099  0.1950
   10MOL   C381 4359   3.847   5.621   6.807  0.0843 -0.9000  0.2497
   10MOL   C382 4360   3.900   5.551   6.678  0.4211  0.1459 -0.2876
   10MOL   C383 4361   4.015   5.179   6.666  0.1284  0.2568  0.7127
   10MOL   H384 4362   4.088   5.368   6.616 -0.1366  1.1465  0.0318
   10MOL   H385 4363   3.933   5.392   6.803  0.0977 -1.4171 -0.0013
   10MOL   H386 4364   3.694   5.376   6.601  2.2907  2.3247 -0.4268
   10MOL   H387 4365   3.730   5.248   6.709  0.1354 -0.0619 -0.8287
   10MOL   H388 4366   3.690   5.386   6.910 -3.0689  0.0367  0.4001
   10MOL   H389 4367   3.566   5.420   6.800  0.7159  2.0824 -0.7305
   10MOL   H390 4368   3.644   5.638   6.751 -0.7865  0.7381  0.7451
   10MOL   H391 4369   3.668   5.619   6.919  0.7178 -2.8362  1.9943
   10MOL   H392 4370   3.845   5.728   6.788  0.6511 -0.7251  1.1685
   10MOL   H393 4371   3.899   5.605   6.901  0.4970  2.3668  0.6357
   10MOL   H394 4372   3.838   5.579   6.593 -0.2358 -1.8281 -0.4809
   10MOL   H395 4373   4.002   5.585   6.662  0.2678  1.4733  1.3782
   10MOL   H396 4374   4.085   5.135   6.595 -0.5270 -0.3801  0.4568
   10MOL   H397 4375   3.924   5.120   6.662 -1.2124  1.8892  4.5681
   10MOL   C398 4376   4.070   5.164   6.811 -0.8580 -0.1411 -0.2845
   10MOL   C399 4377   3.951   5.124   6.913  0.6492  0.5832  0.0823
   10MOL   C400 4378   3.890   4.980   6.894  0.0990  0.3489  0.4068
   10MOL   C401 4379   3.790   4.951   7.012  0.2513  0.8890  0.8984
   10MOL   C402 4380   3.872   4.951   7.144  0.5257 -0.1936  0.1729
   10MOL   C403 4381   3.918   5.093   7.172 -0.7348  0.6493  0.8240
   10MOL   C404 4382   4.008   5.147   7.059  0.0482  0.4964  0.1289
   10MOL   C405 4383   4.166   5.044   6.804  0.3055  0.5809 -0.6576
   10MOL   H406 4384   4.113   5.257   6.847 -0.7240 -0.0074 -0.7950
   10MOL   H407 4385   3.864   5.186   6.891  0.4278  1.3248  2.8522
   10MOL   H408 4386   3.969   4.905   6.902  1.3711  1.5469 -0.5201
   10MOL   H409 4387   3.830   4.970   6.804  1.5564  1.2913 -0.7057
   10MOL   H410 4388   3.750   4.855   6.982  1.9828  1.0324 -2.0610
   10MOL   H411 4389   3.718   5.033   7.008  0.7130  1.3328  1.4591
   10MOL   H412 4390   3.952   4.877   7.141  1.6717  1.0167  0.8093
   10MOL   H413 4391   3.806   4.923   7.227  2.1767 -2.3420  0.8051
   10MOL   H414 4392   3.830   5.156   7.187 -2.1773 -1.1387  0.0914
   10MOL   H415 4393   3.977   5.102   7.263 -1.9626 -0.0639  1.7144
   10MOL   H416 4394   4.019   5.256   7.063  0.4491  0.4354  0.8108
   10MOL   H417 4395   4.113   5.119   7.064 -0.3759 -1.0577  0.4233
   10MOL   H418 4396   4.181   4.995   6.901  1.8842  0.7571 -0.7948
   10MOL   H419 4397   4.126   4.965   6.740  1.3377  0.2775 -0.9341
   10MOL   C420 4398   4.308   5.084   6.762  0.1747  0.0711  0.0058
   10MOL   C421 4399   4.372   4.985   6.666  0.4633 -0.1790 -0.2465
   10MOL   C422 4400   4.322   4.992   6.524 -0.0456 -0.3979  0.3402
   10MOL   C423 4401   4.389   4.893   6.434  0.7016  0.0658 -0.1206
   10MOL   C424 4402   4.361   4.755   6.494  0.3464  0.6530 -0.1539
   10MOL   C425 4403   4.424   4.736   6.625 -0.1208  0.1750  0.4531
   10MOL   C426 4404   4.374   4.844   6.723 -0.0730 -0.5203  0.8080
   10MOL   C427 4405   4.391   5.108   6.883 -0.7356  0.3895 -0.5427
   10MOL   H428 4406   4.298   5.181   6.713  0.6445 -0.1704 -0.5727
   10MOL   H429 4407   4.474   5.014   6.643  0.6057 -2.1017 -2.1852
   10MOL   H430 4408   4.213   4.987   6.527 -0.0657  0.1694  0.5415
   10MOL   H431 4409   4.347   5.089   6.481  1.6277 -0.1226  1.8857
   10MOL   H432 4410   4.345   4.891   6.334  0.7579 -0.4307 -0.1365
   10MOL   H433 4411   4.494   4.916   6.414  0.9483  1.5661  2.7274
   10MOL   H434 4412   4.384   4.669   6.432  1.0438 -0.0171  1.0250
   10MOL   H435 4413   4.255   4.741   6.516  0.3009  1.8347  0.4116
   10MOL   H436 4414   4.533   4.732   6.620 -0.1231 -0.4215  0.8272
   10MOL   H437 4415   4.393   4.637   6.659 -4.0401  0.5363 -1.8163
   10MOL   H438 4416   4.275   4.811   6.754 -0.4501 -0.9795 -0.8110
   10MOL   H439 4417   4.416   4.853   6.823  0.8056  1.5177  0.2728
   10MOL   H440 4418   4.418   5.024   6.949 -2.0242  1.8724  1.9329
   10MOL   H441 4419   4.483   5.159   6.855  1.0387 -0.8781  2.6119
   10MOL   H442 4420   4.342   5.178   6.951 -0.0945 -0.0605  0.4033
   11MOL     C1 4421   3.859   3.048   3.968  0.0002 -0.1800  0.2542
   11MOL     C2 4422   3.837   3.199   3.995 -0.2388  0.0553 -0.3852
   11MOL     C3 4423   3.921   3.243   4.118 -1.1221 -0.5888  0.0931
   11MOL     C4 4424   3.908   3.394   4.161  0.2412  0.1302  0.3511
   11MOL     C5 4425   3.762   3.439   4.171 -0.2189  0.3480 -0.0208
   11MOL     C6 4426   3.671   3.383   4.067  0.3235 -0.1213 -0.1711
   11MOL     C7 4427   3.694   3.231   4.038 -0.5388  1.1601  0.6029
   11MOL     C8 4428   3.773   2.997   3.856 -0.0782  0.2507 -0.3250
   11MOL     H9 4429   3.963   3.030   3.941  0.4376 -0.6518  2.1894
   11MOL    H10 4430   3.854   3.255   3.903  1.9133  2.5060  1.4179
   11MOL    H11 4431   3.900   3.171   4.196 -0.6934 -1.2534 -0.3997
   11MOL    H12 4432   4.026   3.225   4.096 -1.3674 -1.9796  0.0509
   11MOL    H13 4433   3.953   3.459   4.086  0.3747 -1.9307 -1.3893
   11MOL    H14 4434   3.967   3.429   4.246 -0.1152  1.5886  0.0024
   11MOL    H15 4435   3.755   3.546   4.149  2.0366  0.4155 -0.4752
   11MOL    H16 4436   3.722   3.424   4.271  2.7630 -2.1972  0.8519
   11MOL    H17 4437   3.567   3.409   4.088  0.0893 -2.9642  2.4643
   11MOL    H18 4438   3.703   3.419   3.969  0.0204  0.7918  0.0571
   11MOL    H19 4439   3.623   3.210   3.958  1.9032  2.3404 -1.9669
   11MOL    H20 4440   3.665   3.176   4.128 -1.0779  1.8580  0.8632
   11MOL    H21 4441   3.784   3.064   3.771  2.4926  1.0556  0.6077
   11MOL    H22 4442   3.673   3.003   3.900  1.0909 -3.6296  3.2422
   11MOL    H23 4443   3.829   2.988   4.054  0.1485 -3.0064 -1.6125
   11MOL    C24 4444   3.798   2.851   3.807  0.5745 -0.3741  1.3259
   11MOL    C25 4445   3.672   2.786   3.732 -0.3806 -0.5892 -0.6135
   11MOL    C26 4446   3.599   2.883   3.632 -0.9321  0.4253 -0.5533
   11MOL    C27 4447   3.481   2.812   3.565 -0.2372  0.4641 -0.5566
   11MOL    C28 4448   3.375   2.765   3.661  0.4264 -0.2004 -0.1561
   11MOL    C29 4449   3.446   2.676   3.766  0.2642  0.2364 -0.1123
   11MOL    C30 4450   3.570   2.738   3.835  0.0453 -0.3626 -0.1821
   11MOL    C31 4451   3.928   2.841   3.714  0.3844  0.1750 -0.7355
   11MOL    H32 4452   3.817   2.786   3.893 -2.1780 -1.4055  1.2019
   11MOL    H33 4453   3.709   2.698   3.680  0.2000 -2.0073  2.1491
   11MOL    H34 4454   3.665   2.929   3.558  0.0706 -0.6662 -0.3694
   11MOL    H35 4455   3.568   2.961   3.701 -0.0844 -0.1612  0.5154
   11MOL    H36 4456   3.432   2.876   3.492 -0.2358  2.3944  1.0970
   11MOL    H37 4457   3.517   2.724   3.511 -1.2946 -0.1623 -0.2662
   11MOL    H38 4458   3.294   2.711   3.613 -1.4107  0.8981  1.6456
   11MOL    H39 4459   3.329   2.847   3.717  0.5957  1.2750 -2.0992
   11MOL    H40 4460   3.357   2.652   3.825  0.0839 -0.7865 -0.7730
   11MOL    H41 4461   3.471   2.583   3.714  0.3898 -0.3959  1.0656
   11MOL    H42 4462   3.533   2.827   3.886  1.8224  1.1103 -1.4257
   11MOL    H43 4463   3.610   2.668   3.907  0.8660  2.0636  1.7785
   11MOL    H44 4464   3.978   2.939   3.712  0.5948  0.0746 -0.4324
   11MOL    H45 4465   3.891   2.836   3.612 -1.6602  0.3212 -0.0256
   11MOL    C46 4466   4.030   2.730   3.752 -0.0595  0.4206 -0.2514
   11MOL    C47 4467   4.173   2.766   3.724 -0.2578 -0.4599  0.4636
   11MOL    C48 4468   4.230   2.860   3.830  0.1856 -0.0989  0.6379
   11MOL    C49 4469   4.372   2.910   3.806  0.1448  0.5021  0.9223
   11MOL    C50 4470   4.370   2.982   3.661  0.0448  0.5296  0.4368
   11MOL    C51 4471   4.336   2.872   3.558 -1.3207  0.1220 -0.3606
   11MOL    C52 4472   4.196   2.820   3.580 -0.4290  0.0559 -0.6610
   11MOL    C53 4473   3.989   2.592   3.693  0.4113  0.0084  0.0643
   11MOL    H54 4474   4.032   2.731   3.861  6.5993 -1.2482 -0.1306
   11MOL    H55 4475   4.230   2.674   3.739  1.3524  0.4436 -0.0345
   11MOL    H56 4476   4.169   2.950   3.818 -1.1546 -1.2329 -1.3392
   11MOL    H57 4477   4.211   2.824   3.931 -1.7561 -0.1555  0.2606
   11MOL    H58 4478   4.448   2.834   3.793  0.7521  1.2340  0.1415
   11MOL    H59 4479   4.407   2.981   3.881 -0.2824  1.8572 -0.1433
   11MOL    H60 4480   4.306   3.069   3.647  0.3469  0.5865 -0.6338
   11MOL    H61 4481   4.468   3.027   3.643 -0.2584  1.9285  2.1121
   11MOL    H62 4482   4.408   2.790   3.568 -0.9304  0.3572 -1.2481
   11MOL    H63 4483   4.358   2.930   3.468  2.5820  0.2695  0.6025
   11MOL    H64 4484   4.127   2.902   3.558  0.0416  0.9566  1.0754
   11MOL    H65 4485   4.172   2.746   3.504 -1.6156  1.1894 -1.4091
   11MOL    H66 4486   4.012   2.597   3.586 -1.0586 -0.3706 -0.2911
   11MOL    H67 4487   3.880   2.582   3.691  0.6155 -2.2008 -2.3093
   11MOL    C68 4488   4.054   2.467   3.750 -0.5007  0.1987  0.2659
   11MOL    C69 4489   4.017   2.456   3.902 -0.2005 -0.1438 -0.4406
   11MOL    C70 4490   3.873   2.483   3.937 -0.5208 -0.1963  0.4959
   11MOL    C71 4491   3.855   2.497   4.092  0.2444  0.2100 -0.0745
   11MOL    C72 4492   3.904   2.370   4.167 -0.4519 -0.0676  0.7153
   11MOL    C73 4493   4.052   2.346   4.138  0.3802 -0.3220 -0.4437
   11MOL    C74 4494   4.077   2.340   3.985 -0.3190 -0.1346 -0.5078
   11MOL    C75 4495   4.025   2.337   3.672 -0.4225  0.2180 -0.1136
   11MOL    H76 4496   4.162   2.480   3.743 -0.2566 -1.5437  0.4596
   11MOL    H77 4497   4.062   2.547   3.942  0.0586 -0.2712 -0.4418
   11MOL    H78 4498   3.797   2.412   3.906 -1.6144  1.0911  0.1597
   11MOL    H79 4499   3.833   2.578   3.900  1.2189  0.3254 -0.1320
   11MOL    H80 4500   3.904   2.588   4.129 -0.9040  0.2965  1.2936
   11MOL    H81 4501   3.753   2.512   4.127  0.6786  0.9469  0.9180
   11MOL    H82 4502   3.846   2.281   4.141 -1.6398  0.8865  0.0440
   11MOL    H83 4503   3.881   2.375   4.274 -1.5982 -0.5628  0.5059
   11MOL    H84 4504   4.094   2.265   4.198 -1.2167 -0.2496  0.8039
   11MOL    H85 4505   4.101   2.441   4.162 -1.7119  0.8553 -0.6599
   11MOL    H86 4506   4.042   2.243   3.950 -3.1490  0.8170 -0.3971
   11MOL    H87 4507   4.184   2.337   3.961 -0.7544 -0.9735 -2.4210
   11MOL    H88 4508   4.076   2.259   3.730 -0.1983 -0.7428 -1.5565
   11MOL    H89 4509   3.917   2.320   3.674 -0.0099 -2.9989 -0.9678
   11MOL    C90 4510   4.054   2.326   3.522  0.0275 -0.3954  0.3876
   11MOL    C91 4511   4.194   2.385   3.474  0.4900  0.2571  0.0538
   11MOL    C92 4512   4.317   2.292   3.476  0.0275  0.3865  0.3210
   11MOL    C93 4513   4.459   2.356   3.442  0.1339 -0.5717 -0.2710
   11MOL    C94 4514   4.437   2.446   3.312  0.0235 -0.0224  1.0724
   11MOL    C95 4515   4.325   2.549   3.326  0.1181 -0.0762  0.8742
   11MOL    C96 4516   4.192   2.473   3.342 -0.0810 -0.5532  0.3859
   11MOL    C97 4517   4.039   2.184   3.471 -0.3738  0.7555 -0.1244
   11MOL    H98 4518   3.990   2.395   3.467 -1.2558 -0.4091  1.8355
   11MOL    H99 4519   4.221   2.463   3.546  1.1311 -0.9286  1.1215
   11MOL   H100 4520   4.298   2.225   3.392  1.4706  1.6525 -1.0483
   11MOL   H101 4521   4.320   2.234   3.568 -1.7650  1.5665  1.1328
   11MOL   H102 4522   4.533   2.279   3.421 -0.2702 -0.8591 -0.6367
   11MOL   H103 4523   4.485   2.417   3.529 -2.3875  0.0753  0.0738
   11MOL   H104 4524   4.417   2.389   3.221 -1.2647  1.3442  0.4835
   11MOL   H105 4525   4.524   2.508   3.289  0.1219  0.3292  2.3368
   11MOL   H106 4526   4.352   2.618   3.406  3.2539  1.1640 -1.1350
   11MOL   H107 4527   4.330   2.619   3.243 -1.6875  0.1259  0.9216
   11MOL   H108 4528   4.107   2.541   3.338 -0.8544 -1.5927 -1.4693
   11MOL   H109 4529   4.179   2.405   3.258  1.6258  0.5394 -0.7939
   11MOL   H110 4530   4.122   2.118   3.498  0.0772  0.0800 -2.9348
   11MOL   H111 4531   3.957   2.139   3.526  2.2674 -3.3029  0.7109
   11MOL   C112 4532   4.010   2.158   3.315  0.0590 -0.5245  0.2059
   11MOL   C113 4533   3.857   2.196   3.285  0.2073 -0.0070 -0.3117
   11MOL   C114 4534   3.751   2.088   3.329 -0.5228  0.8055  0.1866
   11MOL   C115 4535   3.602   2.118   3.292  0.8445  0.5063  0.2093
   11MOL   C116 4536   3.582   2.141   3.137  0.5023  0.0980 -0.2368
   11MOL   C117 4537   3.680   2.262   3.099 -0.2374  0.7501 -0.2273
   11MOL   C118 4538   3.825   2.229   3.138 -0.0933 -0.0815  0.5653
   11MOL   C119 4539   4.033   2.010   3.268  0.0013  0.1311 -0.4292
   11MOL   H120 4540   4.078   2.216   3.252  1.9652 -3.3413 -0.4376
   11MOL   H121 4541   3.825   2.285   3.340  0.5528 -0.3289  0.4322
   11MOL   H122 4542   3.757   2.086   3.437  0.1754  1.4018  0.1620
   11MOL   H123 4543   3.772   1.986   3.296 -0.7665  1.0834 -0.8468
   11MOL   H124 4544   3.532   2.037   3.315  0.4484  0.6879 -0.3514
   11MOL   H125 4545   3.552   2.199   3.344 -2.9581  0.5054 -3.2333
   11MOL   H126 4546   3.602   2.058   3.068  2.7703  1.0137 -0.7155
   11MOL   H127 4547   3.477   2.163   3.117  0.5245 -0.0012 -0.4686
   11MOL   H128 4548   3.676   2.273   2.990 -0.2899 -0.7129 -0.3882
   11MOL   H129 4549   3.651   2.360   3.136 -2.5697  0.0831 -0.1986
   11MOL   H130 4550   3.885   2.313   3.103 -0.0718 -1.2533 -2.3867
   11MOL   H131 4551   3.875   2.156   3.074 -1.0582 -0.3708  0.1363
   11MOL   H132 4552   3.995   1.995   3.167  1.3268 -0.4838 -0.8412
   11MOL   H133 4553   3.970   1.947   3.330  1.1275 -1.4835 -0.9166
   11MOL   C134 4554   4.175   1.953   3.284  0.6828  0.3286 -1.0322
   11MOL   C135 4555   4.286   2.011   3.192  0.0036 -0.4666  0.2210
   11MOL   C136 4556   4.274   1.959   3.047 -0.4836 -0.9435  0.2754
   11MOL   C137 4557   4.390   1.989   2.961 -0.1721  1.1429  0.3844
   11MOL   C138 4558   4.526   1.949   3.022 -0.1675  0.3354  0.3543
   11MOL   C139 4559   4.535   2.029   3.151 -0.4894 -0.1125  0.3741
   11MOL   C140 4560   4.424   1.987   3.248 -0.5642  0.0424  0.7880
   11MOL   C141 4561   4.169   1.803   3.292  0.2335 -0.3796  0.0175
   11MOL   H142 4562   4.213   1.983   3.382  0.6832  0.2424 -1.0064
   11MOL   H143 4563   4.267   2.117   3.176  0.0691 -0.6039 -0.7996
   11MOL   H144 4564   4.276   1.852   3.063 -1.8701 -1.1437 -0.8453
   11MOL   H145 4565   4.182   1.991   2.999 -0.1755  0.7567  0.7794
   11MOL   H146 4566   4.400   2.094   2.931  0.6963  0.6607 -1.0577
   11MOL   H147 4567   4.374   1.945   2.863  1.3150  1.4463 -0.0009
   11MOL   H148 4568   4.533   1.844   3.048 -0.4110  0.3975  0.6750
   11MOL   H149 4569   4.615   1.977   2.966 -0.6687  0.0518 -0.6004
   11MOL   H150 4570   4.534   2.137   3.143  1.1616 -0.0324  1.1781
   11MOL   H151 4571   4.623   2.009   3.212 -0.5851  4.0646  2.0173
   11MOL   H152 4572   4.442   1.882   3.267 -0.1572  0.4373  2.7206
   11MOL   H153 4573   4.433   2.047   3.339  0.0306  1.4908 -0.1949
   11MOL   H154 4574   4.270   1.769   3.270  0.3428 -0.4742  0.6442
   11MOL   H155 4575   4.111   1.769   3.207  2.7524 -1.6427 -1.2668
   11MOL   C156 4576   4.123   1.740   3.428 -0.4793 -0.5478  0.7139
   11MOL   C157 4577   4.237   1.718   3.530  0.1784  0.9525  1.0495
   11MOL   C158 4578   4.359   1.644   3.479  0.7245  0.5140 -0.2905
   11MOL   C159 4579   4.451   1.602   3.596 -0.3838 -0.3804 -0.3267
   11MOL   C160 4580   4.510   1.720   3.677  0.6292  0.2554  0.0240
   11MOL   C161 4581   4.389   1.801   3.727  0.2544 -0.2251  0.4645
   11MOL   C162 4582   4.300   1.841   3.604 -0.3373 -0.1162  0.1599
   11MOL   C163 4583   4.035   1.619   3.396  0.3215 -0.1003  0.2910
   11MOL   H164 4584   4.050   1.813   3.464  2.3438  3.0112 -0.4172
   11MOL   H165 4585   4.198   1.660   3.613 -1.5545  0.1534 -0.3150
   11MOL   H166 4586   4.330   1.559   3.418 -0.9909 -0.6356  2.0527
   11MOL   H167 4587   4.417   1.708   3.413  1.9744 -2.1074 -1.8217
   11MOL   H168 4588   4.399   1.533   3.663  0.3856  1.1189  1.8859
   11MOL   H169 4589   4.539   1.542   3.573 -1.1721 -1.6802 -0.0022
   11MOL   H170 4590   4.566   1.792   3.617 -1.2030  1.3228 -0.4489
   11MOL   H171 4591   4.571   1.694   3.763 -0.9780  1.1570  1.4614
   11MOL   H172 4592   4.410   1.891   3.785 -1.6451  0.6048 -0.0816
   11MOL   H173 4593   4.332   1.734   3.791  0.6528 -0.6955  0.3263
   11MOL   H174 4594   4.222   1.912   3.631  1.2131  2.6278 -2.3332
   11MOL   H175 4595   4.356   1.901   3.533 -0.6363  0.7477  0.6550
   11MOL   H176 4596   4.110   1.548   3.363  0.1275 -1.3788  2.4454
   11MOL   H177 4597   3.967   1.651   3.317 -1.1705 -0.7024  1.3059
   11MOL   C178 4598   3.960   1.551   3.515 -0.2571 -0.1922 -1.2764
   11MOL   C179 4599   3.854   1.642   3.576 -0.1894 -0.4327  0.7649
   11MOL   C180 4600   3.806   1.604   3.717 -0.8099  0.1456 -0.3831
   11MOL   C181 4601   3.709   1.702   3.778  0.0771 -0.0005 -0.2723
   11MOL   C182 4602   3.589   1.726   3.695 -0.7795 -0.8379 -0.4502
   11MOL   C183 4603   3.631   1.756   3.550  0.3551  0.0278  0.1330
   11MOL   C184 4604   3.726   1.652   3.492  0.5979  0.6518 -0.1714
   11MOL   C185 4605   3.900   1.414   3.469 -0.0966  0.6530 -0.7064
   11MOL   H186 4606   4.043   1.521   3.579 -1.2813  0.7789  0.5588
   11MOL   H187 4607   3.892   1.742   3.595 -1.1031  0.5294 -2.1737
   11MOL   H188 4608   3.774   1.501   3.708  1.3205 -0.7277  1.5573
   11MOL   H189 4609   3.894   1.606   3.782 -1.0630 -0.5361 -0.0238
   11MOL   H190 4610   3.765   1.796   3.784 -2.1204  1.5400 -2.7738
   11MOL   H191 4611   3.688   1.663   3.878  0.6524  0.4281  0.0172
   11MOL   H192 4612   3.529   1.635   3.690  0.2446 -1.7117  2.4161
   11MOL   H193 4613   3.514   1.793   3.736 -1.3916 -2.0498  0.4563
   11MOL   H194 4614   3.678   1.854   3.539 -0.2374  0.5021  1.7933
   11MOL   H195 4615   3.537   1.762   3.495 -0.0377  0.4468  0.8575
   11MOL   H196 4616   3.677   1.555   3.484  0.6361  0.4882  1.4555
   11MOL   H197 4617   3.747   1.680   3.389  2.6389  1.8833  0.5557
   11MOL   H198 4618   3.854   1.363   3.553  0.3634  0.4417 -0.5788
   11MOL   H199 4619   3.827   1.433   3.390  0.5091 -2.1710 -2.0262
   11MOL   C200 4620   3.994   1.311   3.408 -0.4191 -0.0934  0.2900
   11MOL   C201 4621   4.128   1.294   3.482  0.0295  0.6124  0.3262
   11MOL   C202 4622   4.114   1.251   3.630 -0.0708  0.5669 -0.3756
   11MOL   C203 4623   4.252   1.252   3.694  0.5835 -0.3945  0.6068
   11MOL   C204 4624   4.346   1.139   3.632 -0.9067 -0.6919  0.6088
   11MOL   C205 4625   4.352   1.164   3.478  0.0412 -0.2254 -0.0201
   11MOL   C206 4626   4.220   1.185   3.403 -0.0115  0.1427 -0.0361
   11MOL   C207 4627   3.917   1.177   3.367  0.0518 -0.6132 -0.4993
   11MOL   H208 4628   4.022   1.359   3.314 -0.0394 -1.0512 -0.0988
   11MOL   H209 4629   4.186   1.386   3.483 -0.1998  0.7619 -0.1519
   11MOL   H210 4630   4.071   1.151   3.636  1.5059 -0.1413 -0.4026
   11MOL   H211 4631   4.054   1.320   3.688 -4.2226 -1.2830 -2.2431
   11MOL   H212 4632   4.299   1.349   3.679  0.1087  0.0865  2.1845
   11MOL   H213 4633   4.247   1.232   3.801  0.3524 -2.8909  0.1719
   11MOL   H214 4634   4.445   1.142   3.677 -0.4599 -2.4192 -0.1847
   11MOL   H215 4635   4.300   1.045   3.663  0.4492 -0.9686  1.8163
   11MOL   H216 4636   4.414   1.248   3.450  0.1925  0.6746  2.8303
   11MOL   H217 4637   4.389   1.076   3.425  1.2104 -0.7568  1.6340
   11MOL   H218 4638   4.234   1.218   3.300  1.8570 -1.2724 -0.2606
   11MOL   H219 4639   4.165   1.092   3.420  0.1864  0.0018 -0.1738
   11MOL   H220 4640   3.981   1.111   3.308  2.6749  1.1311  0.2840
   11MOL   H221 4641   3.918   1.119   3.460  1.4250 -2.9714 -1.9326
   11MOL   C222 4642   3.780   1.195   3.291  0.0957 -0.7090 -0.4001
   11MOL   C223 4643   3.806   1.282   3.163 -0.4348 -0.5523 -0.4807
   11MOL   C224 4644   3.669   1.338   3.119  0.3586  0.0939 -0.5025
   11MOL   C225 4645   3.685   1.452   3.025 -0.0212  0.1849 -0.2441
   11MOL   C226 4646   3.765   1.402   2.900  1.0300  0.0840  0.1392
   11MOL   C227 4647   3.895   1.334   2.932 -0.6218  0.2049 -0.1548
   11MOL   C228 4648   3.879   1.225   3.043  0.2386  0.7412 -0.0075
   11MOL   C229 4649   3.721   1.049   3.256 -0.0470 -0.2708  0.0015
   11MOL   H230 4650   3.707   1.244   3.356 -1.1662 -1.6508 -1.0805
   11MOL   H231 4651   3.859   1.372   3.193 -0.7129 -1.1276  1.8862
   11MOL   H232 4652   3.602   1.267   3.070 -2.1527  1.6171  0.6057
   11MOL   H233 4653   3.603   1.370   3.200 -1.2737  0.6223 -1.9950
   11MOL   H234 4654   3.743   1.525   3.081  1.6133 -0.4179 -1.1252
   11MOL   H235 4655   3.585   1.491   3.003 -1.6189 -2.1857  2.4047
   11MOL   H236 4656   3.700   1.329   2.850 -0.4218  1.2791  0.2441
   11MOL   H237 4657   3.786   1.481   2.829 -0.9243 -0.1689 -0.7565
   11MOL   H238 4658   3.955   1.411   2.980 -0.9845  0.6552 -0.4282
   11MOL   H239 4659   3.946   1.294   2.845 -1.3957 -1.4059  0.1108
   11MOL   H240 4660   3.843   1.129   3.007 -0.1055  0.7876  0.2133
   11MOL   H241 4661   3.978   1.191   3.075  0.0373 -0.2014 -0.3925
   11MOL   H242 4662   3.800   0.999   3.201 -1.7978 -2.2432 -0.7453
   11MOL   H243 4663   3.634   1.076   3.197 -1.0410 -0.6217  1.2760
   11MOL   C244 4664   3.664   0.953   3.359  0.2216 -0.3545 -0.7298
   11MOL   C245 4665   3.678   0.802   3.330  0.4415  0.0577 -0.3368
   11MOL   C246 4666   3.819   0.757   3.328  0.2267  0.0162  0.1565
   11MOL   C247 4667   3.822   0.610   3.312 -0.4741 -0.1905  0.8310
   11MOL   C248 4668   3.762   0.567   3.175 -0.7329 -0.8743  0.1230
   11MOL   C249 4669   3.615   0.613   3.162 -0.1037 -0.0069  0.3476
   11MOL   C250 4670   3.605   0.765   3.197  0.4038  0.2094 -0.5725
   11MOL   C251 4671   3.521   0.985   3.418 -0.1978  0.3243  0.4660
   11MOL   H252 4672   3.720   0.979   3.448 -2.8094  1.1558  0.7992
   11MOL   H253 4673   3.628   0.752   3.413  1.7933  1.8194  1.6173
   11MOL   H254 4674   3.863   0.771   3.427 -2.1704 -1.1315  1.4058
   11MOL   H255 4675   3.871   0.802   3.243 -0.5124  0.6613  0.0403
   11MOL   H256 4676   3.928   0.586   3.316 -0.6494 -0.9594  1.0721
   11MOL   H257 4677   3.780   0.555   3.396  2.2660  0.1869  2.4840
   11MOL   H258 4678   3.830   0.602   3.098 -0.3069  1.1375  1.3783
   11MOL   H259 4679   3.774   0.458   3.180 -0.9561 -0.8438  1.5711
   11MOL   H260 4680   3.561   0.556   3.237  0.8271 -2.9359 -1.1185
   11MOL   H261 4681   3.564   0.592   3.068  0.8492  0.7476 -0.3602
   11MOL   H262 4682   3.637   0.824   3.110 -1.2131 -1.6469 -2.4627
   11MOL   H263 4683   3.498   0.780   3.203  0.2915 -0.4204 -0.9845
   11MOL   H264 4684   3.475   0.887   3.430  0.0068 -0.0350 -1.5183
   11MOL   H265 4685   3.454   1.033   3.346 -1.4046 -0.5488  0.9866
   11MOL   C266 4686   3.504   1.059   3.555 -0.6336 -0.7869 -0.4383
   11MOL   C267 4687   3.378   1.154   3.559 -0.7277  0.6675 -0.1721
   11MOL   C268 4688   3.248   1.080   3.530  0.5848 -0.2632 -0.0272
   11MOL   C269 4689   3.125   1.181   3.534 -0.6912 -0.1145 -0.3768
   11MOL   C270 4690   3.146   1.307   3.449  0.0210  0.7888 -0.2312
   11MOL   C271 4691   3.273   1.380   3.495 -1.5310 -0.2028 -0.5168
   11MOL   C272 4692   3.394   1.288   3.475 -0.5719  0.7189  0.4047
   11MOL   C273 4693   3.503   0.953   3.669 -0.4515 -0.5974 -0.3808
   11MOL   H274 4694   3.589   1.127   3.562 -0.4117 -1.2855  1.9827
   11MOL   H275 4695   3.364   1.186   3.662  0.7540  2.2386 -0.4311
   11MOL   H276 4696   3.269   1.031   3.435  2.5152  1.0416 -0.3021
   11MOL   H277 4697   3.235   0.998   3.600 -1.1392 -0.6086 -0.7101
   11MOL   H278 4698   3.101   1.213   3.636  2.6735  0.6929  0.2197
   11MOL   H279 4699   3.042   1.118   3.504  0.6248 -2.5577  0.9088
   11MOL   H280 4700   3.160   1.281   3.344  0.1467  0.0939 -0.0448
   11MOL   H281 4701   3.056   1.368   3.460  0.1701  0.9894 -0.1125
   11MOL   H282 4702   3.273   1.419   3.597 -0.2263 -0.1052 -0.5432
   11MOL   H283 4703   3.290   1.475   3.444 -3.4443 -0.0799 -0.9818
   11MOL   H284 4704   3.490   1.333   3.500 -0.0173  0.6981 -1.6143
   11MOL   H285 4705   3.407   1.265   3.370 -1.8498  3.1126 -0.3064
   11MOL   H286 4706   3.570   0.870   3.647 -1.4947 -0.8121 -2.7868
   11MOL   H287 4707   3.408   0.900   3.675 -1.0900  0.5175 -0.5631
   11MOL   C288 4708   3.523   1.013   3.817 -0.1147 -0.3189  0.2222
   11MOL   C289 4709   3.671   1.049   3.852  0.0008 -0.3104  0.2254
   11MOL   C290 4710   3.690   1.137   3.973 -0.2332 -0.5200 -0.6400
   11MOL   C291 4711   3.833   1.167   4.013 -0.8985  0.6602  0.2328
   11MOL   C292 4712   3.914   1.034   4.023 -0.6675  0.4717  0.3475
   11MOL   C293 4713   3.903   0.947   3.897 -0.2235 -0.2655  0.5726
   11MOL   C294 4714   3.755   0.922   3.868  0.3841  0.6050 -0.4255
   11MOL   C295 4715   3.462   0.917   3.926  0.3159 -0.6512  0.7010
   11MOL   H296 4716   3.467   1.106   3.824  2.3308  1.1828  0.5247
   11MOL   H297 4717   3.706   1.105   3.765 -1.5192 -1.7490 -1.3427
   11MOL   H298 4718   3.638   1.229   3.946 -0.5436 -0.3144  0.6162
   11MOL   H299 4719   3.631   1.103   4.058 -0.9827  1.1744 -0.4660
   11MOL   H300 4720   3.865   1.220   3.923  0.2395 -1.5956 -0.7611
   11MOL   H301 4721   3.841   1.233   4.099  1.9182  0.4031  0.2383
   11MOL   H302 4722   3.894   0.980   4.116 -0.2907 -0.7046 -0.2474
   11MOL   H303 4723   4.019   1.060   4.030 -0.1001 -2.0772  1.7183
   11MOL   H304 4724   3.952   0.854   3.926 -1.4991 -0.5047  2.0116
   11MOL   H305 4725   3.952   0.996   3.813 -0.9227  1.0169  0.9065
   11MOL   H306 4726   3.708   0.854   3.938 -2.1586  1.0115 -1.6789
   11MOL   H307 4727   3.747   0.870   3.773  0.7211 -0.5298  0.1657
   11MOL   H308 4728   3.496   0.816   3.904  1.5056  0.1300 -1.2040
   11MOL   H309 4729   3.507   0.940   4.023  2.6523 -0.1514 -0.4543
   11MOL   C310 4730   3.305   0.906   3.941  0.3682 -0.2250 -0.5166
   11MOL   C311 4731   3.275   0.775   4.027 -0.3534 -0.4007  0.3490
   11MOL   C312 4732   3.320   0.644   3.953 -0.5534 -0.1949  0.3489
   11MOL   C313 4733   3.263   0.526   4.031 -0.7187  0.9112  0.5305
   11MOL   C314 4734   3.302   0.529   4.177  0.1950 -0.1528  0.0330
   11MOL   C315 4735   3.255   0.660   4.251 -0.1482 -0.7813 -0.2209
   11MOL   C316 4736   3.311   0.786   4.173 -0.1195  0.3493  0.0068
   11MOL   C317 4737   3.234   1.028   3.996 -0.3206 -0.3278  0.0115
   11MOL   H318 4738   3.272   0.867   3.845 -0.3814 -0.9862  0.0403
   11MOL   H319 4739   3.166   0.769   4.037 -0.4962  1.4812  0.1974
   11MOL   H320 4740   3.299   0.629   3.847  0.1396  0.5343  0.1044
   11MOL   H321 4741   3.428   0.631   3.959 -0.7503 -1.6082  1.0929
   11MOL   H322 4742   3.299   0.440   3.975 -0.0373  0.5482  1.5304
   11MOL   H323 4743   3.154   0.516   4.026 -0.5874 -0.9494  0.9229
   11MOL   H324 4744   3.251   0.446   4.225  1.3411 -0.6094  0.4854
   11MOL   H325 4745   3.408   0.507   4.192  0.0834  0.7347  2.3601
   11MOL   H326 4746   3.146   0.664   4.251 -0.1479 -0.2000 -2.8908
   11MOL   H327 4747   3.291   0.651   4.354 -0.0071  1.2402 -0.0776
   11MOL   H328 4748   3.417   0.791   4.197  0.1141 -1.4512 -0.6243
   11MOL   H329 4749   3.271   0.876   4.222 -2.7633 -0.9039  0.2379
   11MOL   H330 4750   3.301   1.111   3.974 -0.3163 -0.2286  0.4008
   11MOL   H331 4751   3.221   1.030   4.104 -0.4379  1.9986 -0.0210
   11MOL   C332 4752   3.095   1.056   3.924 -0.7084 -0.5001  0.2479
   11MOL   C333 4753   3.031   1.198   3.959  0.5252  0.4068 -0.6892
   11MOL   C334 4754   3.120   1.318   3.935 -0.0058  0.1318 -0.2719
   11MOL   C335 4755   3.042   1.449   3.950 -0.2310 -0.5457 -0.1721
   11MOL   C336 4756   2.979   1.458   4.086 -0.3251  0.1924 -0.0522
   11MOL   C337 4757   2.892   1.334   4.119  0.5534 -0.2917  0.0468
   11MOL   C338 4758   2.977   1.219   4.100  0.6504  0.1234  0.5639
   11MOL   C339 4759   2.999   0.928   3.935 -0.2404  0.8748  0.4195
   11MOL   H340 4760   3.115   1.053   3.817 -1.6968 -0.3374  0.0549
   11MOL   H341 4761   2.949   1.200   3.887 -1.1907  0.7275  1.2236
   11MOL   H342 4762   3.201   1.303   4.007 -1.4362  1.3727  1.6561
   11MOL   H343 4763   3.164   1.306   3.836  0.5313  0.0650 -0.0268
   11MOL   H344 4764   3.097   1.542   3.939  0.1599 -0.7540  0.0219
   11MOL   H345 4765   2.958   1.447   3.880  1.8025 -0.4224 -2.6730
   11MOL   H346 4766   3.061   1.472   4.155 -0.5740 -0.9033  0.4606
   11MOL   H347 4767   2.912   1.544   4.099  0.0222  0.3275  0.8434
   11MOL   H348 4768   2.808   1.336   4.050 -0.0721  2.5739  0.8260
   11MOL   H349 4769   2.858   1.338   4.222  2.4512 -0.0797  0.6958
   11MOL   H350 4770   2.915   1.132   4.123 -0.9599  1.0015 -0.3805
   11MOL   H351 4771   3.062   1.212   4.168  2.4004  1.6844 -1.4125
   11MOL   H352 4772   3.006   0.907   4.041  0.8852 -0.4220  0.0889
   11MOL   H353 4773   3.046   0.850   3.875 -0.9953  1.2350 -0.6577
   11MOL   C354 4774   2.849   0.953   3.902  0.0922  0.6705  0.0008
   11MOL   C355 4775   2.760   0.827   3.940 -0.7122 -0.0496  0.1764
   11MOL   C356 4776   2.759   0.815   4.094  0.0799  0.3204 -0.9713
   11MOL   C357 4777   2.669   0.695   4.127 -0.6140  0.0590  0.0649
   11MOL   C358 4778   2.728   0.573   4.075  0.5330  0.0906  0.2885
   11MOL   C359 4779   2.731   0.578   3.923  0.6445  0.1182 -0.2092
   11MOL   C360 4780   2.794   0.698   3.872  0.5220  0.0369  0.0148
   11MOL   C361 4781   2.833   0.989   3.751 -0.2060  0.2687  0.6243
   11MOL   H362 4782   2.803   1.035   3.958  0.1426 -0.3388  1.5595
   11MOL   H363 4783   2.657   0.842   3.908 -1.1785 -0.0630  1.6465
   11MOL   H364 4784   2.726   0.911   4.134 -3.3235 -1.1944  0.0182
   11MOL   H365 4785   2.856   0.785   4.134 -0.9822  0.0295  1.4820
   11MOL   H366 4786   2.662   0.692   4.236  0.1531  2.6360  0.2036
   11MOL   H367 4787   2.571   0.716   4.083 -0.1847 -0.7658 -1.3109
   11MOL   H368 4788   2.828   0.551   4.112  0.5706 -0.2204 -0.0017
   11MOL   H369 4789   2.665   0.490   4.109 -1.4431  1.2361 -0.4905
   11MOL   H370 4790   2.784   0.493   3.881  2.4259  0.2140  1.7966
   11MOL   H371 4791   2.629   0.572   3.883 -0.5044 -1.5550  2.8319
   11MOL   H372 4792   2.774   0.709   3.765 -1.8237  0.1534  0.4463
   11MOL   H373 4793   2.898   0.664   3.877  0.1447 -0.9873  0.9039
   11MOL   H374 4794   2.874   0.900   3.702  1.9381  0.7804  1.4556
   11MOL   H375 4795   2.908   1.060   3.718  0.4025 -0.0121  1.3928
   11MOL   C376 4796   2.697   1.037   3.698  0.5043 -0.6865 -0.5128
   11MOL   C377 4797   2.653   1.175   3.766 -0.9082 -0.6550 -0.6656
   11MOL   C378 4798   2.500   1.198   3.752  0.0536  0.2362 -0.6402
   11MOL   C379 4799   2.449   1.325   3.827 -0.4230 -0.0293 -0.3455
   11MOL   C380 4800   2.525   1.456   3.785  0.4719 -0.3087 -0.4460
   11MOL   C381 4801   2.678   1.432   3.791  0.0997  0.4301  0.7307
   11MOL   C382 4802   2.718   1.304   3.715 -0.6999 -0.3961 -0.0301
   11MOL   C383 4803   2.703   1.051   3.542 -0.3794 -0.3477  0.8385
   11MOL   H384 4804   2.607   0.978   3.710 -0.2534  0.8469  1.6913
   11MOL   H385 4805   2.669   1.168   3.874  0.0892 -0.8738 -0.8224
   11MOL   H386 4806   2.470   1.208   3.648  2.6401  0.8673 -1.3706
   11MOL   H387 4807   2.449   1.109   3.789  3.1895 -0.7166  1.6872
   11MOL   H388 4808   2.454   1.318   3.935 -0.6055  0.1531 -0.3239
   11MOL   H389 4809   2.348   1.327   3.785 -1.1429 -0.8504  1.3437
   11MOL   H390 4810   2.494   1.478   3.683 -0.6895  0.6105  0.0836
   11MOL   H391 4811   2.494   1.543   3.843  1.5287  0.3735 -0.8880
   11MOL   H392 4812   2.739   1.514   3.751  2.1557 -1.5845 -0.3703
   11MOL   H393 4813   2.721   1.423   3.890 -0.2265 -0.1074  0.8235
   11MOL   H394 4814   2.691   1.319   3.610  0.4254 -0.9313 -0.4086
   11MOL   H395 4815   2.825   1.285   3.715 -0.5633  0.3594  1.1664
   11MOL   H396 4816   2.797   1.095   3.510 -0.5921  0.3475  1.1693
   11MOL   H397 4817   2.625   1.116   3.502 -0.4875 -1.9354 -1.6315
   11MOL   C398 4818   2.677   0.917   3.458  0.4750 -0.0473 -0.1799
   11MOL   C399 4819   2.535   0.848   3.480 -0.1172  0.2392  0.1580
   11MOL   C400 4820   2.415   0.922   3.418  0.2471 -0.3304 -0.3825
   11MOL   C401 4821   2.287   0.857   3.469  0.3403  0.3555  0.4375
   11MOL   C402 4822   2.278   0.710   3.438  0.2732 -0.7780 -0.4743
   11MOL   C403 4823   2.390   0.629   3.490  0.0531 -0.2104 -0.1659
   11MOL   C404 4824   2.526   0.694   3.442 -0.9688 -0.1873 -0.3384
   11MOL   C405 4825   2.694   0.943   3.304  0.0723  0.4108 -0.1210
   11MOL   H406 4826   2.750   0.842   3.488  0.1236 -0.3496 -0.0740
   11MOL   H407 4827   2.515   0.841   3.587  2.3893 -0.7749  0.6020
   11MOL   H408 4828   2.420   0.938   3.311  0.7069  0.3366 -0.2614
   11MOL   H409 4829   2.425   1.022   3.460  0.3168  0.2412 -1.7714
   11MOL   H410 4830   2.202   0.915   3.434  0.4208  0.3293  0.2013
   11MOL   H411 4831   2.290   0.873   3.577  0.6298  1.5812  0.2527
   11MOL   H412 4832   2.287   0.706   3.329  0.0767 -0.0804 -0.5199
   11MOL   H413 4833   2.182   0.666   3.467  0.4778 -1.8947 -1.4344
   11MOL   H414 4834   2.384   0.613   3.597 -0.4122 -1.3337 -0.3500
   11MOL   H415 4835   2.374   0.528   3.453 -0.8387 -0.6332  1.3458
   11MOL   H416 4836   2.614   0.647   3.485 -1.7786 -0.8708  0.5946
   11MOL   H417 4837   2.523   0.695   3.333 -1.9463 -0.6463 -0.3231
   11MOL   H418 4838   2.671   0.854   3.245 -1.4604 -1.4028  3.0706
   11MOL   H419 4839   2.615   1.009   3.270 -0.2871  0.6946  1.2088
   11MOL   C420 4840   2.835   1.000   3.255  0.8282  0.2267 -0.1394
   11MOL   C421 4841   2.826   1.055   3.112  0.5884  1.0908 -0.6012
   11MOL   C422 4842   2.819   0.948   3.004 -0.0272  0.6473 -0.5662
   11MOL   C423 4843   2.790   1.010   2.866  0.7505  0.1438 -0.2070
   11MOL   C424 4844   2.896   1.114   2.835 -0.2351 -0.0705 -0.3294
   11MOL   C425 4845   2.915   1.224   2.940  0.0414  0.3329 -0.0094
   11MOL   C426 4846   2.940   1.158   3.081 -0.3316 -0.4109  0.2969
   11MOL   C427 4847   2.951   0.909   3.284 -0.1667  0.3674  0.0876
   11MOL   H428 4848   2.851   1.090   3.314 -0.9543 -0.8585  2.0834
   11MOL   H429 4849   2.736   1.115   3.102  0.1619  0.6130  0.2737
   11MOL   H430 4850   2.920   0.910   2.990  1.6362  3.7709  2.2554
   11MOL   H431 4851   2.744   0.874   3.031  0.7245  0.4656  1.0857
   11MOL   H432 4852   2.801   0.925   2.798  0.8395 -1.6652  1.9617
   11MOL   H433 4853   2.690   1.052   2.865  0.4737 -0.4806  0.3350
   11MOL   H434 4854   2.864   1.169   2.746 -1.9119  1.5349  1.2043
   11MOL   H435 4855   2.996   1.077   2.818  0.6301  1.0645  2.0306
   11MOL   H436 4856   2.833   1.296   2.947  1.8422  2.4651 -0.4047
   11MOL   H437 4857   3.003   1.282   2.911 -0.0999  0.8327  0.5329
   11MOL   H438 4858   3.039   1.115   3.096  0.2141  0.1942 -1.5125
   11MOL   H439 4859   2.945   1.242   3.151  0.9898  0.2358 -0.5365
   11MOL   H440 4860   3.042   0.952   3.242  0.6789 -1.1816  0.2996
   11MOL   H441 4861   2.964   0.902   3.392 -0.6155 -0.6088  0.0878
   11MOL   H442 4862   2.932   0.809   3.246 -0.1685  0.2529  0.3865
   12MOL     C1 4863   5.457   4.232   1.792  0.1607 -0.9024  0.3512
   12MOL     C2 4864   5.466   4.129   1.904  0.1735 -0.5511  0.0494
   12MOL     C3 4865   5.366   4.145   2.011  0.0314 -0.8947  0.8383
   12MOL     C4 4866   5.374   4.043   2.125  0.1510 -0.3922 -0.1140
   12MOL     C5 4867   5.514   4.039   2.180  0.0074  1.0126 -0.2648
   12MOL     C6 4868   5.615   4.007   2.071  0.3271  0.4001  0.6034
   12MOL     C7 4869   5.604   4.119   1.965 -0.4631 -0.0873 -0.6859
   12MOL     C8 4870   5.333   4.228   1.708  0.8591  0.0802  0.1900
   12MOL     H9 4871   5.474   4.333   1.829 -0.5866  0.1780 -2.1758
   12MOL    H10 4872   5.444   4.034   1.855 -0.4998  0.6866 -2.1342
   12MOL    H11 4873   5.369   4.244   2.057  2.6662 -0.4286 -0.1878
   12MOL    H12 4874   5.264   4.145   1.973  0.3119  0.5255  0.0389
   12MOL    H13 4875   5.350   3.942   2.093 -1.2180 -0.2250  0.3476
   12MOL    H14 4876   5.306   4.067   2.206  1.2750  1.8217  0.2177
   12MOL    H15 4877   5.525   3.969   2.262 -2.9088 -0.4189 -1.0534
   12MOL    H16 4878   5.542   4.139   2.214  0.0515  0.7950  0.3467
   12MOL    H17 4879   5.711   3.981   2.116  1.2223 -1.6953 -2.2992
   12MOL    H18 4880   5.576   3.916   2.024 -0.1119  1.4787 -1.1665
   12MOL    H19 4881   5.677   4.114   1.884  0.2003  3.7992 -0.4155
   12MOL    H20 4882   5.636   4.211   2.014  1.0092 -0.7745 -0.3171
   12MOL    H21 4883   5.252   4.267   1.770  0.6806 -1.9278  1.2500
   12MOL    H22 4884   5.315   4.123   1.689 -2.0270  0.4841  0.3576
   12MOL    H23 4885   5.540   4.226   1.722 -1.7360 -2.1451 -1.8667
   12MOL    C24 4886   5.350   4.292   1.568  0.0633 -0.5611  0.3898
   12MOL    C25 4887   5.227   4.274   1.475  0.3697 -0.2363 -0.0561
   12MOL    C26 4888   5.093   4.297   1.550  0.0541  0.3653  0.4349
   12MOL    C27 4889   4.973   4.293   1.457  0.2818  0.8444 -0.4324
   12MOL    C28 4890   4.970   4.160   1.380  0.5782 -1.0945  0.5810
   12MOL    C29 4891   5.102   4.126   1.311  0.2294  0.1032 -0.9338
   12MOL    C30 4892   5.216   4.138   1.397  0.4192 -0.7542 -0.1546
   12MOL    C31 4893   5.398   4.436   1.591  0.2307  0.0867 -0.0666
   12MOL    H32 4894   5.433   4.243   1.517  0.4454  0.2006  0.2631
   12MOL    H33 4895   5.233   4.347   1.395 -0.6742  1.6031  1.5014
   12MOL    H34 4896   5.085   4.387   1.610 -1.5581  0.3754  0.2256
   12MOL    H35 4897   5.070   4.214   1.617  0.3469  0.2264  0.3623
   12MOL    H36 4898   4.878   4.302   1.508  0.5383  0.2181  0.1610
   12MOL    H37 4899   4.973   4.375   1.385 -1.3109  0.3532 -1.0211
   12MOL    H38 4900   4.899   4.151   1.298  0.8874 -0.7858  0.2787
   12MOL    H39 4901   4.943   4.078   1.446 -0.4732 -0.1853  1.2905
   12MOL    H40 4902   5.095   4.020   1.289 -1.2833  0.0643 -0.3457
   12MOL    H41 4903   5.107   4.190   1.223  1.2596  0.4442 -0.6342
   12MOL    H42 4904   5.221   4.059   1.472 -2.5419 -0.0218  0.8552
   12MOL    H43 4905   5.305   4.119   1.337 -0.0071  1.8178 -1.6615
   12MOL    H44 4906   5.497   4.436   1.637  0.1027 -0.2632  0.2160
   12MOL    H45 4907   5.333   4.483   1.665 -0.4848 -1.5464  0.3771
   12MOL    C46 4908   5.413   4.526   1.468 -0.0187 -0.2635  0.2206
   12MOL    C47 4909   5.504   4.472   1.353  0.1891  0.1130  0.2807
   12MOL    C48 4910   5.648   4.442   1.389  0.2292  0.0083 -0.1440
   12MOL    C49 4911   5.723   4.386   1.269  0.0099 -0.0714  0.4913
   12MOL    C50 4912   5.699   4.460   1.130  0.1345  0.1204 -0.5125
   12MOL    C51 4913   5.550   4.491   1.106 -0.8997  0.6402 -0.5233
   12MOL    C52 4914   5.492   4.563   1.226  0.4190  0.3078 -0.5559
   12MOL    C53 4915   5.443   4.675   1.507 -0.1407  0.3268 -0.4983
   12MOL    H54 4916   5.319   4.528   1.412 -0.1342 -1.4367  0.3616
   12MOL    H55 4917   5.461   4.374   1.331 -0.5934  0.2388  1.2118
   12MOL    H56 4918   5.693   4.537   1.416 -1.3827  1.1834 -1.4770
   12MOL    H57 4919   5.645   4.367   1.468 -1.4906  0.3727  0.1625
   12MOL    H58 4920   5.692   4.282   1.261  0.6681 -0.4451  2.6831
   12MOL    H59 4921   5.828   4.374   1.295 -0.2362 -0.9038  1.1196
   12MOL    H60 4922   5.761   4.549   1.133  0.2650 -0.0035  0.9790
   12MOL    H61 4923   5.742   4.401   1.049  0.0718 -1.0297  0.2812
   12MOL    H62 4924   5.504   4.392   1.112 -0.7359  0.6929  2.8031
   12MOL    H63 4925   5.530   4.539   1.011 -1.4652  0.3483 -0.5542
   12MOL    H64 4926   5.555   4.650   1.246 -0.8109  1.2336 -0.6316
   12MOL    H65 4927   5.390   4.581   1.193  0.4419  0.6320 -0.4528
   12MOL    H66 4928   5.517   4.724   1.443  1.7396 -1.2386  0.4055
   12MOL    H67 4929   5.496   4.678   1.602  0.6975  0.2634 -0.9496
   12MOL    C68 4930   5.319   4.767   1.507 -0.1281 -0.0646  0.1969
   12MOL    C69 4931   5.205   4.729   1.616 -0.2565 -0.1397 -0.7899
   12MOL    C70 4932   5.226   4.785   1.754  0.2401 -0.8051  0.3147
   12MOL    C71 4933   5.119   4.748   1.864  0.4958 -0.0335 -0.2417
   12MOL    C72 4934   4.982   4.795   1.819 -0.0170  1.3647 -0.2946
   12MOL    C73 4935   4.951   4.727   1.684  0.5431  0.0027  0.5033
   12MOL    C74 4936   5.053   4.768   1.571 -0.3972  0.7348  0.9777
   12MOL    C75 4937   5.348   4.919   1.508  0.5536  0.1941  0.3274
   12MOL    H76 4938   5.265   4.743   1.415  0.9562  0.3816 -0.5625
   12MOL    H77 4939   5.205   4.622   1.632  1.5837 -0.1311 -0.6433
   12MOL    H78 4940   5.227   4.894   1.751  0.0727 -0.7677  1.4220
   12MOL    H79 4941   5.327   4.760   1.787  1.9824  2.6959 -2.0770
   12MOL    H80 4942   5.129   4.645   1.898  0.2823 -0.7108 -2.1932
   12MOL    H81 4943   5.153   4.809   1.948  0.5937  0.4065 -0.5997
   12MOL    H82 4944   4.978   4.904   1.813  0.7995  1.4993  1.2324
   12MOL    H83 4945   4.914   4.769   1.900  0.2420  0.0817 -0.4751
   12MOL    H84 4946   4.851   4.755   1.651  0.8597  0.0407 -0.4418
   12MOL    H85 4947   4.954   4.618   1.686  2.0884  0.0479  0.8326
   12MOL    H86 4948   5.035   4.871   1.538 -0.7685  1.1221  2.3338
   12MOL    H87 4949   5.026   4.717   1.479  0.1426  1.1015  0.6135
   12MOL    H88 4950   5.256   4.971   1.535 -0.3129 -1.0822 -0.1076
   12MOL    H89 4951   5.412   4.946   1.592 -0.3375  1.6432  0.5737
   12MOL    C90 4952   5.398   4.974   1.373 -0.3505 -1.1220  0.1114
   12MOL    C91 4953   5.284   4.985   1.264  0.2075  0.2407 -0.8777
   12MOL    C92 4954   5.218   5.126   1.267  0.7508  0.3853  0.7596
   12MOL    C93 4955   5.098   5.131   1.176 -0.1204  0.0879 -0.0425
   12MOL    C94 4956   5.139   5.088   1.034 -0.3062  0.8734 -0.2190
   12MOL    C95 4957   5.208   4.952   1.030  0.8336 -0.0339 -0.6306
   12MOL    C96 4958   5.328   4.947   1.125  0.4132  0.5479 -0.1365
   12MOL    C97 4959   5.480   5.106   1.404 -0.3108 -0.2412  0.3141
   12MOL    H98 4960   5.470   4.901   1.338 -1.0177 -1.8193  0.1822
   12MOL    H99 4961   5.221   4.900   1.290  4.3517 -1.6136  3.9707
   12MOL   H100 4962   5.291   5.200   1.234  1.0451 -1.0467 -1.9124
   12MOL   H101 4963   5.179   5.153   1.365 -1.9671 -1.0228  0.1155
   12MOL   H102 4964   5.057   5.231   1.163 -1.7888 -0.7732 -1.5876
   12MOL   H103 4965   5.018   5.081   1.230 -1.0558  1.8888  0.2815
   12MOL   H104 4966   5.198   5.171   0.993  0.8142  0.4439  0.5051
   12MOL   H105 4967   5.053   5.084   0.967  1.0761  2.6363 -2.1880
   12MOL   H106 4968   5.135   4.872   1.034  0.6662  0.1218 -0.5743
   12MOL   H107 4969   5.255   4.950   0.932  2.8376  0.8282  0.2653
   12MOL   H108 4970   5.374   4.848   1.127  0.8338  0.7486  2.2394
   12MOL   H109 4971   5.414   5.009   1.098  0.1843  0.5703 -0.8042
   12MOL   H110 4972   5.405   5.173   1.446 -0.3023  0.0866 -0.1876
   12MOL   H111 4973   5.539   5.078   1.491 -0.9069 -2.0242  0.1814
   12MOL   C112 4974   5.563   5.178   1.290  0.6671 -0.1510  0.1028
   12MOL   C113 4975   5.686   5.092   1.242  0.0913  0.0849  0.0205
   12MOL   C114 4976   5.795   5.064   1.346  0.1665  0.1546 -0.1543
   12MOL   C115 4977   5.900   4.964   1.296 -0.4707  0.1410  0.3457
   12MOL   C116 4978   5.964   5.013   1.166  1.0804  0.2297 -0.5387
   12MOL   C117 4979   5.861   5.050   1.062 -0.2689  0.2829  0.4324
   12MOL   C118 4980   5.749   5.145   1.114  0.6399  0.3938 -0.1704
   12MOL   C119 4981   5.602   5.323   1.339  0.4601  0.3515  0.1657
   12MOL   H120 4982   5.495   5.185   1.205  0.8496  0.1211 -0.0218
   12MOL   H121 4983   5.648   4.997   1.206 -1.0072  0.5014  0.0562
   12MOL   H122 4984   5.750   5.005   1.426 -1.0035 -1.8334 -2.2205
   12MOL   H123 4985   5.834   5.162   1.375 -1.8286  1.7823 -2.7669
   12MOL   H124 4986   5.977   4.947   1.372  1.1382  0.8426 -1.0873
   12MOL   H125 4987   5.852   4.867   1.285  0.9252 -0.6025  0.6306
   12MOL   H126 4988   6.015   5.108   1.179 -1.7206  1.7974 -0.5044
   12MOL   H127 4989   6.048   4.953   1.131  0.3796 -1.0915 -0.0015
   12MOL   H128 4990   5.923   5.085   0.979  1.9465  2.5373  2.9415
   12MOL   H129 4991   5.813   4.959   1.026  2.8927 -1.0824 -0.5551
   12MOL   H130 4992   5.667   5.148   1.042 -0.6426 -1.6454  1.1557
   12MOL   H131 4993   5.783   5.246   1.135 -1.9319  1.1809  0.4424
   12MOL   H132 4994   5.690   5.359   1.286  2.3368 -0.4321  2.6317
   12MOL   H133 4995   5.638   5.320   1.442 -0.5456 -2.8184  0.4824
   12MOL   C134 4996   5.490   5.431   1.333 -0.0835 -0.0262  0.0100
   12MOL   C135 4997   5.495   5.508   1.201 -0.5450 -0.7244  0.0416
   12MOL   C136 4998   5.592   5.633   1.216 -0.4953 -0.1402  0.3247
   12MOL   C137 4999   5.618   5.706   1.085 -0.2712 -0.0609 -0.0926
   12MOL   C138 5000   5.490   5.763   1.037  0.1562  0.6233  0.2216
   12MOL   C139 5001   5.373   5.657   1.028  0.1358  0.0776  0.4267
   12MOL   C140 5002   5.361   5.582   1.160 -0.2247  0.3032 -0.3272
   12MOL   C141 5003   5.479   5.516   1.460  0.8655 -0.3377  0.0283
   12MOL   H142 5004   5.393   5.381   1.339 -0.3393  0.4885  0.1784
   12MOL   H143 5005   5.525   5.447   1.116  1.6756  3.2635 -2.2006
   12MOL   H144 5006   5.557   5.702   1.292 -1.6940  0.6773 -0.9543
   12MOL   H145 5007   5.690   5.596   1.244 -0.5103 -1.1128 -0.8346
   12MOL   H146 5008   5.681   5.654   1.012  0.0637  0.2261 -0.0100
   12MOL   H147 5009   5.676   5.797   1.098  0.1882 -0.6665  2.3690
   12MOL   H148 5010   5.455   5.832   1.114  0.2459  0.9556 -0.0362
   12MOL   H149 5011   5.493   5.823   0.946  0.1126  1.0223  0.4841
   12MOL   H150 5012   5.407   5.587   0.952  0.7437 -0.0969  0.8555
   12MOL   H151 5013   5.278   5.704   1.001 -0.4656 -2.1244 -1.5092
   12MOL   H152 5014   5.322   5.646   1.240 -0.8666 -0.9639  0.3858
   12MOL   H153 5015   5.286   5.503   1.159  0.1578 -0.0533 -0.8238
   12MOL   H154 5016   5.411   5.601   1.448  0.2520 -0.5317  2.0005
   12MOL   H155 5017   5.581   5.554   1.460  0.5740  0.5527 -2.1897
   12MOL   C156 5018   5.426   5.463   1.595  0.0123  0.4885  0.2041
   12MOL   C157 5019   5.279   5.426   1.579 -0.0475  0.5275 -0.6494
   12MOL   C158 5020   5.248   5.325   1.691  1.0693  0.4344 -0.3467
   12MOL   C159 5021   5.110   5.261   1.677 -0.3685 -0.5423  0.1365
   12MOL   C160 5022   5.001   5.374   1.680 -0.0187  0.0496  0.2554
   12MOL   C161 5023   5.028   5.470   1.557  0.3005 -0.1407 -0.1201
   12MOL   C162 5024   5.170   5.531   1.570 -0.3169 -0.1509 -0.1448
   12MOL   C163 5025   5.457   5.561   1.711 -0.3586  0.0744  0.3009
   12MOL   H164 5026   5.474   5.369   1.622 -1.5769 -0.3800  0.0879
   12MOL   H165 5027   5.271   5.365   1.489  2.6570  1.5225 -1.6323
   12MOL   H166 5028   5.308   5.235   1.693  0.5720  0.0529 -2.0304
   12MOL   H167 5029   5.252   5.369   1.791 -0.4832  1.2343 -0.6157
   12MOL   H168 5030   5.114   5.211   1.580  1.8831 -2.2467  1.0727
   12MOL   H169 5031   5.105   5.183   1.752 -0.7805  0.3580  1.0506
   12MOL   H170 5032   5.006   5.431   1.773  1.4821 -2.1061  1.5406
   12MOL   H171 5033   4.901   5.331   1.671  0.4151 -0.5986 -1.7520
   12MOL   H172 5034   4.958   5.553   1.549  0.6356  0.0040 -1.7345
   12MOL   H173 5035   5.015   5.413   1.465 -1.6244  0.8974 -0.5024
   12MOL   H174 5036   5.186   5.608   1.495  1.4130  0.0989  0.4557
   12MOL   H175 5037   5.174   5.587   1.664 -1.0670  2.3506 -1.5450
   12MOL   H176 5038   5.439   5.504   1.803 -3.0269 -1.4905 -1.1225
   12MOL   H177 5039   5.398   5.652   1.702 -0.8269  0.1019  3.2076
   12MOL   C178 5040   5.610   5.595   1.722  0.1117 -0.3524 -0.1720
   12MOL   C179 5041   5.635   5.732   1.654  0.2444 -0.4793 -0.2564
   12MOL   C180 5042   5.784   5.757   1.630 -0.3653  0.1365 -0.2612
   12MOL   C181 5043   5.823   5.891   1.574 -0.0623  0.5742  0.4591
   12MOL   C182 5044   5.754   6.008   1.640 -0.7535 -0.2763  0.8802
   12MOL   C183 5045   5.605   5.978   1.657 -0.1493  0.2627 -0.1799
   12MOL   C184 5046   5.579   5.847   1.740  0.2413  0.6340 -0.3119
   12MOL   C185 5047   5.669   5.591   1.867 -0.4845  0.2725  0.2516
   12MOL   H186 5048   5.666   5.521   1.664  0.2058  0.5277 -1.2151
   12MOL   H187 5049   5.592   5.740   1.555 -0.1768 -1.3512 -0.1454
   12MOL   H188 5050   5.836   5.754   1.726 -0.1480 -1.8552 -0.4245
   12MOL   H189 5051   5.819   5.673   1.570 -1.3122 -1.6099  1.5609
   12MOL   H190 5052   5.808   5.888   1.466 -0.5200 -1.5773  0.5526
   12MOL   H191 5053   5.931   5.891   1.594  0.2784 -0.9130 -1.2690
   12MOL   H192 5054   5.791   6.019   1.742  1.2744 -0.0362  0.1465
   12MOL   H193 5055   5.773   6.103   1.590  5.0343 -2.8208 -2.2353
   12MOL   H194 5056   5.559   5.963   1.559 -0.9426 -0.3160  0.2725
   12MOL   H195 5057   5.561   6.065   1.704  0.9535  0.8393 -0.2010
   12MOL   H196 5058   5.632   5.861   1.834  0.7563  0.8953 -0.6438
   12MOL   H197 5059   5.471   5.842   1.753  0.3404 -3.2406 -0.3625
   12MOL   H198 5060   5.767   5.638   1.874 -0.6135  0.3272  2.1870
   12MOL   H199 5061   5.613   5.659   1.931 -0.3475 -0.5430  1.2548
   12MOL   C200 5062   5.676   5.454   1.947 -0.4683 -0.1610  0.2669
   12MOL   C201 5063   5.725   5.332   1.857 -0.8966 -0.7314  0.9705
   12MOL   C202 5064   5.872   5.360   1.792 -0.2261  0.3145 -0.0531
   12MOL   C203 5065   5.916   5.234   1.709 -0.1009 -0.8246 -0.6819
   12MOL   C204 5066   5.906   5.108   1.789 -0.4584 -0.6688 -0.4938
   12MOL   C205 5067   5.760   5.089   1.824 -0.3604 -0.5934 -0.2030
   12MOL   C206 5068   5.712   5.195   1.926 -0.1529  0.2062  0.3021
   12MOL   C207 5069   5.758   5.474   2.071  0.4152 -0.2115  0.5503
   12MOL   H208 5070   5.574   5.434   1.979 -1.2503  1.9178 -0.7799
   12MOL   H209 5071   5.653   5.334   1.776 -0.4010 -0.8912  0.5218
   12MOL   H210 5072   5.943   5.376   1.873  0.8937  1.1757 -1.1801
   12MOL   H211 5073   5.868   5.451   1.732 -0.5244  1.9075  2.3041
   12MOL   H212 5074   5.868   5.224   1.611 -1.4378  1.0352 -0.2372
   12MOL   H213 5075   6.016   5.267   1.681 -0.5694 -0.6010 -2.1613
   12MOL   H214 5076   5.942   5.020   1.737 -0.4538  0.0502 -1.7191
   12MOL   H215 5077   5.979   5.128   1.868 -0.2912 -0.2255 -0.7599
   12MOL   H216 5078   5.682   5.074   1.749 -0.3236  0.5573 -0.4756
   12MOL   H217 5079   5.748   5.000   1.885 -1.4184  0.4634  1.1530
   12MOL   H218 5080   5.608   5.181   1.957  0.4220 -0.5225  1.9475
   12MOL   H219 5081   5.776   5.194   2.014 -1.8841 -1.3137  1.5853
   12MOL   H220 5082   5.827   5.390   2.082  0.7804  0.0917  0.5907
   12MOL   H221 5083   5.830   5.556   2.067 -2.3034  2.3923  2.5476
   12MOL   C222 5084   5.677   5.482   2.209 -0.0422 -0.7862  0.1243
   12MOL   C223 5085   5.759   5.468   2.341 -0.3622 -0.3815  0.7017
   12MOL   C224 5086   5.869   5.579   2.354  0.9868 -1.0544 -0.3556
   12MOL   C225 5087   5.935   5.577   2.496  0.6791  0.0984 -0.2434
   12MOL   C226 5088   5.993   5.438   2.520  0.4545 -0.2184  0.3229
   12MOL   C227 5089   5.897   5.321   2.486  0.5678  0.2606  0.2177
   12MOL   C228 5090   5.821   5.333   2.349  0.0413  0.6041 -0.7951
   12MOL   C229 5091   5.587   5.610   2.214 -0.2358  0.4324 -0.6014
   12MOL   H230 5092   5.615   5.392   2.198 -2.0871  0.3830  1.6560
   12MOL   H231 5093   5.682   5.483   2.417 -1.2166 -0.7147 -0.0973
   12MOL   H232 5094   5.953   5.572   2.285  0.1983 -1.2749 -1.2943
   12MOL   H233 5095   5.829   5.680   2.340  2.6179 -0.1207  1.3792
   12MOL   H234 5096   5.861   5.601   2.572  0.6196  2.4267 -0.9760
   12MOL   H235 5097   6.016   5.648   2.509  1.6801 -1.0798  0.0257
   12MOL   H236 5098   6.078   5.427   2.453 -0.6851  1.4987 -1.4489
   12MOL   H237 5099   6.014   5.425   2.626  0.3923  1.0681  0.5000
   12MOL   H238 5100   5.811   5.331   2.552 -1.4757  1.4753 -2.4949
   12MOL   H239 5101   5.950   5.226   2.486  0.5479  0.1912 -2.4546
   12MOL   H240 5102   5.890   5.311   2.268 -0.7852 -0.1166 -1.3078
   12MOL   H241 5103   5.747   5.253   2.345  2.4115 -1.6374 -0.9208
   12MOL   H242 5104   5.620   5.687   2.145 -0.3957 -0.8199 -2.1006
   12MOL   H243 5105   5.603   5.654   2.312 -1.8154  2.5911 -1.2837
   12MOL   C244 5106   5.432   5.587   2.195  0.5507  0.2067  0.2664
   12MOL   C245 5107   5.349   5.716   2.163 -0.5468  0.5911  0.3505
   12MOL   C246 5108   5.366   5.773   2.019  0.5537 -0.2609 -0.3125
   12MOL   C247 5109   5.282   5.900   1.986 -0.6499 -0.3148  0.3704
   12MOL   C248 5110   5.327   6.012   2.084 -0.1768 -0.4760  0.5986
   12MOL   C249 5111   5.311   5.964   2.229  0.4045 -0.2936  0.2221
   12MOL   C250 5112   5.381   5.828   2.260  0.5306  0.0266  0.2243
   12MOL   C251 5113   5.386   5.519   2.329  0.2534 -0.4758  0.3809
   12MOL   H252 5114   5.415   5.518   2.112 -1.4123  2.4983 -1.3307
   12MOL   H253 5115   5.245   5.681   2.161 -0.6814  0.9543  0.7950
   12MOL   H254 5116   5.332   5.707   1.940  1.1733 -1.0644  0.0848
   12MOL   H255 5117   5.471   5.797   2.001  0.0881  1.2642 -1.1075
   12MOL   H256 5118   5.294   5.942   1.886 -0.4696  1.3965  1.0994
   12MOL   H257 5119   5.179   5.870   2.005 -0.9446  0.1381 -0.5113
   12MOL   H258 5120   5.431   6.039   2.069 -0.6408 -0.2404 -2.7345
   12MOL   H259 5121   5.270   6.101   2.056  1.1869  1.6839  4.3683
   12MOL   H260 5122   5.207   5.955   2.261  0.7367 -1.9173  0.9161
   12MOL   H261 5123   5.363   6.036   2.292  0.8502 -1.0531  0.7338
   12MOL   H262 5124   5.488   5.851   2.268  0.8997 -0.5934 -2.6100
   12MOL   H263 5125   5.347   5.793   2.358  1.9898  1.1675  1.1545
   12MOL   H264 5126   5.389   5.596   2.406 -2.1740  0.2284 -0.1764
   12MOL   H265 5127   5.449   5.438   2.366  2.3007  0.9670  0.1560
   12MOL   C266 5128   5.241   5.455   2.330  0.0876 -0.6566  0.3042
   12MOL   C267 5129   5.205   5.358   2.209  0.1420 -0.2135  0.5124
   12MOL   C268 5130   5.051   5.322   2.218 -0.0374 -0.8532 -0.4004
   12MOL   C269 5131   5.016   5.242   2.095 -0.2039 -0.6004 -0.0038
   12MOL   C270 5132   5.099   5.112   2.095  0.2483 -0.3331 -0.1148
   12MOL   C271 5133   5.245   5.141   2.088  0.5069 -0.1474  0.3010
   12MOL   C272 5134   5.289   5.229   2.204  0.2007  0.6986 -0.9517
   12MOL   C273 5135   5.205   5.398   2.471  0.0504 -0.2272 -0.4433
   12MOL   H274 5136   5.165   5.531   2.313  0.0121 -0.1301  2.7601
   12MOL   H275 5137   5.222   5.422   2.122  1.5757 -1.6394 -0.2808
   12MOL   H276 5138   5.027   5.251   2.297 -1.5056 -2.0280 -1.8632
   12MOL   H277 5139   4.990   5.411   2.232  0.4419 -0.8979  2.1529
   12MOL   H278 5140   5.038   5.292   2.001 -3.8373 -0.2613 -0.7129
   12MOL   H279 5141   4.912   5.210   2.094 -0.4621  0.1031 -4.3420
   12MOL   H280 5142   5.076   5.058   2.187  1.2274 -1.2313 -0.3886
   12MOL   H281 5143   5.079   5.049   2.008 -1.9128 -0.3228  0.3431
   12MOL   H282 5144   5.274   5.174   1.988 -1.0715  2.7520  0.7513
   12MOL   H283 5145   5.304   5.049   2.092 -1.8859 -1.6438  1.7456
   12MOL   H284 5146   5.397   5.241   2.205  0.0941  1.6645  1.3556
   12MOL   H285 5147   5.268   5.173   2.295  0.8536  2.0193  0.0191
   12MOL   H286 5148   5.255   5.301   2.473 -0.0318 -0.2684 -0.3425
   12MOL   H287 5149   5.100   5.370   2.463  0.1447 -0.1813 -1.9187
   12MOL   C288 5150   5.229   5.480   2.597 -0.6353  0.3985  0.1257
   12MOL   C289 5151   5.226   5.382   2.718 -0.4844  0.0724  0.0910
   12MOL   C290 5152   5.326   5.404   2.826 -0.2435 -0.2553 -0.1946
   12MOL   C291 5153   5.337   5.272   2.911  0.4377 -0.7751 -0.8237
   12MOL   C292 5154   5.196   5.227   2.971 -0.6873  0.2128 -0.3434
   12MOL   C293 5155   5.090   5.203   2.856  0.2931  0.2629 -0.7581
   12MOL   C294 5156   5.086   5.342   2.775 -0.1103  0.2267 -0.9752
   12MOL   C295 5157   5.132   5.600   2.608 -0.0107 -0.2153  0.5084
   12MOL   H296 5158   5.328   5.522   2.586  0.9450 -2.3372  3.0993
   12MOL   H297 5159   5.274   5.290   2.683 -0.3416  0.2880 -0.2813
   12MOL   H298 5160   5.423   5.439   2.789  0.0916 -2.0980 -1.1133
   12MOL   H299 5161   5.290   5.489   2.884 -1.7726 -0.3878 -0.9146
   12MOL   H300 5162   5.384   5.190   2.856  2.4767 -0.3058  0.1643
   12MOL   H301 5163   5.408   5.272   2.994 -0.9337 -5.3215  0.4893
   12MOL   H302 5164   5.156   5.307   3.033 -1.0105  1.3805 -2.0289
   12MOL   H303 5165   5.207   5.140   3.035 -0.0515  1.3883  1.1900
   12MOL   H304 5166   4.990   5.173   2.889  1.1899 -0.5353  1.3556
   12MOL   H305 5167   5.139   5.129   2.792  2.2415  0.1363  0.8324
   12MOL   H306 5168   5.054   5.408   2.856  0.7727 -0.5067 -0.0171
   12MOL   H307 5169   5.015   5.333   2.693 -1.6985  2.2271  0.1220
   12MOL   H308 5170   5.128   5.666   2.521 -0.6076 -1.0040 -0.0689
   12MOL   H309 5171   5.033   5.555   2.608 -0.6170  1.0893  0.8342
   12MOL   C310 5172   5.144   5.689   2.740  0.4116 -0.2894 -0.8647
   12MOL   C311 5173   5.269   5.779   2.735  0.9378 -0.4909  0.3130
   12MOL   C312 5174   5.271   5.892   2.638  0.3001 -0.0859 -0.2370
   12MOL   C313 5175   5.414   5.947   2.620  0.0980 -0.2376 -0.3923
   12MOL   C314 5176   5.470   5.992   2.761 -0.1599 -0.2714 -0.0325
   12MOL   C315 5177   5.470   5.878   2.859 -0.1101  1.0694 -0.2474
   12MOL   C316 5178   5.327   5.827   2.871 -0.4534  0.0425  0.0449
   12MOL   C317 5179   5.013   5.771   2.755 -0.3753 -0.1811 -0.5746
   12MOL   H318 5180   5.144   5.616   2.821 -0.1523  1.3038  0.6156
   12MOL   H319 5181   5.349   5.713   2.700 -0.1279 -0.5971 -2.0020
   12MOL   H320 5182   5.234   5.856   2.542  0.8746  1.0368 -0.9035
   12MOL   H321 5183   5.200   5.974   2.650  0.3460 -0.0818 -0.0046
   12MOL   H322 5184   5.415   6.040   2.562  2.6323 -0.1655 -0.2939
   12MOL   H323 5185   5.476   5.869   2.575  2.7060 -0.4115  3.3026
   12MOL   H324 5186   5.571   6.031   2.745  0.7071 -0.9491  3.3150
   12MOL   H325 5187   5.422   6.079   2.805 -0.8666 -0.2254 -0.8881
   12MOL   H326 5188   5.538   5.796   2.835  0.2098  1.7700 -1.8282
   12MOL   H327 5189   5.498   5.907   2.960  2.2003  1.9821 -1.1157
   12MOL   H328 5190   5.273   5.911   2.915  0.7350 -0.0365  1.7195
   12MOL   H329 5191   5.328   5.745   2.943  1.4599 -1.5771 -1.7815
   12MOL   H330 5192   4.928   5.708   2.731  0.1485 -0.7666 -0.9188
   12MOL   H331 5193   5.013   5.850   2.680  1.0558 -0.8085 -1.2544
   12MOL   C332 5194   4.994   5.840   2.897 -0.0720  0.0311 -0.3810
   12MOL   C333 5195   4.972   5.736   3.012  0.7874 -0.2627 -0.0530
   12MOL   C334 5196   4.842   5.658   3.002 -0.0370 -0.4273 -0.2889
   12MOL   C335 5197   4.841   5.532   3.096  0.1979 -0.3819 -0.0774
   12MOL   C336 5198   4.857   5.582   3.238 -0.3344  0.3249 -0.5010
   12MOL   C337 5199   4.972   5.690   3.263 -0.1073  0.3706 -0.5580
   12MOL   C338 5200   4.981   5.793   3.153 -0.1246  0.7501 -0.0973
   12MOL   C339 5201   4.859   5.929   2.882  0.1262 -0.8783 -0.3321
   12MOL   H340 5202   5.077   5.902   2.931 -1.4033  2.1831 -0.9720
   12MOL   H341 5203   5.054   5.663   3.013 -0.1545 -1.3163  1.5790
   12MOL   H342 5204   4.755   5.720   3.024 -0.9209 -1.4781 -0.8137
   12MOL   H343 5205   4.823   5.620   2.902 -0.0877 -0.5260 -0.2415
   12MOL   H344 5206   4.748   5.475   3.094  0.4286 -0.7610 -0.0599
   12MOL   H345 5207   4.916   5.460   3.063 -1.7610 -2.3808 -0.3282
   12MOL   H346 5208   4.763   5.620   3.279 -0.7775  1.8616 -2.8683
   12MOL   H347 5209   4.883   5.499   3.303 -1.1937  0.4014 -0.0481
   12MOL   H348 5210   5.064   5.637   3.288  0.1566  1.3302  0.5892
   12MOL   H349 5211   4.968   5.735   3.363  0.1348  1.4305 -1.0182
   12MOL   H350 5212   5.081   5.834   3.160 -1.3475  3.5960  1.6986
   12MOL   H351 5213   4.913   5.873   3.180 -0.2503  0.7404 -0.3735
   12MOL   H352 5214   4.839   5.969   2.981 -0.5628  0.7598 -1.1094
   12MOL   H353 5215   4.773   5.867   2.858 -0.0433 -0.1384 -1.6694
   12MOL   C354 5216   4.862   6.057   2.778  0.6742 -0.2300 -0.0887
   12MOL   C355 5217   4.986   6.153   2.796 -0.0176 -0.5158 -0.0961
   12MOL   C356 5218   4.962   6.252   2.917  0.5046  0.5906  0.0737
   12MOL   C357 5219   5.076   6.353   2.932 -0.8691 -1.0059 -0.1702
   12MOL   C358 5220   5.113   6.428   2.799  0.2653 -0.1801  0.1560
   12MOL   C359 5221   5.142   6.330   2.678 -0.4112  0.2989 -0.4042
   12MOL   C360 5222   5.023   6.235   2.665  0.0282 -0.3241 -0.3333
   12MOL   C361 5223   4.725   6.136   2.787 -0.0078  0.8204  0.4772
   12MOL   H362 5224   4.867   6.025   2.674  0.4511  0.2942 -0.2584
   12MOL   H363 5225   5.074   6.093   2.819  1.3325  1.9637  1.3922
   12MOL   H364 5226   4.979   6.192   3.006  0.8009 -1.6949 -1.4754
   12MOL   H365 5227   4.865   6.299   2.934 -0.0394  0.2532 -1.8806
   12MOL   H366 5228   5.049   6.427   3.007  1.9297 -1.8912  1.8024
   12MOL   H367 5229   5.160   6.298   2.975 -1.7025 -1.7276  0.5590
   12MOL   H368 5230   5.028   6.487   2.764  0.7687  0.8696  0.6744
   12MOL   H369 5231   5.192   6.495   2.831  0.3517  0.3055 -1.0322
   12MOL   H370 5232   5.169   6.383   2.586 -0.6523 -0.2498 -0.7968
   12MOL   H371 5233   5.230   6.272   2.706 -1.8722 -0.0369  3.7827
   12MOL   H372 5234   5.060   6.167   2.589  0.8074  0.4851 -0.6925
   12MOL   H373 5235   4.929   6.281   2.634  0.6347  1.9794  1.0564
   12MOL   H374 5236   4.741   6.242   2.765 -0.0165  0.3450 -1.9160
   12MOL   H375 5237   4.703   6.146   2.893 -1.6678  0.1178  0.2126
   12MOL   C376 5238   4.607   6.063   2.729 -0.1653  0.0468  0.2204
   12MOL   C377 5239   4.480   6.055   2.808 -0.3344  0.1251  0.0344
   12MOL   C378 5240   4.391   5.933   2.768  0.0846 -0.2662 -0.1949
   12MOL   C379 5241   4.259   5.933   2.859 -0.6633 -0.3474  0.1598
   12MOL   C380 5242   4.190   6.069   2.839 -0.9243  1.1677 -0.2446
   12MOL   C381 5243   4.273   6.182   2.881 -0.0350  0.2646  0.2554
   12MOL   C382 5244   4.407   6.192   2.804 -0.2157  0.3033 -0.2252
   12MOL   C383 5245   4.590   6.127   2.585 -0.8103 -0.2329 -0.5934
   12MOL   H384 5246   4.629   5.957   2.713  0.5318 -0.1738  2.4389
   12MOL   H385 5247   4.512   6.023   2.907  2.1902 -4.2886 -2.0578
   12MOL   H386 5248   4.357   5.925   2.664 -0.6855 -0.0854  0.0416
   12MOL   H387 5249   4.439   5.838   2.791  1.8720  0.4279 -1.0003
   12MOL   H388 5250   4.291   5.924   2.963  2.2682 -1.3460 -0.7811
   12MOL   H389 5251   4.196   5.850   2.825 -2.1952  0.1451  1.7425
   12MOL   H390 5252   4.148   6.066   2.739  0.7561 -1.6826 -0.9043
   12MOL   H391 5253   4.105   6.076   2.907 -1.1763  0.6904 -0.5077
   12MOL   H392 5254   4.212   6.270   2.863 -0.9065 -0.1108  1.3084
   12MOL   H393 5255   4.284   6.183   2.990 -3.3709 -0.1683  0.6454
   12MOL   H394 5256   4.374   6.203   2.701 -0.8928  0.5755  0.0171
   12MOL   H395 5257   4.477   6.266   2.843  0.4987 -0.0695 -0.7916
   12MOL   H396 5258   4.578   6.235   2.593  1.4859  0.0141 -0.3883
   12MOL   H397 5259   4.500   6.084   2.541 -1.1366  0.0937 -0.2551
   12MOL   C398 5260   4.704   6.111   2.479 -0.9769 -0.4825  0.8352
   12MOL   C399 5261   4.737   5.966   2.441 -0.4124  0.5454  0.5622
   12MOL   C400 5262   4.616   5.882   2.384  0.8916  0.1518  0.6481
   12MOL   C401 5263   4.659   5.734   2.372 -0.0015 -0.3965 -0.3101
   12MOL   C402 5264   4.787   5.720   2.286 -0.1864  0.1080  0.2517
   12MOL   C403 5265   4.911   5.798   2.347  0.2118  0.1160  0.0569
   12MOL   C404 5266   4.871   5.949   2.364 -0.4744  1.2786  0.2223
   12MOL   C405 5267   4.673   6.205   2.353  0.0723  0.4792 -0.1859
   12MOL   H406 5268   4.793   6.153   2.524  0.4497 -1.8015 -0.7135
   12MOL   H407 5269   4.754   5.919   2.538  0.0663 -3.3453 -1.2923
   12MOL   H408 5270   4.578   5.915   2.287 -0.9252 -2.0131  0.5725
   12MOL   H409 5271   4.539   5.890   2.461 -1.8288  1.1503 -2.0853
   12MOL   H410 5272   4.581   5.675   2.324  2.0527 -2.4897 -1.1578
   12MOL   H411 5273   4.668   5.694   2.473 -0.8101  2.0713  0.7942
   12MOL   H412 5274   4.766   5.770   2.192 -1.2353  1.4528  1.1807
   12MOL   H413 5275   4.812   5.615   2.270 -0.3218 -0.0244  0.8788
   12MOL   H414 5276   4.939   5.747   2.439 -0.1381 -1.6591 -0.7958
   12MOL   H415 5277   4.996   5.786   2.281 -0.1654  0.9206 -0.5885
   12MOL   H416 5278   4.949   6.004   2.416 -0.7390  1.8958 -0.0264
   12MOL   H417 5279   4.863   5.993   2.264  1.0962 -1.3017 -1.1132
   12MOL   H418 5280   4.621   6.159   2.269  2.2120 -1.5737 -0.4477
   12MOL   H419 5281   4.599   6.282   2.376  2.4630  2.6184  0.5639
   12MOL   C420 5282   4.792   6.274   2.286  0.6917  0.0169 -0.4691
   12MOL   C421 5283   4.780   6.429   2.302 -0.6068 -1.2148 -0.1870
   12MOL   C422 5284   4.863   6.507   2.196 -0.5730 -0.2834 -0.2509
   12MOL   C423 5285   4.858   6.658   2.228  0.6555  1.0752  0.7263
   12MOL   C424 5286   4.888   6.697   2.377  0.1956 -0.6055 -0.1981
   12MOL   C425 5287   4.812   6.612   2.475 -0.7067  0.5210  0.4598
   12MOL   C426 5288   4.832   6.456   2.447  0.6438  0.0030  0.1618
   12MOL   C427 5289   4.803   6.235   2.141 -0.0592  0.3358  0.1763
   12MOL   H428 5290   4.884   6.245   2.336  1.0094  2.1944  0.2834
   12MOL   H429 5291   4.675   6.456   2.292 -0.3246  0.1192  0.3845
   12MOL   H430 5292   4.966   6.473   2.190 -0.6752 -0.4137 -1.4148
   12MOL   H431 5293   4.817   6.497   2.098 -0.4693  1.4814 -0.4961
   12MOL   H432 5294   4.911   6.712   2.150 -1.9428  0.9007 -1.2325
   12MOL   H433 5295   4.753   6.686   2.222  0.6139  0.4718 -1.9478
   12MOL   H434 5296   4.870   6.803   2.391 -2.1972 -0.9747 -0.2705
   12MOL   H435 5297   4.992   6.662   2.385 -0.6870 -3.2065  0.5731
   12MOL   H436 5298   4.706   6.634   2.481 -0.9178 -0.1064 -0.9067
   12MOL   H437 5299   4.840   6.634   2.578 -0.4792 -0.3689  0.5905
   12MOL   H438 5300   4.936   6.427   2.465  0.8587  1.7230  1.7772
   12MOL   H439 5301   4.771   6.402   2.518  0.8572  0.3734  0.6268
   12MOL   H440 5302   4.778   6.129   2.132  1.4545 -0.0091 -0.0885
   12MOL   H441 5303   4.725   6.272   2.075  0.8067 -0.2907 -1.2003
   12MOL   H442 5304   4.897   6.253   2.089 -1.1972 -1.2531 -2.5383
   13MOL     C1 5305   3.662   7.698   5.945  0.3876  0.4646  0.1804
   13MOL     C2 5306   3.552   0.030   5.958  0.2373 -0.0987 -0.0535
   13MOL     C3 5307   3.477   0.051   5.821  0.5916 -0.4095 -0.7132
   13MOL     C4 5308   3.373   0.166   5.828  0.2165  0.9975  0.3247
   13MOL     C5 5309   3.435   0.290   5.898  0.1588 -0.0877 -0.1541
   13MOL     C6 5310   3.499   0.267   6.042 -0.1280 -0.2704  0.1411
   13MOL     C7 5311   3.609   0.158   6.025 -0.0071 -0.7342  0.1418
   13MOL     C8 5312   3.609   7.551   5.975 -1.0194  0.7770  0.2476
   13MOL     H9 5313   3.686   7.688   5.839 -0.9037  0.7234 -0.1372
   13MOL    H10 5314   3.472   7.767   6.023  1.7398 -0.8860  1.3682
   13MOL    H11 5315   3.546   0.074   5.739  1.7275  1.9212  0.8230
   13MOL    H12 5316   3.414   7.740   5.789 -1.5621  0.8809  0.0036
   13MOL    H13 5317   3.288   0.127   5.884  0.2089  1.4723  0.6398
   13MOL    H14 5318   3.331   0.187   5.730  0.9160  2.2360  0.2748
   13MOL    H15 5319   3.359   0.369   5.900 -1.6120 -1.7374 -0.4829
   13MOL    H16 5320   3.508   0.337   5.832  0.6965 -0.1061  0.4173
   13MOL    H17 5321   3.550   0.356   6.080  1.2255 -1.0079  0.1061
   13MOL    H18 5322   3.417   0.250   6.111 -0.1721  1.0053  0.4133
   13MOL    H19 5323   3.650   0.134   6.124 -0.9881  1.2503  1.0502
   13MOL    H20 5324   3.690   0.193   5.962 -0.2342  1.2215  0.9096
   13MOL    H21 5325   3.513   7.559   5.925  0.0246  0.8991 -1.8033
   13MOL    H22 5326   3.591   7.537   6.081  1.7347  2.0021  0.9282
   13MOL    H23 5327   3.746   7.719   6.012  0.2871 -0.6456  0.6561
   13MOL    C24 5328   3.696   7.430   5.913 -0.2559 -0.0721 -0.0229
   13MOL    C25 5329   3.836   7.421   5.967  0.4436 -0.2454 -0.2989
   13MOL    C26 5330   3.940   7.361   5.873 -0.1543  0.2613  0.6660
   13MOL    C27 5331   4.084   7.353   5.932 -0.5314  0.3075 -0.2509
   13MOL    C28 5332   4.097   7.272   6.056  0.5307 -0.3393 -0.2013
   13MOL    C29 5333   4.002   7.340   6.159  0.0161 -0.4934  0.0575
   13MOL    C30 5334   3.854   7.361   6.108  0.8867 -0.5478 -0.1872
   13MOL    C31 5335   3.622   7.294   5.926  0.3330  0.0562  0.4664
   13MOL    H32 5336   3.717   7.458   5.810  1.2134  1.8607  0.7545
   13MOL    H33 5337   3.869   7.522   5.990  1.1503 -0.8871  1.5862
   13MOL    H34 5338   3.943   7.418   5.781 -3.1803  4.9305  3.2498
   13MOL    H35 5339   3.911   7.259   5.847 -1.0365  0.5956  0.3038
   13MOL    H36 5340   4.156   7.327   5.855 -1.2351  2.4478 -1.6765
   13MOL    H37 5341   4.119   7.455   5.946  0.9713  0.2567 -3.1604
   13MOL    H38 5342   4.196   7.287   6.098  0.4139 -1.4901  0.5048
   13MOL    H39 5343   4.060   7.175   6.024 -2.7807  0.5081  0.8552
   13MOL    H40 5344   4.009   7.303   6.262  1.1290 -3.0330 -0.9014
   13MOL    H41 5345   4.029   7.445   6.162  1.3133 -0.7882 -1.0397
   13MOL    H42 5346   3.809   7.263   6.130  0.3545  0.0310  1.3908
   13MOL    H43 5347   3.808   7.429   6.180  1.2733 -1.5986  1.0849
   13MOL    H44 5348   3.594   7.280   6.031 -1.3026  0.1630  0.0442
   13MOL    H45 5349   3.693   7.217   5.897 -0.4883 -0.7263  0.5198
   13MOL    C46 5350   3.496   7.279   5.836 -0.3765 -0.1372  0.7775
   13MOL    C47 5351   3.376   7.215   5.926 -0.5228 -0.3741  0.3962
   13MOL    C48 5352   3.335   7.311   6.041  0.4545 -0.3119 -0.7661
   13MOL    C49 5353   3.224   7.251   6.126 -0.4384  0.6589 -0.6646
   13MOL    C50 5354   3.270   7.117   6.184 -0.0152  0.1680 -0.8749
   13MOL    C51 5355   3.286   7.022   6.065 -1.0099 -0.5956  0.0914
   13MOL    C52 5356   3.409   7.075   5.979 -0.1226 -0.2902 -0.0983
   13MOL    C53 5357   3.525   7.225   5.688  0.1522 -0.4180  0.3381
   13MOL    H54 5358   3.459   7.381   5.823 -0.2717 -0.2828 -0.7761
   13MOL    H55 5359   3.293   7.201   5.857 -0.9110  0.8693  0.5860
   13MOL    H56 5360   3.419   7.332   6.107  1.7286 -0.0406 -2.4417
   13MOL    H57 5361   3.287   7.403   6.007 -0.7410 -0.4076  0.6191
   13MOL    H58 5362   3.135   7.234   6.066 -0.7914 -0.8330  0.2511
   13MOL    H59 5363   3.210   7.321   6.208  1.9600  0.0763  0.3003
   13MOL    H60 5364   3.367   7.132   6.231 -0.8038 -2.0436  1.5428
   13MOL    H61 5365   3.202   7.084   6.262  4.0647 -0.9032  2.4026
   13MOL    H62 5366   3.199   7.016   6.000 -0.4862 -0.4760 -0.6389
   13MOL    H63 5367   3.310   6.925   6.108  0.5139  0.0234  0.6836
   13MOL    H64 5368   3.501   7.076   6.038 -0.6225 -3.7115  0.8287
   13MOL    H65 5369   3.418   7.015   5.889 -1.6753 -1.0829  0.2456
   13MOL    H66 5370   3.529   7.116   5.696  0.8555 -0.2896  1.8632
   13MOL    H67 5371   3.625   7.257   5.660  0.2480 -1.8082 -0.9797
   13MOL    C68 5372   3.427   7.285   5.584  0.2844  0.3361  0.6408
   13MOL    C69 5373   3.464   7.429   5.539  0.1932 -0.2704 -0.1769
   13MOL    C70 5374   3.604   7.433   5.460 -0.3670  1.1528  0.5060
   13MOL    C71 5375   3.642   7.583   5.438 -0.1666 -0.0269  0.0109
   13MOL    C72 5376   3.528   7.660   5.374  0.1284 -0.4246  0.3008
   13MOL    C73 5377   3.391   7.644   5.447  0.2742 -0.0015  0.5127
   13MOL    C74 5378   3.354   7.501   5.454 -0.8722  0.1584  0.3590
   13MOL    C75 5379   3.421   7.186   5.464  0.2473  0.0081 -0.0431
   13MOL    H76 5380   3.326   7.292   5.625 -0.0141  0.8180 -0.1615
   13MOL    H77 5381   3.471   7.485   5.632 -1.8575 -1.7056  0.9112
   13MOL    H78 5382   3.595   7.389   5.361  0.3422  0.4610  0.7452
   13MOL    H79 5383   3.689   7.386   5.508 -0.8227 -0.9035 -0.6792
   13MOL    H80 5384   3.667   7.627   5.534  2.8033 -0.8863 -0.3148
   13MOL    H81 5385   3.731   7.581   5.374  1.4503  2.0860  2.1138
   13MOL    H82 5386   3.521   7.640   5.267  1.3239 -0.0915  0.1494
   13MOL    H83 5387   3.567   7.761   5.380 -0.0423 -0.3265 -0.2728
   13MOL    H84 5388   3.316   7.706   5.398 -1.5485 -2.8847 -0.4452
   13MOL    H85 5389   3.403   7.674   5.551 -2.0649 -1.7101  1.3192
   13MOL    H86 5390   3.355   7.449   5.359 -0.5141  0.8348 -0.0132
   13MOL    H87 5391   3.257   7.485   5.500 -0.2275 -1.3896  1.2117
   13MOL    H88 5392   3.385   7.232   5.372 -1.3159  0.1792  0.6315
   13MOL    H89 5393   3.526   7.165   5.445  0.5448  2.2180 -0.9642
   13MOL    C90 5394   3.348   7.047   5.486 -0.0546 -0.1685  0.2120
   13MOL    C91 5395   3.206   7.063   5.536  0.1781 -0.0749 -0.1550
   13MOL    C92 5396   3.116   7.139   5.442 -0.2684 -0.0312  0.4195
   13MOL    C93 5397   2.974   7.156   5.501  0.0356 -0.9194 -0.6804
   13MOL    C94 5398   2.913   7.016   5.551  0.0395  0.0232  0.1863
   13MOL    C95 5399   3.003   6.948   5.649  0.8375  0.2238 -0.5729
   13MOL    C96 5400   3.143   6.928   5.584  0.2542  0.7584  0.1294
   13MOL    C97 5401   3.355   6.964   5.356  0.0383 -0.1143 -0.2435
   13MOL    H98 5402   3.398   6.984   5.560  0.8532 -1.2729 -1.3233
   13MOL    H99 5403   3.225   7.106   5.634 -1.7647 -2.4877  1.3306
   13MOL   H100 5404   3.110   7.077   5.352 -0.0824  0.4516  0.0681
   13MOL   H101 5405   3.159   7.235   5.411 -2.2002  0.5268 -0.6269
   13MOL   H102 5406   2.909   7.200   5.425  0.6184  0.1228 -0.5849
   13MOL   H103 5407   2.969   7.228   5.582  1.2183 -0.3753 -1.0703
   13MOL   H104 5408   2.898   6.944   5.471 -2.0982  2.2339 -1.4720
   13MOL   H105 5409   2.813   7.041   5.587  0.5112  0.7283  1.0119
   13MOL   H106 5410   3.007   7.005   5.742 -0.0804 -0.3434 -0.1865
   13MOL   H107 5411   2.959   6.854   5.679 -0.6380  1.7414  2.2258
   13MOL   H108 5412   3.197   6.880   5.665  1.4388 -0.1864 -1.2031
   13MOL   H109 5413   3.136   6.853   5.505 -2.7121  0.2869  0.7647
   13MOL   H110 5414   3.285   6.881   5.352 -1.7792  1.2801  1.8195
   13MOL   H111 5415   3.323   7.028   5.275  3.7766  1.9173 -0.2358
   13MOL   C112 5416   3.500   6.911   5.312 -0.3403 -0.2111  0.4589
   13MOL   C113 5417   3.514   6.872   5.163 -0.2962 -0.3361  0.5461
   13MOL   C114 5418   3.540   7.004   5.073 -0.2228 -0.2787 -0.0291
   13MOL   C115 5419   3.551   6.976   4.925 -0.5330  0.0378  0.5652
   13MOL   C116 5420   3.420   6.904   4.872 -0.5605 -0.7940  0.3567
   13MOL   C117 5421   3.395   6.777   4.956 -0.5676 -0.1176 -0.0027
   13MOL   C118 5422   3.396   6.792   5.111 -0.3982  0.1555  0.5664
   13MOL   C119 5423   3.551   6.785   5.390 -0.4314  0.1372  0.4958
   13MOL   H120 5424   3.576   6.987   5.333 -1.7071  0.8058  1.8460
   13MOL   H121 5425   3.609   6.824   5.138 -1.9785 -1.6059 -4.1368
   13MOL   H122 5426   3.633   7.051   5.107  0.6854 -1.4860 -0.8080
   13MOL   H123 5427   3.464   7.082   5.083 -0.0297  0.1496 -1.7374
   13MOL   H124 5428   3.558   7.069   4.868  2.8156 -1.5795 -1.8168
   13MOL   H125 5429   3.636   6.911   4.903 -0.6190 -0.6016  2.0693
   13MOL   H126 5430   3.336   6.973   4.880  1.4951  1.7969  0.3889
   13MOL   H127 5431   3.440   6.876   4.769  0.4092  2.3234 -0.3809
   13MOL   H128 5432   3.305   6.720   4.931 -0.8615 -0.2026  1.1824
   13MOL   H129 5433   3.472   6.704   4.929 -2.6472 -2.6266  0.5554
   13MOL   H130 5434   3.377   6.696   5.159 -0.9175  0.0741  0.1989
   13MOL   H131 5435   3.302   6.842   5.135 -0.5220 -0.4635  1.4160
   13MOL   H132 5436   3.556   6.696   5.327  1.7443 -0.9519  2.1392
   13MOL   H133 5437   3.471   6.762   5.461 -0.6761 -0.8734 -0.1023
   13MOL   C134 5438   3.694   6.797   5.452  0.0222 -0.2682 -0.0218
   13MOL   C135 5439   3.783   6.666   5.434 -0.2505 -0.0269  0.0442
   13MOL   C136 5440   3.816   6.649   5.283  0.8450 -1.1699  0.3370
   13MOL   C137 5441   3.898   6.522   5.255 -0.1168  0.4933 -0.6543
   13MOL   C138 5442   3.824   6.402   5.315  0.0388 -0.3186  0.2008
   13MOL   C139 5443   3.819   6.428   5.469  0.3404  0.1246  0.0273
   13MOL   C140 5444   3.721   6.539   5.501  0.5669  0.5808 -0.3389
   13MOL   C141 5445   3.676   6.827   5.597 -1.4321 -0.0688 -0.4848
   13MOL   H142 5446   3.749   6.878   5.405  3.1702 -1.7057  1.0266
   13MOL   H143 5447   3.875   6.688   5.489 -0.7886 -2.2382  1.8995
   13MOL   H144 5448   3.725   6.640   5.223  0.6459  1.0821  0.2675
   13MOL   H145 5449   3.866   6.739   5.248 -1.9267  0.1240 -0.5173
   13MOL   H146 5450   3.994   6.544   5.303 -1.2542  0.7587  1.5526
   13MOL   H147 5451   3.914   6.505   5.148 -0.5953 -1.0394 -0.4969
   13MOL   H148 5452   3.731   6.380   5.263  0.0537 -3.4074  1.3372
   13MOL   H149 5453   3.879   6.309   5.301 -0.7123 -1.0009  1.6072
   13MOL   H150 5454   3.918   6.454   5.508 -2.0324  3.6061  4.1739
   13MOL   H151 5455   3.781   6.333   5.507  0.2093  0.5408  0.9616
   13MOL   H152 5456   3.636   6.505   5.441  0.2567  0.8981 -0.0826
   13MOL   H153 5457   3.689   6.544   5.605  1.1988 -3.3193  0.1287
   13MOL   H154 5458   3.628   6.740   5.641  0.2585 -0.0638  1.4275
   13MOL   H155 5459   3.608   6.912   5.605 -0.1877  0.7282  2.2818
   13MOL   C156 5460   3.801   6.885   5.677 -0.1275 -0.6948 -0.6267
   13MOL   C157 5461   3.771   6.893   5.829 -0.3712 -0.3343  0.7156
   13MOL   C158 5462   3.721   6.764   5.895  0.2936  0.4430  0.9613
   13MOL   C159 5463   3.685   6.777   6.041  0.0901 -0.3273  0.2128
   13MOL   C160 5464   3.808   6.825   6.119 -0.6833 -0.7030 -0.3301
   13MOL   C161 5465   3.857   6.953   6.063 -0.2994 -0.2557  0.5592
   13MOL   C162 5466   3.894   6.943   5.915 -0.1350  0.0377 -0.3368
   13MOL   C163 5467   3.848   7.027   5.616  0.6062 -0.3875  0.5216
   13MOL   H164 5468   3.883   6.815   5.662 -1.2909 -1.9203 -1.3721
   13MOL   H165 5469   3.684   6.959   5.831 -0.9640 -0.9864 -1.8107
   13MOL   H166 5470   3.626   6.732   5.852  1.0439  1.5767 -1.6527
   13MOL   H167 5471   3.800   6.689   5.884  0.8593  1.4034 -2.0568
   13MOL   H168 5472   3.604   6.847   6.062 -0.4961 -0.9421 -0.0149
   13MOL   H169 5473   3.650   6.680   6.076  1.1390 -0.3902  1.1052
   13MOL   H170 5474   3.884   6.748   6.131  1.1899  0.8858 -1.7386
   13MOL   H171 5475   3.773   6.861   6.216 -1.3296  0.6905 -1.0712
   13MOL   H172 5476   3.953   6.985   6.103 -0.5169 -1.5357  2.1277
   13MOL   H173 5477   3.791   7.038   6.078  0.9960  1.5389 -3.0912
   13MOL   H174 5478   3.939   7.037   5.885 -0.0224  0.1842  0.2932
   13MOL   H175 5479   3.979   6.875   5.908  0.7514  0.9367  1.3716
   13MOL   H176 5480   3.856   7.105   5.691  1.2800 -0.8453  0.9378
   13MOL   H177 5481   3.771   7.056   5.546  2.0871 -0.5342 -1.2038
   13MOL   C178 5482   3.992   7.019   5.551 -0.1541  0.1394  0.5022
   13MOL   C179 5483   4.011   7.135   5.444  0.2617 -0.4824 -0.2461
   13MOL   C180 5484   4.026   7.285   5.491 -0.3602 -0.3574 -0.1182
   13MOL   C181 5485   4.055   7.386   5.377 -0.1572 -0.3109  0.2265
   13MOL   C182 5486   3.955   7.372   5.261  0.9054  0.2013 -0.1596
   13MOL   C183 5487   3.956   7.228   5.210 -0.1516  0.1393  0.1434
   13MOL   C184 5488   3.907   7.136   5.324 -0.6490 -0.2383  0.4082
   13MOL   C185 5489   4.108   7.013   5.644  0.3533  0.0098  0.6740
   13MOL   H186 5490   3.992   6.931   5.487  1.4553  0.0576  0.6045
   13MOL   H187 5491   4.110   7.123   5.400  0.8822 -0.2456  1.0777
   13MOL   H188 5492   3.935   7.312   5.544 -0.0232  1.8119 -0.6049
   13MOL   H189 5493   4.107   7.288   5.563 -1.6861  0.8430  1.3732
   13MOL   H190 5494   4.156   7.374   5.340 -0.0920  0.7635  0.0210
   13MOL   H191 5495   4.041   7.481   5.429 -1.5448 -0.1423 -0.4376
   13MOL   H192 5496   3.858   7.413   5.288  0.9450  1.4395 -1.7841
   13MOL   H193 5497   3.977   7.441   5.179 -2.0020 -1.7116 -2.6655
   13MOL   H194 5498   4.058   7.200   5.185 -0.2003 -0.0904  0.1994
   13MOL   H195 5499   3.898   7.210   5.119  1.4055 -0.3202 -0.7721
   13MOL   H196 5500   3.809   7.167   5.361 -1.1156  0.3415 -1.2634
   13MOL   H197 5501   3.904   7.040   5.272  1.2274 -0.1130  0.0328
   13MOL   H198 5502   4.107   7.104   5.703  0.8087 -0.1629  0.9458
   13MOL   H199 5503   4.084   6.933   5.714 -1.0423 -0.5733 -0.4474
   13MOL   C200 5504   4.245   6.971   5.596  0.3989 -0.9039  0.1766
   13MOL   C201 5505   4.342   7.017   5.704  0.1426 -0.3109 -0.7007
   13MOL   C202 5506   4.361   6.929   5.826 -0.0850  0.0590  0.3061
   13MOL   C203 5507   4.444   6.998   5.933  0.1503 -0.2677  0.4315
   13MOL   C204 5508   4.580   7.033   5.889 -0.1486 -0.3414 -0.9062
   13MOL   C205 5509   4.563   7.117   5.770 -0.9099 -0.7146 -0.7626
   13MOL   C206 5510   4.484   7.055   5.656 -0.5861  0.1055  0.3378
   13MOL   C207 5511   4.258   6.827   5.565 -0.1341  0.2536  0.0230
   13MOL   H208 5512   4.264   7.031   5.506 -1.0877 -0.5338  0.0940
   13MOL   H209 5513   4.314   7.117   5.738  3.7867  0.1045  1.3549
   13MOL   H210 5514   4.424   6.845   5.796  0.1878  1.0470 -2.0279
   13MOL   H211 5515   4.266   6.890   5.859 -2.3112  5.0187  0.2765
   13MOL   H212 5516   4.373   7.075   5.966  1.0326 -0.2383  2.3541
   13MOL   H213 5517   4.445   6.928   6.017  1.7315 -2.4643 -1.3900
   13MOL   H214 5518   4.644   7.077   5.965 -0.2988 -0.6614 -0.5950
   13MOL   H215 5519   4.630   6.938   5.867 -4.1484 -3.0265  0.9591
   13MOL   H216 5520   4.521   7.213   5.797 -2.1481 -0.7479 -2.4816
   13MOL   H217 5521   4.660   7.131   5.723 -0.4838 -1.6083 -0.1748
   13MOL   H218 5522   4.483   7.124   5.572  1.8136  0.6404  0.7197
   13MOL   H219 5523   4.542   6.968   5.625 -1.1408 -0.4959  0.9792
   13MOL   H220 5524   4.279   6.762   5.650 -0.5565 -1.4252 -1.1379
   13MOL   H221 5525   4.160   6.793   5.532  0.1546  0.5310 -1.1292
   13MOL   C222 5526   4.357   6.781   5.451 -0.0791  0.2457 -0.5858
   13MOL   C223 5527   4.392   6.631   5.458  0.9015 -0.2289 -0.4079
   13MOL   C224 5528   4.261   6.535   5.447 -0.3186  0.9090 -0.4636
   13MOL   C225 5529   4.292   6.388   5.487 -0.2637  1.0039  0.2056
   13MOL   C226 5530   4.394   6.369   5.598 -0.9657 -0.0494  0.1079
   13MOL   C227 5531   4.526   6.449   5.578 -0.5690  0.6336 -0.2416
   13MOL   C228 5532   4.480   6.594   5.579  0.4816 -0.4108  0.6475
   13MOL   C229 5533   4.297   6.821   5.308  0.2762 -0.4948  0.2258
   13MOL   H230 5534   4.446   6.842   5.464 -0.7269  1.2924 -1.0497
   13MOL   H231 5535   4.454   6.608   5.371 -0.0779  3.6211 -2.2041
   13MOL   H232 5536   4.201   6.571   5.531  1.1240  0.7473  0.6414
   13MOL   H233 5537   4.204   6.541   5.354 -0.5353  0.8880 -0.3311
   13MOL   H234 5538   4.333   6.335   5.401 -1.3834 -1.1490  0.9650
   13MOL   H235 5539   4.206   6.324   5.503 -0.8449  1.5097 -0.8232
   13MOL   H236 5540   4.352   6.402   5.693  0.0366  0.3118  0.4306
   13MOL   H237 5541   4.423   6.264   5.596  2.3697  0.8373 -1.0512
   13MOL   H238 5542   4.563   6.429   5.477 -3.0551  0.7567 -1.2095
   13MOL   H239 5543   4.596   6.429   5.659 -1.4190  1.0656  0.6069
   13MOL   H240 5544   4.431   6.622   5.672 -1.9940  1.5570 -1.1815
   13MOL   H241 5545   4.565   6.659   5.564  0.3600 -0.6550 -1.2984
   13MOL   H242 5546   4.234   6.909   5.323 -0.5753 -0.6687 -2.2576
   13MOL   H243 5547   4.236   6.736   5.277  1.0656 -0.1079 -2.4670
   13MOL   C244 5548   4.401   6.859   5.199  0.1237 -0.0047  0.3148
   13MOL   C245 5549   4.451   7.012   5.217  0.5645  0.8930  0.1474
   13MOL   C246 5550   4.346   7.118   5.182  0.4232  0.1236  0.1166
   13MOL   C247 5551   4.389   7.256   5.218  0.0869 -0.5192 -0.2509
   13MOL   C248 5552   4.512   7.281   5.133 -0.0324 -0.6598 -0.1249
   13MOL   C249 5553   4.627   7.182   5.167  0.1403  0.4556 -0.2823
   13MOL   C250 5554   4.582   7.041   5.138  0.0282 -0.1252 -0.4436
   13MOL   C251 5555   4.349   6.829   5.056 -0.3901  0.3168  0.0208
   13MOL   H252 5556   4.484   6.789   5.217 -1.6976 -1.8312  1.9102
   13MOL   H253 5557   4.490   7.030   5.317  0.2139 -0.0491  0.4642
   13MOL   H254 5558   4.255   7.084   5.230  1.8785 -4.5667 -0.1678
   13MOL   H255 5559   4.321   7.116   5.076 -0.7981  1.9941  0.3510
   13MOL   H256 5560   4.318   7.333   5.189  0.2844 -0.4269 -0.4914
   13MOL   H257 5561   4.410   7.263   5.325  0.0563  0.1758 -0.2864
   13MOL   H258 5562   4.492   7.289   5.026 -0.8410  1.1899  0.1360
   13MOL   H259 5563   4.540   7.385   5.151  1.2883 -0.6639 -1.9806
   13MOL   H260 5564   4.651   7.190   5.273  1.3335  0.8875 -0.5737
   13MOL   H261 5565   4.719   7.193   5.110  1.3633 -1.6188  1.2261
   13MOL   H262 5566   4.557   7.039   5.032  1.9763 -0.4445 -0.9274
   13MOL   H263 5567   4.655   6.964   5.163 -0.3801 -0.7260 -1.1108
   13MOL   H264 5568   4.371   6.914   4.991  0.3404  1.7323  2.0767
   13MOL   H265 5569   4.240   6.824   5.055 -0.5365  2.8183  0.3334
   13MOL   C266 5570   4.409   6.708   4.988 -0.5697 -0.2847  0.2031
   13MOL   C267 5571   4.350   6.574   5.041 -0.4247  0.4413 -0.3486
   13MOL   C268 5572   4.442   6.451   5.024  0.0449  0.2523  0.2075
   13MOL   C269 5573   4.378   6.324   5.072 -0.3016  0.0327 -0.3735
   13MOL   C270 5574   4.244   6.295   5.011 -0.0145 -0.0422 -0.1816
   13MOL   C271 5575   4.152   6.418   5.043  0.4953  0.6533  0.4196
   13MOL   C272 5576   4.207   6.551   4.985 -0.0451 -0.5626 -0.2932
   13MOL   C273 5577   4.407   6.732   4.842 -0.1660 -0.0749 -0.3589
   13MOL   H274 5578   4.514   6.716   5.016 -0.3514  0.1598 -0.7167
   13MOL   H275 5579   4.341   6.581   5.149 -1.2337 -1.7882 -0.2427
   13MOL   H276 5580   4.470   6.433   4.920  0.3078  0.2779  0.2730
   13MOL   H277 5581   4.539   6.457   5.072  0.8815 -2.9974 -0.8986
   13MOL   H278 5582   4.365   6.332   5.180 -2.5416  0.1935 -0.6295
   13MOL   H279 5583   4.441   6.235   5.061  0.2298  0.0299  2.2831
   13MOL   H280 5584   4.253   6.278   4.904 -1.5135  1.2757 -0.5331
   13MOL   H281 5585   4.215   6.195   5.044 -1.3883  0.4251  0.0648
   13MOL   H282 5586   4.131   6.424   5.150  0.2503  1.9489  0.3139
   13MOL   H283 5587   4.055   6.397   4.998  1.9617 -0.7932 -2.2200
   13MOL   H284 5588   4.143   6.637   5.004 -0.6016 -0.7790 -1.1480
   13MOL   H285 5589   4.220   6.532   4.878  1.0821 -1.8818  0.0553
   13MOL   H286 5590   4.314   6.780   4.813  0.8441  1.5836 -0.9148
   13MOL   H287 5591   4.393   6.637   4.791  1.2209 -1.3573  1.5528
   13MOL   C288 5592   4.535   6.798   4.792  0.5972  0.3389 -0.4919
   13MOL   C289 5593   4.507   6.863   4.654  0.0047  0.1799 -0.1180
   13MOL   C290 5594   4.442   6.774   4.547  0.6399  0.2885  0.5817
   13MOL   C291 5595   4.432   6.841   4.411 -0.0057  0.8249  0.4676
   13MOL   C292 5596   4.350   6.970   4.430 -0.3198 -0.3223 -0.3480
   13MOL   C293 5597   4.431   7.061   4.526 -0.2931 -0.1740  0.1318
   13MOL   C294 5598   4.440   6.997   4.664  0.2123 -0.2430  1.0140
   13MOL   C295 5599   4.643   6.687   4.784 -0.6850  0.2961  0.0061
   13MOL   H296 5600   4.579   6.869   4.862  2.2429 -1.6705  0.5712
   13MOL   H297 5601   4.605   6.881   4.610 -0.9335 -1.5041 -3.0797
   13MOL   H298 5602   4.508   6.689   4.534 -0.7251 -1.0707  2.3459
   13MOL   H299 5603   4.343   6.747   4.583  0.5189 -1.1363 -0.7778
   13MOL   H300 5604   4.523   6.850   4.351 -0.6082  1.3002 -0.3763
   13MOL   H301 5605   4.378   6.777   4.341 -2.2078  2.6563  0.4629
   13MOL   H302 5606   4.250   6.945   4.465  0.3499 -1.4817  0.7637
   13MOL   H303 5607   4.336   7.025   4.336 -1.0946 -2.3981 -1.4799
   13MOL   H304 5608   4.375   7.154   4.520 -1.2350 -0.7969 -1.1785
   13MOL   H305 5609   4.532   7.078   4.488  0.1213 -0.2664  1.1836
   13MOL   H306 5610   4.337   6.990   4.699 -0.7428 -0.3527 -1.6452
   13MOL   H307 5611   4.487   7.068   4.731  1.4372  0.1996 -0.2828
   13MOL   H308 5612   4.652   6.617   4.867  1.1335  2.0554  1.3279
   13MOL   H309 5613   4.623   6.623   4.698  0.2728  2.1940 -1.6709
   13MOL   C310 5614   4.785   6.740   4.771 -0.2903  0.1001  0.5688
   13MOL   C311 5615   4.845   6.789   4.902  0.3093  0.0762 -0.2964
   13MOL   C312 5616   4.894   6.677   4.994 -0.2468  1.0067  0.1726
   13MOL   C313 5617   4.946   6.733   5.128  0.5034 -0.5661  0.7079
   13MOL   C314 5618   5.049   6.844   5.101 -0.4302  0.9560  0.2173
   13MOL   C315 5619   4.994   6.960   5.013 -0.6660  0.2547  0.3392
   13MOL   C316 5620   4.948   6.905   4.883  0.0422 -0.3874 -0.5021
   13MOL   C317 5621   4.887   6.645   4.699  0.1218  0.3799  0.3371
   13MOL   H318 5622   4.790   6.830   4.709  1.0150 -0.1645  0.2847
   13MOL   H319 5623   4.761   6.827   4.961  0.7883  1.0429 -0.2196
   13MOL   H320 5624   4.814   6.609   5.022  0.7522 -0.6424 -0.8873
   13MOL   H321 5625   4.965   6.607   4.948  1.4770  1.7535  1.6344
   13MOL   H322 5626   4.995   6.656   5.187  0.6785 -0.2046  1.0373
   13MOL   H323 5627   4.859   6.770   5.183  0.6138  1.6215 -0.5318
   13MOL   H324 5628   5.076   6.887   5.198 -1.1498  1.6488  0.1066
   13MOL   H325 5629   5.144   6.811   5.060 -1.5959 -2.7944  0.2611
   13MOL   H326 5630   4.923   7.016   5.073 -1.1666 -1.0762  1.0207
   13MOL   H327 5631   5.078   7.026   4.992 -0.5504  0.5532  1.7034
   13MOL   H328 5632   5.024   6.884   4.808  0.9288  1.1688 -0.0652
   13MOL   H329 5633   4.908   6.995   4.837 -0.1050 -1.2436 -2.0825
   13MOL   H330 5634   4.891   6.547   4.746 -2.8268 -0.3905 -0.9340
   13MOL   H331 5635   4.990   6.682   4.699 -0.3470  1.7289 -0.2331
   13MOL   C332 5636   4.838   6.616   4.549 -0.4711  0.1407  0.1242
   13MOL   C333 5637   4.792   6.469   4.541 -0.1992 -0.1104  0.1698
   13MOL   C334 5638   4.910   6.368   4.543  0.2001  0.4517  0.7177
   13MOL   C335 5639   4.856   6.222   4.530  0.0926  0.4975 -0.4549
   13MOL   C336 5640   4.748   6.204   4.427  0.2361  0.1472 -0.6005
   13MOL   C337 5641   4.641   6.315   4.418 -0.2108  0.1928 -0.5154
   13MOL   C338 5642   4.707   6.451   4.411  0.2940  0.0336 -0.1932
   13MOL   C339 5643   4.957   6.648   4.451 -0.1176 -0.1580 -0.7110
   13MOL   H340 5644   4.757   6.684   4.525 -1.8056 -0.4404  2.7934
   13MOL   H341 5645   4.741   6.448   4.635 -0.7264  0.8266  0.0886
   13MOL   H342 5646   4.972   6.389   4.456  1.2489  0.3656  1.4257
   13MOL   H343 5647   4.973   6.377   4.632  0.2408  1.1759  0.6187
   13MOL   H344 5648   4.938   6.153   4.507  0.6376  1.3081 -0.9600
   13MOL   H345 5649   4.821   6.192   4.629 -0.1486  1.6789 -0.1776
   13MOL   H346 5650   4.792   6.191   4.328 -1.8603 -0.2165 -1.5280
   13MOL   H347 5651   4.705   6.106   4.451 -2.1202  1.4916  0.8466
   13MOL   H348 5652   4.571   6.316   4.502 -0.5449 -3.7524 -0.6308
   13MOL   H349 5653   4.589   6.291   4.325  0.1092  0.5953 -0.7964
   13MOL   H350 5654   4.636   6.534   4.412 -1.2692 -1.2837  0.7813
   13MOL   H351 5655   4.767   6.467   4.321  0.5259 -0.1395 -0.0710
   13MOL   H352 5656   4.932   6.624   4.348 -1.8525  2.3736 -0.9330
   13MOL   H353 5657   5.049   6.600   4.482 -0.0005  0.6794  0.2881
   13MOL   C354 5658   5.013   6.793   4.455 -0.3768  0.3679  0.6121
   13MOL   C355 5659   4.921   6.900   4.391 -0.3779 -0.5366 -0.4780
   13MOL   C356 5660   4.927   6.909   4.238  0.1622  0.0402  0.0014
   13MOL   C357 5661   4.819   7.016   4.192  0.1051  0.3771  0.2203
   13MOL   C358 5662   4.837   7.154   4.259  0.0235 -0.5082  0.0876
   13MOL   C359 5663   4.843   7.144   4.419 -0.5615 -0.0470  0.1904
   13MOL   C360 5664   4.948   7.041   4.448  0.3538 -0.3626  0.4649
   13MOL   C361 5665   5.157   6.796   4.393 -0.1330 -0.1643 -0.0798
   13MOL   H362 5666   5.022   6.814   4.562  1.2326  1.0838  0.3523
   13MOL   H363 5667   4.820   6.870   4.418 -0.5689 -2.8841 -3.4968
   13MOL   H364 5668   4.903   6.813   4.193  1.4446 -0.5271  0.4901
   13MOL   H365 5669   5.021   6.941   4.193 -0.1603  1.5536  0.3397
   13MOL   H366 5670   4.816   7.029   4.084 -2.5299  2.0318  0.4399
   13MOL   H367 5671   4.724   6.972   4.222 -0.4867  1.8022  0.4741
   13MOL   H368 5672   4.929   7.187   4.211 -0.3967  2.2793  1.1474
   13MOL   H369 5673   4.766   7.231   4.230 -0.1028 -0.6408  0.0445
   13MOL   H370 5674   4.888   7.231   4.467  0.1403 -0.8500  1.0090
   13MOL   H371 5675   4.751   7.117   4.471  0.1531 -0.9570  1.0135
   13MOL   H372 5676   4.959   7.023   4.555  0.1421 -4.1467 -0.0782
   13MOL   H373 5677   5.046   7.082   4.425  0.6170 -0.3687  1.5547
   13MOL   H374 5678   5.156   6.803   4.284 -2.5879 -1.1616 -0.1312
   13MOL   H375 5679   5.204   6.699   4.410  0.0684 -0.3630 -1.6858
   13MOL   C376 5680   5.263   6.904   4.445 -0.2235  0.8094  0.2079
   13MOL   C377 5681   5.280   6.893   4.594 -0.4381 -0.5832  0.9234
   13MOL   C378 5682   5.343   7.027   4.650  0.0124  0.4978 -0.3500
   13MOL   C379 5683   5.333   7.036   4.802 -0.1209 -0.2662  0.1640
   13MOL   C380 5684   5.407   6.914   4.862 -0.0365  0.2252  0.0580
   13MOL   C381 5685   5.370   6.776   4.801 -0.0160 -0.0769 -0.1490
   13MOL   C382 5686   5.366   6.781   4.648 -0.1595 -0.6404  0.4444
   13MOL   C383 5687   5.399   6.890   4.363  0.3463  0.3186 -0.8363
   13MOL   H384 5688   5.237   7.006   4.418  0.8916  0.7655 -1.0684
   13MOL   H385 5689   5.181   6.880   4.637 -1.4978  0.5406 -1.0951
   13MOL   H386 5690   5.449   7.032   4.621 -0.2533  2.1102 -1.0836
   13MOL   H387 5691   5.303   7.115   4.601 -2.0659  0.3249  0.9993
   13MOL   H388 5692   5.227   7.033   4.828 -0.4390  0.7237 -1.0099
   13MOL   H389 5693   5.374   7.130   4.838 -0.5150  0.0774 -0.2856
   13MOL   H390 5694   5.513   6.937   4.849  0.1249 -0.1147  0.7967
   13MOL   H391 5695   5.392   6.907   4.969 -0.4498 -1.5344 -0.1071
   13MOL   H392 5696   5.454   6.713   4.831 -0.1639  0.0908  0.6259
   13MOL   H393 5697   5.281   6.727   4.839 -0.4585 -0.6073 -1.8332
   13MOL   H394 5698   5.464   6.802   4.606 -1.1633  0.9332 -1.1587
   13MOL   H395 5699   5.319   6.684   4.627 -0.4163 -0.7811  1.6078
   13MOL   H396 5700   5.428   6.785   4.377 -0.0357  0.3247  0.0275
   13MOL   H397 5701   5.480   6.930   4.424 -1.4211  2.7037  0.0187
   13MOL   C398 5702   5.405   6.938   4.216 -0.1839  0.1382 -0.5963
   13MOL   C399 5703   5.437   7.088   4.203  0.1363  0.3564  0.0664
   13MOL   C400 5704   5.584   7.127   4.216  0.1863 -0.4955  0.1657
   13MOL   C401 5705   5.589   7.283   4.219 -0.5065  0.5356  0.5879
   13MOL   C402 5706   5.534   7.353   4.097  0.1831  0.4447  0.0079
   13MOL   C403 5707   5.391   7.306   4.062  0.1535  0.4523 -0.5500
   13MOL   C404 5708   5.386   7.152   4.074 -0.0737 -0.0816  0.1966
   13MOL   C405 5709   5.500   6.847   4.133 -0.5043 -0.7850  0.1538
   13MOL   H406 5710   5.304   6.936   4.174  1.0201 -0.2513 -3.5668
   13MOL   H407 5711   5.383   7.135   4.285  0.2525  1.4881 -0.4879
   13MOL   H408 5712   5.648   7.086   4.137 -0.0804 -0.5015 -0.0491
   13MOL   H409 5713   5.617   7.093   4.313  1.0419 -1.3199 -0.4093
   13MOL   H410 5714   5.692   7.310   4.238  0.3612 -2.2271  0.0977
   13MOL   H411 5715   5.542   7.320   4.310  1.7135  3.5827  0.5482
   13MOL   H412 5716   5.599   7.342   4.010  0.0343 -0.1723 -0.0248
   13MOL   H413 5717   5.528   7.462   4.099  3.3592  0.6822 -0.5103
   13MOL   H414 5718   5.314   7.344   4.130  0.7868  1.7966 -0.5660
   13MOL   H415 5719   5.362   7.333   3.961 -0.0901 -1.7251 -1.0994
   13MOL   H416 5720   5.283   7.121   4.058  0.1227 -1.8574  2.1315
   13MOL   H417 5721   5.440   7.108   3.990  0.1207 -0.1285  0.3442
   13MOL   H418 5722   5.527   6.904   4.045  1.0713  1.1016  1.8132
   13MOL   H419 5723   5.596   6.847   4.184 -0.4195  0.7110 -0.0049
   13MOL   C420 5724   5.447   6.705   4.092  0.3716 -0.2327 -0.5363
   13MOL   C421 5725   5.556   6.624   4.015 -0.2765  0.2995  0.3062
   13MOL   C422 5726   5.670   6.574   4.099 -0.0745  0.0536 -0.3982
   13MOL   C423 5727   5.756   6.481   4.010 -0.4121 -0.1633  0.1860
   13MOL   C424 5728   5.813   6.549   3.885  0.8786 -0.2322 -0.5185
   13MOL   C425 5729   5.703   6.612   3.797  0.2075  0.0399 -0.0522
   13MOL   C426 5730   5.613   6.700   3.885 -0.2648 -0.1038  0.8736
   13MOL   C427 5731   5.323   6.706   4.010  0.2368 -0.7109  0.7515
   13MOL   H428 5732   5.419   6.660   4.188 -0.1636  0.6036 -0.2955
   13MOL   H429 5733   5.511   6.528   3.992  1.9717 -0.5891 -0.5060
   13MOL   H430 5734   5.733   6.652   4.142  1.4958 -0.6318 -1.4145
   13MOL   H431 5735   5.644   6.514   4.186 -0.7603  0.5188 -0.2831
   13MOL   H432 5736   5.844   6.447   4.065 -0.6298 -1.4909 -0.2586
   13MOL   H433 5737   5.697   6.393   3.983  0.1971  0.0673 -2.0209
   13MOL   H434 5738   5.864   6.478   3.820 -0.6289 -0.0103 -1.9661
   13MOL   H435 5739   5.885   6.627   3.912  0.8112 -0.5949  0.7333
   13MOL   H436 5740   5.646   6.535   3.745 -0.0910  0.9265 -1.0505
   13MOL   H437 5741   5.737   6.678   3.717 -1.7937  0.5216 -0.5393
   13MOL   H438 5742   5.669   6.789   3.914  1.3175 -0.9695  0.5043
   13MOL   H439 5743   5.525   6.733   3.830  0.5773  1.8834  0.7027
   13MOL   H440 5744   5.341   6.785   3.937  1.3405 -0.6927  1.0372
   13MOL   H441 5745   5.287   6.611   3.970  0.1482 -0.8005  1.0442
   13MOL   H442 5746   5.237   6.729   4.073  0.1508  1.2190 -0.0422
   14MOL     C1 5747   0.014   5.338   1.525 -0.0188 -0.4952  0.2444
   14MOL     C2 5748   0.039   5.434   1.410 -0.3120 -0.3237  0.3587
   14MOL     C3 5749   0.130   5.560   1.436  0.3906 -0.1534  0.5420
   14MOL     C4 5750   0.170   5.651   1.320  0.1115  0.0621 -0.4186
   14MOL     C5 5751   0.058   5.683   1.230  0.3056  0.9734  0.1340
   14MOL     C6 5752   7.740   5.567   1.206 -0.6974  0.2324  0.2161
   14MOL     C7 5753   7.696   5.472   1.326  0.7608  0.1567 -0.1953
   14MOL     C8 5754   7.700   5.385   1.640  0.8013 -0.8053  0.2893
   14MOL     H9 5755   7.739   5.246   1.490  0.2088 -0.5234  0.0040
   14MOL    H10 5756   0.108   5.383   1.343  0.3629  0.9081  0.1076
   14MOL    H11 5757   0.063   5.635   1.480  1.5429  0.7230  0.8177
   14MOL    H12 5758   0.210   5.538   1.506  0.5109  2.1276  1.1795
   14MOL    H13 5759   0.236   5.600   1.251 -1.3858 -0.7984 -1.2356
   14MOL    H14 5760   0.219   5.742   1.354  1.0672 -0.6888  0.2533
   14MOL    H15 5761   0.107   5.714   1.138  1.8554 -2.5606 -0.3213
   14MOL    H16 5762   7.769   5.763   1.271 -1.7058 -0.1237 -0.6361
   14MOL    H17 5763   7.659   5.600   1.142 -0.1688 -2.5354 -2.0069
   14MOL    H18 5764   0.017   5.517   1.122 -2.9172 -0.9362 -0.4124
   14MOL    H19 5765   7.647   5.383   1.286  1.1176 -0.2602  0.2855
   14MOL    H20 5766   7.625   5.518   1.395  3.7965  0.3063  2.9285
   14MOL    H21 5767   7.607   5.431   1.606  0.4640 -1.8181 -0.1822
   14MOL    H22 5768   7.752   5.470   1.684  1.1357 -0.2164 -1.2017
   14MOL    H23 5769   0.113   5.311   1.562  1.0766  0.8201 -1.6081
   14MOL    C24 5770   7.680   5.277   1.747 -0.2444  0.0902  0.0929
   14MOL    C25 5771   7.644   5.327   1.892 -0.1865 -0.0696 -0.1524
   14MOL    C26 5772   7.525   5.432   1.900 -0.1772  0.0654  0.4821
   14MOL    C27 5773   7.489   5.451   2.051  0.3349 -0.3542 -0.9221
   14MOL    C28 5774   7.607   5.505   2.126 -1.1540 -0.6332  0.4661
   14MOL    C29 5775   7.729   5.408   2.124  0.1574  0.3452 -0.1201
   14MOL    C30 5776   7.762   5.373   1.973  0.2977 -0.3356  0.4286
   14MOL    C31 5777   7.578   5.169   1.701  0.0903  0.2249 -0.2822
   14MOL    H32 5778   0.005   5.228   1.754 -0.0851  0.2392 -1.0472
   14MOL    H33 5779   7.617   5.234   1.942  1.3219 -0.6904 -0.4737
   14MOL    H34 5780   7.430   5.413   1.849  0.0518  1.0240 -0.3118
   14MOL    H35 5781   7.559   5.525   1.855 -0.0640  0.8713  2.1680
   14MOL    H36 5782   7.396   5.506   2.065 -0.0580 -1.0791 -0.6530
   14MOL    H37 5783   7.463   5.355   2.097 -0.2118  0.4882  0.5481
   14MOL    H38 5784   7.566   5.520   2.226 -1.9082  1.7747 -0.1637
   14MOL    H39 5785   7.632   5.601   2.081  1.1393 -1.6465 -0.4989
   14MOL    H40 5786   0.045   5.458   2.164  0.3675  2.1086 -2.6751
   14MOL    H41 5787   7.716   5.317   2.182 -0.4762  0.6682  0.2527
   14MOL    H42 5788   0.030   5.463   1.927 -2.5808 -0.2739 -2.2072
   14MOL    H43 5789   0.059   5.290   1.962 -1.6563 -2.0509  0.6459
   14MOL    H44 5790   7.538   5.175   1.599  0.8924 -0.4737 -0.6449
   14MOL    H45 5791   7.480   5.190   1.745 -0.5421 -0.8516 -1.1502
   14MOL    C46 5792   7.622   5.030   1.734 -0.2112  0.8726 -0.5419
   14MOL    C47 5793   7.694   4.957   1.616 -0.2463 -0.5253 -0.2286
   14MOL    C48 5794   7.603   4.934   1.487 -0.4692  0.3613  0.4479
   14MOL    C49 5795   7.693   4.883   1.375 -0.0462  0.5099  0.6425
   14MOL    C50 5796   0.003   4.752   1.406 -0.3199  0.4163  0.0005
   14MOL    C51 5797   0.074   4.767   1.532 -0.7830  0.1175 -0.6778
   14MOL    C52 5798   7.765   4.824   1.650  0.5043 -0.0453  0.3424
   14MOL    C53 5799   7.506   4.939   1.791  0.2731  0.8602 -0.0539
   14MOL    H54 5800   7.702   5.030   1.807  0.9190 -1.3760 -1.7154
   14MOL    H55 5801   7.770   5.031   1.592 -1.3798  1.3128  1.6937
   14MOL    H56 5802   7.531   4.852   1.494 -1.8820  1.6332  1.1261
   14MOL    H57 5803   7.554   5.021   1.443  1.5613  0.3438 -1.9855
   14MOL    H58 5804   7.767   4.960   1.357  0.4211 -0.2152 -0.6015
   14MOL    H59 5805   7.636   4.878   1.282  1.7636 -1.1969 -0.4121
   14MOL    H60 5806   7.704   4.670   1.415  0.0391  0.2103  1.0461
   14MOL    H61 5807   0.070   4.729   1.322 -0.2004 -1.0760  0.4856
   14MOL    H62 5808   0.164   4.827   1.520 -0.4608 -0.8328 -3.2543
   14MOL    H63 5809   0.126   4.675   1.557 -1.8530  0.5297  3.6388
   14MOL    H64 5810   7.698   4.746   1.686  1.2614  0.4321  2.8652
   14MOL    H65 5811   0.057   4.835   1.737  1.0307  0.2116 -0.0781
   14MOL    H66 5812   7.522   4.834   1.767  2.7647  1.2798 -0.2867
   14MOL    H67 5813   7.416   4.974   1.738  2.1074  1.6263 -2.7790
   14MOL    C68 5814   7.470   4.955   1.943 -0.1419  0.7519  0.0827
   14MOL    C69 5815   7.341   5.026   1.986  0.0992  0.5393 -0.3046
   14MOL    C70 5816   7.204   4.946   1.969  0.4173  0.0028  0.5426
   14MOL    C71 5817   7.081   5.036   2.012 -0.1226 -0.1755 -1.5481
   14MOL    C72 5818   7.110   5.095   2.152  0.0344  0.2700 -0.0376
   14MOL    C73 5819   7.241   5.167   2.163 -0.1750 -0.8712  0.2163
   14MOL    C74 5820   7.357   5.077   2.133  0.2141 -0.0193 -0.3841
   14MOL    C75 5821   7.487   4.822   2.021 -0.4935  0.0948 -1.0964
   14MOL    H76 5822   7.541   5.026   1.983 -0.5498  1.7312 -0.9013
   14MOL    H77 5823   7.341   5.114   1.923 -0.5043  0.1827 -0.8126
   14MOL    H78 5824   7.203   4.855   2.028 -0.0149  0.5582  1.3979
   14MOL    H79 5825   7.197   4.917   1.864 -0.9471  0.4594  0.4972
   14MOL    H80 5826   7.058   5.125   1.953 -1.0771 -1.1045 -2.6064
   14MOL    H81 5827   6.989   4.978   2.008 -1.2205  1.4202  0.0762
   14MOL    H82 5828   7.107   5.020   2.231 -1.1113  3.4619  3.1035
   14MOL    H83 5829   7.031   5.164   2.180  0.2676  1.1187 -1.4346
   14MOL    H84 5830   7.253   5.198   2.267 -0.3097  0.8263 -0.2696
   14MOL    H85 5831   7.244   5.258   2.103  0.4035 -2.3214 -2.0111
   14MOL    H86 5832   7.344   4.995   2.204  1.2871  0.5732  0.5352
   14MOL    H87 5833   7.457   5.116   2.155  1.3673 -2.7243 -0.7153
   14MOL    H88 5834   7.453   4.829   2.125 -1.8445 -1.7202 -1.3899
   14MOL    H89 5835   7.410   4.759   1.977 -2.6340  3.4190 -2.2359
   14MOL    C90 5836   7.629   4.753   2.027  0.4219 -0.3019 -0.4716
   14MOL    C91 5837   7.752   4.850   2.065  0.0118 -0.0572 -1.3876
   14MOL    C92 5838   7.737   4.920   2.207 -0.2600  0.3154  0.1772
   14MOL    C93 5839   0.074   5.037   2.208 -0.0941 -0.6786  0.3163
   14MOL    C94 5840   0.216   4.979   2.186  0.2182  0.2541  0.3649
   14MOL    C95 5841   0.219   4.908   2.054 -0.1906 -0.1294 -0.1696
   14MOL    C96 5842   0.124   4.796   2.050  0.4099  0.3841 -0.0439
   14MOL    C97 5843   7.632   4.628   2.121 -0.0837  0.5256 -0.2105
   14MOL    H98 5844   7.645   4.711   1.928  0.1653  0.9088 -1.0413
   14MOL    H99 5845   7.756   4.925   1.986  1.9089 -0.4682 -1.7216
   14MOL   H100 5846   7.746   4.853   2.293  0.3680  0.2327  0.0524
   14MOL   H101 5847   7.640   4.968   2.209 -1.1204 -1.3104 -0.9213
   14MOL   H102 5848   0.069   5.087   2.305 -1.3425  1.0893 -0.6440
   14MOL   H103 5849   0.047   5.110   2.131 -2.0086 -0.9856  0.6752
   14MOL   H104 5850   0.238   4.904   2.262  1.4402  2.2238  2.0298
   14MOL   H105 5851   0.293   5.056   2.189 -0.5160  1.0615 -1.1479
   14MOL   H106 5852   0.190   4.975   1.973  1.0764  0.2165 -0.3476
   14MOL   H107 5853   0.318   4.874   2.023  0.0436  0.9415 -0.6221
   14MOL   H108 5854   0.135   4.732   1.963 -2.1904  0.1009 -0.2254
   14MOL   H109 5855   0.144   4.727   2.132 -1.0267  0.2809  0.2387
   14MOL   H110 5856   7.726   4.576   2.100 -0.3795 -0.3119  0.5224
   14MOL   H111 5857   7.641   4.665   2.223  0.6006  0.7167 -0.3365
   14MOL   C112 5858   7.525   4.526   2.105 -1.1583  0.5506 -0.0103
   14MOL   C113 5859   7.416   4.550   2.214  0.0928  0.6828  0.0597
   14MOL   C114 5860   7.439   4.482   2.353  0.1685  0.4285  0.1290
   14MOL   C115 5861   7.327   4.525   2.456  0.2249 -0.1222  0.7667
   14MOL   C116 5862   7.190   4.484   2.407 -0.5038  0.0482  0.2633
   14MOL   C117 5863   7.166   4.545   2.269  0.2396 -0.3225  0.1370
   14MOL   C118 5864   7.280   4.493   2.169 -0.1401  0.0923  0.2531
   14MOL   C119 5865   7.568   4.382   2.076  0.0019  0.1681  0.4498
   14MOL   H120 5866   7.471   4.555   2.015 -2.0207 -1.7813 -0.2797
   14MOL   H121 5867   7.413   4.656   2.239  3.8487  1.4590 -2.3836
   14MOL   H122 5868   7.535   4.515   2.393  0.3467  1.3145 -0.9906
   14MOL   H123 5869   7.438   4.373   2.349  0.1909  0.3707  1.6409
   14MOL   H124 5870   7.362   4.470   2.543 -2.1549  0.0971  1.9076
   14MOL   H125 5871   7.337   4.630   2.484 -1.0937  0.0640  0.5847
   14MOL   H126 5872   7.201   4.377   2.393  1.7145  0.4636 -1.3693
   14MOL   H127 5873   7.109   4.507   2.476 -0.6539 -1.5253  0.6170
   14MOL   H128 5874   7.067   4.520   2.231  0.4493  0.5191 -0.9855
   14MOL   H129 5875   7.169   4.654   2.267 -2.9781 -0.1946 -2.2009
   14MOL   H130 5876   7.267   4.529   2.066 -2.3043 -0.5323  0.3005
   14MOL   H131 5877   7.270   4.385   2.170  0.1126  0.0792  1.2904
   14MOL   H132 5878   7.479   4.320   2.068 -0.5373  1.1830 -1.8523
   14MOL   H133 5879   7.616   4.346   2.167 -0.4122 -2.0573 -0.1827
   14MOL   C134 5880   7.654   4.369   1.952  0.0035 -0.0554  0.1573
   14MOL   C135 5881   7.565   4.347   1.828 -0.3669 -0.6900 -0.5562
   14MOL   C136 5882   7.501   4.207   1.810 -0.5073 -0.4104 -0.2338
   14MOL   C137 5883   7.408   4.197   1.689  0.0080  0.3377 -0.0531
   14MOL   C138 5884   7.472   4.242   1.553  0.1640  0.0191  0.0554
   14MOL   C139 5885   7.532   4.385   1.573 -0.0213  0.9718 -0.6257
   14MOL   C140 5886   7.637   4.393   1.694  0.2505  0.3519 -0.2883
   14MOL   C141 5887   7.762   4.252   1.968  0.0166 -0.0603  0.2995
   14MOL   H142 5888   7.718   4.454   1.929 -1.4892  1.1107  0.2525
   14MOL   H143 5889   7.482   4.415   1.844  0.7156  0.5455 -0.1271
   14MOL   H144 5890   7.589   4.143   1.805 -0.1114  0.1711 -0.8533
   14MOL   H145 5891   7.447   4.165   1.894 -0.8405  0.7448  0.1334
   14MOL   H146 5892   7.310   4.242   1.704  0.1599  0.2705  1.2331
   14MOL   H147 5893   7.392   4.089   1.684 -0.6904  0.4864 -1.1506
   14MOL   H148 5894   7.540   4.164   1.519  0.1299  0.7235 -1.6508
   14MOL   H149 5895   7.386   4.239   1.485  0.2164  1.5502 -0.0982
   14MOL   H150 5896   7.451   4.457   1.578  0.2730  1.2624  0.0494
   14MOL   H151 5897   7.579   4.411   1.478  0.1142  0.9623 -0.5611
   14MOL   H152 5898   7.723   4.328   1.685  0.5043  0.2569  2.4499
   14MOL   H153 5899   7.664   4.499   1.701  1.8946  0.0415 -1.8435
   14MOL   H154 5900   0.032   4.223   1.872 -1.9459 -0.6392 -0.4099
   14MOL   H155 5901   7.706   4.169   2.012 -2.1303  0.8124 -0.7288
   14MOL   C156 5902   0.107   4.298   2.066 -0.4789  0.5981 -0.0760
   14MOL   C157 5903   0.247   4.326   1.998 -0.5902 -0.0436 -0.2532
   14MOL   C158 5904   0.336   4.205   1.958  0.8261  0.0311 -0.1346
   14MOL   C159 5905   0.468   4.244   1.890  0.4088 -0.2874  0.3377
   14MOL   C160 5906   0.434   4.333   1.767  0.9174  0.4035  0.2143
   14MOL   C161 5907   0.359   4.464   1.818  0.7323  0.1834 -0.0665
   14MOL   C162 5908   0.225   4.427   1.886  0.0280 -0.0123 -0.1192
   14MOL   C163 5909   0.119   4.216   2.197 -0.6547  0.8142  0.4449
   14MOL   H164 5910   0.084   4.394   2.113  0.4570  0.0624  1.5098
   14MOL   H165 5911   0.306   4.362   2.082 -1.0280  2.2767 -0.9170
   14MOL   H166 5912   0.356   4.151   2.051  3.0143  1.5349  0.2998
   14MOL   H167 5913   0.277   4.133   1.900 -0.3252  1.0800 -0.3047
   14MOL   H168 5914   0.545   4.299   1.944  1.9197 -1.5915 -0.4283
   14MOL   H169 5915   0.511   4.148   1.863 -0.4553 -0.5613 -0.0859
   14MOL   H170 5916   0.370   4.287   1.692  0.0190 -1.1727  1.9127
   14MOL   H171 5917   0.524   4.359   1.712 -0.4053  1.0433 -1.7084
   14MOL   H172 5918   0.321   4.531   1.741  0.8028 -0.2813 -0.5059
   14MOL   H173 5919   0.429   4.515   1.885  0.0376  0.0224  0.7968
   14MOL   H174 5920   0.190   4.524   1.923 -0.5585 -0.1320 -0.3490
   14MOL   H175 5921   0.149   4.402   1.812  0.3619 -3.3754  0.6178
   14MOL   H176 5922   0.137   4.113   2.167 -3.4111  0.9803 -1.9561
   14MOL   H177 5923   0.024   4.219   2.251  0.0225  0.5038  1.6852
   14MOL   C178 5924   0.223   4.256   2.303 -0.1028  0.0118  0.5462
   14MOL   C179 5925   0.204   4.402   2.354 -0.4901 -1.1010  0.2549
   14MOL   C180 5926   0.324   4.448   2.434 -0.3857  0.3702 -0.3059
   14MOL   C181 5927   0.309   4.593   2.474 -0.6726  0.4269 -0.0559
   14MOL   C182 5928   0.192   4.617   2.564 -0.2952 -0.1275 -0.3508
   14MOL   C183 5929   0.066   4.580   2.482 -0.1128  0.2826 -0.2160
   14MOL   C184 5930   0.075   4.429   2.439 -0.3774 -0.0976  0.3181
   14MOL   C185 5931   0.224   4.150   2.419 -0.2377  0.5471 -0.0666
   14MOL   H186 5932   0.325   4.251   2.263 -0.8782 -0.9824 -1.3470
   14MOL   H187 5933   0.189   4.472   2.272 -0.3350 -0.3821  0.8386
   14MOL   H188 5934   0.338   4.394   2.527  2.0448  1.8726  0.2208
   14MOL   H189 5935   0.421   4.441   2.385 -1.0226 -1.9934 -1.2862
   14MOL   H190 5936   0.308   4.658   2.386  0.1808  0.1562 -0.2725
   14MOL   H191 5937   0.395   4.629   2.531 -1.1031  1.4345 -0.0492
   14MOL   H192 5938   0.205   4.550   2.649 -1.1320 -0.2807 -0.3433
   14MOL   H193 5939   0.200   4.716   2.609  1.0400  0.5100 -1.9109
   14MOL   H194 5940   0.055   4.646   2.396 -1.5117 -2.6560 -2.3867
   14MOL   H195 5941   7.744   4.603   2.532  0.3763  2.8365 -0.4097
   14MOL   H196 5942   0.081   4.369   2.530  2.2134 -0.7696 -0.2504
   14MOL   H197 5943   7.752   4.406   2.392 -0.0048 -0.5029 -0.2472
   14MOL   H198 5944   0.274   4.189   2.507  2.0546 -0.5494 -0.8464
   14MOL   H199 5945   0.119   4.148   2.446  0.2000  0.0016  1.6356
   14MOL   C200 5946   0.301   4.024   2.381 -0.0448 -0.1554  1.2572
   14MOL   C201 5947   0.453   4.018   2.427  0.5742  0.3818  0.7140
   14MOL   C202 5948   0.545   4.116   2.357  0.0331  0.1127  0.3637
   14MOL   C203 5949   0.690   4.098   2.403  0.0596  0.4417  0.4361
   14MOL   C204 5950   0.712   4.102   2.552 -0.3790  0.1344 -0.5214
   14MOL   C205 5951   0.611   4.014   2.631 -0.5398 -0.5286  0.2816
   14MOL   C206 5952   0.471   4.032   2.584 -0.0509  0.0241  0.3716
   14MOL   C207 5953   0.215   3.904   2.420 -0.3748  0.3841  0.1422
   14MOL   H208 5954   0.314   4.028   2.273 -1.1279 -0.5257  1.1007
   14MOL   H209 5955   0.489   3.925   2.384 -0.3225  1.0153 -1.5046
   14MOL   H210 5956   0.512   4.219   2.364 -2.2878 -0.5651  0.0342
   14MOL   H211 5957   0.536   4.101   2.249  0.1708  2.4971 -0.0033
   14MOL   H212 5958   0.737   4.005   2.373  0.8572  1.2365 -0.7998
   14MOL   H213 5959   0.743   4.181   2.356  0.6799 -0.5620 -0.6478
   14MOL   H214 5960   0.813   4.065   2.573 -0.7956 -0.0792  1.2378
   14MOL   H215 5961   0.692   4.201   2.593  2.2022  0.7207 -0.5611
   14MOL   H216 5962   0.637   3.909   2.627 -1.8592 -0.8445 -0.3541
   14MOL   H217 5963   0.610   4.047   2.735 -2.9308  0.8868 -0.1595
   14MOL   H218 5964   0.398   3.976   2.642 -0.0577 -1.2239 -0.8087
   14MOL   H219 5965   0.456   4.137   2.612 -0.8276 -0.0637  0.2992
   14MOL   H220 5966   0.271   3.811   2.429 -0.5568  0.0383 -2.0029
   14MOL   H221 5967   0.176   3.924   2.520  0.3100 -1.8119  0.8857
   14MOL   C222 5968   0.090   3.874   2.325 -0.0499 -0.1511 -0.1608
   14MOL   C223 5969   0.107   3.844   2.169  0.5866  0.7244  0.0551
   14MOL   C224 5970   7.748   3.876   2.096  0.1058  0.6778  0.3986
   14MOL   C225 5971   7.763   3.852   1.940 -0.8045 -0.1724  0.4379
   14MOL   C226 5972   0.054   3.723   1.893  0.0690  0.3077 -0.1196
   14MOL   C227 5973   0.185   3.693   1.980  0.0568  0.5142 -0.1542
   14MOL   C228 5974   0.157   3.701   2.132 -0.4670  0.0708  0.0364
   14MOL   C229 5975   7.769   3.779   2.401  0.4559  0.4696  0.2612
   14MOL   H230 5976   0.055   3.976   2.311  2.9782  0.5895 -2.9912
   14MOL   H231 5977   0.183   3.910   2.128  0.6215  1.6155  1.5464
   14MOL   H232 5978   7.671   3.808   2.132  0.5287 -0.7829 -1.3999
   14MOL   H233 5979   7.706   3.975   2.114 -0.4356  1.2723 -3.5859
   14MOL   H234 5980   0.055   3.936   1.913 -1.0114 -0.4208 -0.8492
   14MOL   H235 5981   7.668   3.871   1.891  0.3557  0.7087 -1.5294
   14MOL   H236 5982   7.754   3.643   1.911 -0.2439  0.3766 -1.0888
   14MOL   H237 5983   0.076   3.721   1.787  0.5993 -4.0403 -0.0224
   14MOL   H238 5984   0.279   3.741   1.953  0.1400  0.8229  0.6631
   14MOL   H239 5985   0.217   3.591   1.960 -2.3016 -0.4571  0.8721
   14MOL   H240 5986   0.080   3.627   2.151  0.5095 -1.0917 -0.4749
   14MOL   H241 5987   0.244   3.675   2.194 -1.4134 -1.9690  0.5326
   14MOL   H242 5988   0.044   3.734   2.488  1.8205 -0.7597 -1.0945
   14MOL   H243 5989   7.757   3.698   2.329 -1.9761  0.3408  0.7790
   14MOL   C244 5990   7.631   3.827   2.435 -0.6011 -0.8863 -0.7202
   14MOL   C245 5991   7.632   3.958   2.530 -0.2595  0.7398 -0.1262
   14MOL   C246 5992   7.661   3.935   2.679  0.3369  0.5740  0.1978
   14MOL   C247 5993   7.660   4.070   2.758  0.6072 -0.5443 -0.2050
   14MOL   C248 5994   7.533   4.147   2.730  0.2556  0.2694 -0.1309
   14MOL   C249 5995   7.505   4.171   2.584  0.0900  0.7323 -0.2091
   14MOL   C250 5996   7.499   4.035   2.512  0.2273  0.2766 -0.2208
   14MOL   C251 5997   7.539   3.713   2.487 -0.7816 -0.6712 -0.5305
   14MOL   H252 5998   7.594   3.865   2.340 -0.4597  1.9809  0.3102
   14MOL   H253 5999   7.717   4.014   2.490 -0.7118 -1.0274 -3.7491
   14MOL   H254 6000   7.755   3.881   2.692 -2.2734 -3.9738  1.0035
   14MOL   H255 6001   7.585   3.871   2.723  1.0233 -1.3981 -1.4321
   14MOL   H256 6002   7.673   4.050   2.864 -0.0322 -1.2401 -0.2509
   14MOL   H257 6003   7.742   4.136   2.730  0.4339  0.2292  1.0895
   14MOL   H258 6004   7.441   4.100   2.767  0.9901 -0.3317  0.9372
   14MOL   H259 6005   7.529   4.240   2.786 -2.6140 -1.3442  2.5376
   14MOL   H260 6006   7.580   4.239   2.542  2.8934 -1.4217  1.1479
   14MOL   H261 6007   7.408   4.221   2.581 -1.1525 -1.5754  0.4619
   14MOL   H262 6008   7.413   3.989   2.561  0.8230 -0.4224  0.1741
   14MOL   H263 6009   7.470   4.033   2.407  1.1107 -0.7252 -0.4464
   14MOL   H264 6010   7.454   3.750   2.545 -0.2367  0.7777 -0.6462
   14MOL   H265 6011   7.593   3.659   2.565  0.8688  1.1199 -0.4043
   14MOL   C266 6012   7.489   3.618   2.374  0.1396 -0.5008  0.3310
   14MOL   C267 6013   7.519   3.461   2.410  0.2165 -0.3647  0.0578
   14MOL   C268 6014   7.436   3.414   2.531  0.6441 -0.4623 -0.1989
   14MOL   C269 6015   7.452   3.263   2.542 -0.4471 -0.5471 -0.3768
   14MOL   C270 6016   7.593   3.231   2.568  0.3043 -0.0274  0.7676
   14MOL   C271 6017   7.696   3.280   2.466 -0.1264  0.3801  0.1705
   14MOL   C272 6018   7.674   3.429   2.427  0.3755 -0.7363 -0.0069
   14MOL   C273 6019   7.338   3.648   2.355  0.0244 -0.3598 -0.2171
   14MOL   H274 6020   7.539   3.655   2.284 -0.4519 -0.4566  0.0197
   14MOL   H275 6021   7.483   3.404   2.325  1.6726 -1.0849 -0.0976
   14MOL   H276 6022   7.460   3.466   2.624 -2.0969 -2.9610  1.9835
   14MOL   H277 6023   7.332   3.427   2.502  0.7958 -0.6411 -0.8337
   14MOL   H278 6024   7.415   3.221   2.448  0.5161  0.3812 -1.1704
   14MOL   H279 6025   7.388   3.206   2.610 -0.4559  1.2079  1.1293
   14MOL   H280 6026   7.621   3.276   2.663  0.4730  4.4774 -1.2822
   14MOL   H281 6027   7.606   3.126   2.592  3.7291  0.4430  1.2499
   14MOL   H282 6028   7.690   3.215   2.379  0.1262 -1.6073  1.5934
   14MOL   H283 6029   0.026   3.276   2.503  0.7337 -2.1072 -2.2879
   14MOL   H284 6030   7.726   3.452   2.335  1.0524  0.5662  0.6918
   14MOL   H285 6031   7.709   3.492   2.509 -0.8975  0.5425 -0.4085
   14MOL   H286 6032   7.321   3.755   2.349 -1.5042 -0.4058  2.5850
   14MOL   H287 6033   7.292   3.639   2.453 -0.5961 -0.7064 -0.5422
   14MOL   C288 6034   7.268   3.568   2.244 -0.3164 -0.0214 -0.0044
   14MOL   C289 6035   7.307   3.629   2.107 -0.2891  0.3950  0.2225
   14MOL   C290 6036   7.274   3.536   1.983  0.4086 -0.6483 -0.7003
   14MOL   C291 6037   7.314   3.592   1.845 -0.2000 -0.1743  0.3118
   14MOL   C292 6038   7.277   3.731   1.827  0.6391  0.1967  0.2298
   14MOL   C293 6039   7.311   3.825   1.944 -0.2428  0.5987  0.0433
   14MOL   C294 6040   7.255   3.772   2.074 -0.1948  0.1810  0.1962
   14MOL   C295 6041   7.116   3.576   2.257 -0.1060  0.0193 -0.0639
   14MOL   H296 6042   7.302   3.465   2.227 -0.1000  0.1608 -0.6788
   14MOL   H297 6043   7.415   3.628   2.096 -0.2739  0.6487  0.3468
   14MOL   H298 6044   7.325   3.440   1.991  0.3225 -0.5875  0.7576
   14MOL   H299 6045   7.166   3.521   1.990  0.5466 -0.5259  2.6998
   14MOL   H300 6046   7.420   3.570   1.841 -0.2382 -0.1389 -1.1183
   14MOL   H301 6047   7.265   3.529   1.771  1.4439  0.8109 -1.6480
   14MOL   H302 6048   7.169   3.738   1.811  0.8458 -1.1383 -1.7686
   14MOL   H303 6049   7.319   3.779   1.739  0.1584  1.1500  0.5153
   14MOL   H304 6050   7.298   3.931   1.922  1.4201  1.2754  2.1366
   14MOL   H305 6051   7.420   3.827   1.953 -0.4325 -0.1249  3.1953
   14MOL   H306 6052   7.149   3.762   2.055  0.5619 -3.1898 -2.7736
   14MOL   H307 6053   7.267   3.842   2.157 -0.5602  0.0987  0.3178
   14MOL   H308 6054   7.079   3.679   2.254  1.1623  0.5176  0.7871
   14MOL   H309 6055   7.076   3.526   2.169  1.4329 -1.2961 -0.0297
   14MOL   C310 6056   7.039   3.508   2.376 -0.6396  0.0610  0.8890
   14MOL   C311 6057   7.057   3.352   2.371 -0.2858 -0.2831 -0.0225
   14MOL   C312 6058   6.992   3.279   2.493 -0.4450 -0.1565  0.2007
   14MOL   C313 6059   7.017   3.130   2.491  0.2943  0.2517 -0.6140
   14MOL   C314 6060   6.982   3.057   2.354 -0.2073 -0.1240  0.1926
   14MOL   C315 6061   7.039   3.131   2.238  0.2469 -0.1791  0.3921
   14MOL   C316 6062   7.006   3.282   2.241  0.8167 -0.2165  0.3996
   14MOL   C317 6063   7.062   3.579   2.519  0.0535 -0.2192  0.3684
   14MOL   H318 6064   6.933   3.517   2.351  0.3401  0.5406 -3.6083
   14MOL   H319 6065   7.165   3.335   2.368 -0.6424 -2.4685 -1.1279
   14MOL   H320 6066   7.018   3.330   2.586  0.3503 -0.0409 -0.0774
   14MOL   H321 6067   6.887   3.301   2.474  0.2691  2.7375 -0.7233
   14MOL   H322 6068   6.956   3.085   2.569  0.5064  1.8329  0.4776
   14MOL   H323 6069   7.122   3.109   2.512 -0.0214 -1.4170 -0.6625
   14MOL   H324 6070   7.016   2.953   2.355  2.7273  0.7696 -1.1162
   14MOL   H325 6071   6.875   3.046   2.336 -0.3119  0.9293  0.1407
   14MOL   H326 6072   7.148   3.119   2.242  0.1225 -1.2584  0.7248
   14MOL   H327 6073   7.013   3.086   2.142 -1.3350 -0.8817  1.1395
   14MOL   H328 6074   6.897   3.281   2.237  0.7656  0.8098  1.2149
   14MOL   H329 6075   7.049   3.327   2.152 -2.0702 -1.7371 -1.8334
   14MOL   H330 6076   7.151   3.548   2.573 -0.2540 -1.5073  0.1705
   14MOL   H331 6077   6.989   3.529   2.583 -0.6069  0.6590  0.3174
   14MOL   C332 6078   7.043   3.730   2.526 -0.4698 -0.2326 -0.6032
   14MOL   C333 6079   7.096   3.777   2.664 -0.1917 -0.5509 -0.7114
   14MOL   C334 6080   7.038   3.714   2.792  0.0976 -0.4798 -0.2523
   14MOL   C335 6081   7.118   3.762   2.921  0.0156  0.5646  0.0850
   14MOL   C336 6082   7.137   3.915   2.930 -0.2239 -0.2553 -0.1664
   14MOL   C337 6083   7.193   3.967   2.799  0.1847  0.4153  0.6320
   14MOL   C338 6084   7.113   3.936   2.678 -0.1975 -0.8537 -0.2341
   14MOL   C339 6085   6.891   3.775   2.510  0.1802  0.1656  0.3136
   14MOL   H340 6086   7.107   3.776   2.450  0.0473  0.2349  0.1089
   14MOL   H341 6087   7.199   3.741   2.667 -1.0427 -2.9968  0.5150
   14MOL   H342 6088   6.932   3.738   2.802 -0.0953 -1.1966 -0.6207
   14MOL   H343 6089   7.047   3.606   2.799  0.0595 -0.4838 -0.2669
   14MOL   H344 6090   7.086   3.720   3.016  0.5078  0.2615  0.1176
   14MOL   H345 6091   7.220   3.728   2.902 -0.3192 -0.4823  0.1041
   14MOL   H346 6092   7.044   3.967   2.951 -0.7609 -0.4827 -1.9169
   14MOL   H347 6093   7.203   3.927   3.016  1.0311 -0.7546 -1.0396
   14MOL   H348 6094   7.292   3.921   2.801 -1.1409 -2.7186 -1.9889
   14MOL   H349 6095   7.204   4.075   2.805  0.8431  0.2912  1.8969
   14MOL   H350 6096   7.171   3.971   2.593  2.3662 -0.9402  1.4288
   14MOL   H351 6097   7.018   3.989   2.680  1.4939  2.2284  0.8278
   14MOL   H352 6098   6.866   3.852   2.584 -0.2418  0.4727 -0.1506
   14MOL   H353 6099   6.838   3.689   2.551  0.6621  0.3988  1.4469
   14MOL   C354 6100   6.829   3.810   2.373 -0.2575  0.1568 -0.0899
   14MOL   C355 6101   6.914   3.918   2.301 -0.1403  0.3189 -0.7417
   14MOL   C356 6102   6.889   4.061   2.346  0.0161 -0.1741 -0.2627
   14MOL   C357 6103   6.993   4.148   2.286 -0.4486  0.0700 -0.4850
   14MOL   C358 6104   6.985   4.151   2.139  0.2714 -0.6674 -0.2103
   14MOL   C359 6105   6.987   4.019   2.076  0.1127  0.8128  0.2111
   14MOL   C360 6106   6.893   3.911   2.144 -0.0680  0.1034 -0.5905
   14MOL   C361 6107   6.679   3.844   2.386 -0.3370 -0.6233  0.4675
   14MOL   H362 6108   6.834   3.725   2.305 -1.5715  0.4159 -0.5271
   14MOL   H363 6109   7.021   3.907   2.317 -0.6378  0.0197  2.7229
   14MOL   H364 6110   6.889   4.081   2.454 -1.5530  0.6444 -0.3943
   14MOL   H365 6111   6.801   4.111   2.306  1.6789  1.6361 -1.7082
   14MOL   H366 6112   6.985   4.244   2.338 -1.1925 -0.1432 -0.2136
   14MOL   H367 6113   7.094   4.115   2.310 -0.7548  1.9919  3.9383
   14MOL   H368 6114   6.893   4.199   2.105 -1.5213 -1.7942  2.8647
   14MOL   H369 6115   7.064   4.216   2.103  0.5180  0.2480  1.9055
   14MOL   H370 6116   6.951   4.023   1.973 -1.2453 -0.3084  0.6302
   14MOL   H371 6117   7.092   3.990   2.066 -0.2291  0.3172 -2.3712
   14MOL   H372 6118   6.920   3.811   2.108 -1.9686 -0.2973 -0.9675
   14MOL   H373 6119   6.787   3.926   2.121 -0.6137 -1.8418  0.5710
   14MOL   H374 6120   6.657   3.942   2.344 -1.0021 -1.9576 -2.4545
   14MOL   H375 6121   6.647   3.850   2.490  0.4855  0.5647  0.6585
   14MOL   C376 6122   6.589   3.736   2.332  0.3273 -0.0727 -0.3605
   14MOL   C377 6123   6.609   3.592   2.399 -0.0777  0.0213 -0.3472
   14MOL   C378 6124   6.541   3.480   2.315  0.3802 -0.4670  0.1746
   14MOL   C379 6125   6.587   3.342   2.371 -0.2132 -0.7185 -0.0366
   14MOL   C380 6126   6.570   3.330   2.526  0.2370  0.3991  0.1618
   14MOL   C381 6127   6.632   3.451   2.608  0.0194 -0.0782  0.5022
   14MOL   C382 6128   6.581   3.583   2.554  0.3261  0.0544  0.7639
   14MOL   C383 6129   6.440   3.789   2.347  0.2681  0.5375  0.8124
   14MOL   H384 6130   6.615   3.728   2.226  1.0906  0.8983 -0.2537
   14MOL   H385 6131   6.715   3.569   2.392 -0.1282 -1.6017  3.3396
   14MOL   H386 6132   6.433   3.487   2.314  0.4487  0.4121 -1.9716
   14MOL   H387 6133   6.575   3.507   2.215  0.1909 -0.9347 -0.0181
   14MOL   H388 6134   6.692   3.336   2.343  0.1397 -0.6428  1.2300
   14MOL   H389 6135   6.540   3.263   2.312  0.2375 -0.5851 -0.5728
   14MOL   H390 6136   6.464   3.321   2.551  0.7435  2.0250  3.1228
   14MOL   H391 6137   6.600   3.233   2.566 -0.2935  0.5863  1.0221
   14MOL   H392 6138   6.600   3.463   2.712 -0.5572 -0.8279  0.4245
   14MOL   H393 6139   6.739   3.440   2.598 -0.0810 -2.2984  1.5040
   14MOL   H394 6140   6.473   3.597   2.556  0.3870  0.4596  1.5626
   14MOL   H395 6141   6.618   3.666   2.614 -1.8809  2.1273 -0.6951
   14MOL   H396 6142   6.422   3.796   2.454  3.7880 -0.5485  1.5191
   14MOL   H397 6143   6.375   3.710   2.308 -0.3342  0.8867  1.0914
   14MOL   C398 6144   6.389   3.924   2.270 -0.1658  0.0662  0.0246
   14MOL   C399 6145   6.302   3.900   2.145 -0.3218  0.2601  0.9621
   14MOL   C400 6146   6.380   3.825   2.027  0.3047  0.6989 -0.3638
   14MOL   C401 6147   6.303   3.833   1.896 -0.7772 -0.4219  0.0639
   14MOL   C402 6148   6.165   3.763   1.921  0.3178 -0.6271  0.3252
   14MOL   C403 6149   6.082   3.817   2.048 -0.0130 -0.1727  0.2428
   14MOL   C404 6150   6.170   3.831   2.177  0.1136 -0.3326  0.3111
   14MOL   C405 6151   6.319   4.023   2.373 -0.2403  0.2711 -0.3474
   14MOL   H406 6152   6.480   3.968   2.230  0.3445 -2.4010 -1.6547
   14MOL   H407 6153   6.271   3.997   2.107 -0.6889 -0.4116 -0.4780
   14MOL   H408 6154   6.391   3.721   2.055 -0.4999  0.0907 -2.2463
   14MOL   H409 6155   6.483   3.856   2.014  0.3739  0.9131  0.6519
   14MOL   H410 6156   6.348   3.778   1.814 -0.0596 -0.6503  0.6029
   14MOL   H411 6157   6.283   3.935   1.863 -0.0374 -0.5200 -0.7035
   14MOL   H412 6158   6.175   3.657   1.946 -2.5275 -0.7723  1.1015
   14MOL   H413 6159   6.105   3.750   1.831 -0.6796 -0.6208  0.9842
   14MOL   H414 6160   6.042   3.912   2.013 -0.5566 -0.6676 -0.4940
   14MOL   H415 6161   5.994   3.758   2.073 -0.5080  0.9709  1.2378
   14MOL   H416 6162   6.126   3.893   2.255  1.9939  2.1625 -0.5440
   14MOL   H417 6163   6.192   3.733   2.217  1.7080 -0.4038 -0.7143
   14MOL   H418 6164   6.242   4.080   2.322 -0.7101  1.5862  1.7786
   14MOL   H419 6165   6.271   3.953   2.442 -1.4309  0.2570 -1.1861
   14MOL   C420 6166   6.420   4.115   2.448 -0.3622 -1.0320 -0.1719
   14MOL   C421 6167   6.350   4.186   2.576 -0.3251  0.7282  0.2635
   14MOL   C422 6168   6.247   4.296   2.544 -0.0769 -0.5346  0.4510
   14MOL   C423 6169   6.168   4.345   2.666  0.5012  0.4813  1.1265
   14MOL   C424 6170   6.269   4.409   2.765 -0.0205 -0.1984 -0.7021
   14MOL   C425 6171   6.385   4.320   2.790  0.0760  0.0817 -0.2638
   14MOL   C426 6172   6.459   4.257   2.663  0.2012  0.1496  0.4216
   14MOL   C427 6173   6.489   4.216   2.349 -0.2560 -0.1075  0.6259
   14MOL   H428 6174   6.490   4.044   2.491 -0.7368 -1.4948 -0.3135
   14MOL   H429 6175   6.301   4.112   2.638  0.0521  1.1991  1.1338
   14MOL   H430 6176   6.302   4.371   2.488  0.1229 -0.3707  0.8665
   14MOL   H431 6177   6.180   4.244   2.476 -1.0701  1.2777 -0.0029
   14MOL   H432 6178   6.090   4.416   2.639  0.3155  0.5213  1.7550
   14MOL   H433 6179   6.119   4.255   2.703 -1.0862  1.2483  0.9029
   14MOL   H434 6180   6.214   4.444   2.852 -1.6725  1.3291 -2.3386
   14MOL   H435 6181   6.317   4.503   2.735  2.0664 -0.8894  0.3234
   14MOL   H436 6182   6.348   4.246   2.862 -0.6618  2.3410  1.7503
   14MOL   H437 6183   6.463   4.371   2.846  0.9150  3.3430 -4.1937
   14MOL   H438 6184   6.504   4.338   2.606 -0.3648 -1.5528 -2.4981
   14MOL   H439 6185   6.536   4.184   2.689 -1.1986 -1.6388 -0.3624
   14MOL   H440 6186   6.552   4.163   2.278 -0.0550  1.4777 -0.4051
   14MOL   H441 6187   6.412   4.259   2.284 -0.0426  0.2342  0.6003
   14MOL   H442 6188   6.548   4.289   2.405  0.4822 -0.9133  0.8935
   15MOL     C1 6189   5.181   5.129   7.407 -0.2298 -0.2663 -0.5679
   15MOL     C2 6190   5.210   5.195   7.275  0.2232  0.3226 -0.1304
   15MOL     C3 6191   5.218   5.082   7.165 -0.4934 -0.0191  0.9554
   15MOL     C4 6192   5.262   5.138   7.023 -0.0642 -0.3273 -0.1089
   15MOL     C5 6193   5.388   5.226   7.039  0.0102  0.1111  0.3838
   15MOL     C6 6194   5.396   5.328   7.151  0.2362 -0.2768  0.5609
   15MOL     C7 6195   5.345   5.281   7.283  0.4761  0.5275 -0.2831
   15MOL     C8 6196   5.133   5.233   7.513  0.2456 -0.3583 -0.3641
   15MOL     H9 6197   5.103   5.053   7.405 -0.8146  0.2244  1.6187
   15MOL    H10 6198   5.121   5.252   7.246 -0.6204 -0.8770  0.0805
   15MOL    H11 6199   5.289   5.001   7.181 -2.0463 -1.5638  0.3004
   15MOL    H12 6200   5.125   5.024   7.162 -0.6196  0.2497 -0.4498
   15MOL    H13 6201   5.181   5.202   6.989  1.0308  1.5890  0.8115
   15MOL    H14 6202   5.277   5.053   6.955  0.2060 -0.2064 -0.1988
   15MOL    H15 6203   5.400   5.270   6.940 -0.1546  0.2681  0.4350
   15MOL    H16 6204   5.473   5.161   7.060 -1.0061 -1.3482  0.1055
   15MOL    H17 6205   5.499   5.361   7.157 -0.1891  1.4663 -1.2332
   15MOL    H18 6206   5.348   5.421   7.121  0.7115  0.6943  2.7256
   15MOL    H19 6207   5.319   5.362   7.350  0.1063  0.6529 -0.5724
   15MOL    H20 6208   5.424   5.230   7.337  1.5495  3.4007  0.9071
   15MOL    H21 6209   5.030   5.264   7.491 -0.4941 -1.6331  1.2166
   15MOL    H22 6210   5.199   5.320   7.509 -1.6713  1.1701 -0.0427
   15MOL    H23 6211   5.266   5.076   7.449  0.0173 -0.0626 -0.8134
   15MOL    C24 6212   5.137   5.201   7.660  0.2019 -0.1777 -0.1943
   15MOL    C25 6213   5.097   5.326   7.759  0.2334  0.1945 -0.5228
   15MOL    C26 6214   5.138   5.312   0.138 -0.3080 -0.1838  0.0346
   15MOL    C27 6215   5.098   5.445   0.209 -0.5269  0.3593 -0.0414
   15MOL    C28 6216   4.946   5.472   0.206 -0.1087 -0.5579 -0.3370
   15MOL    C29 6217   4.890   5.476   0.063 -0.6656 -0.1638  0.1935
   15MOL    C30 6218   4.943   5.354   7.754 -0.0374  0.3229  0.2697
   15MOL    C31 6219   5.055   5.079   7.690  0.4637  0.0907 -0.4846
   15MOL    H32 6220   5.243   5.181   7.673  0.0418 -0.9638 -0.0636
   15MOL    H33 6221   5.151   5.410   7.715  1.2717 -0.5081 -0.6164
   15MOL    H34 6222   5.243   5.288   0.154 -0.3364  0.5136  1.3871
   15MOL    H35 6223   5.078   5.237   0.188 -1.1631  0.8193  0.5410
   15MOL    H36 6224   5.133   5.446   0.312  1.6641  0.3439 -0.7594
   15MOL    H37 6225   5.160   5.525   0.168  0.9895  0.1079  1.7032
   15MOL    H38 6226   4.934   5.567   0.260 -0.7330 -2.3411  2.7934
   15MOL    H39 6227   4.901   5.395   0.268  0.1208 -0.7862 -0.4567
   15MOL    H40 6228   4.782   5.485   0.052 -0.4075  3.0790 -0.1129
   15MOL    H41 6229   4.931   5.567   0.020  0.1371  0.0127  1.2952
   15MOL    H42 6230   4.876   5.269   7.760  0.6223 -0.3473 -1.5584
   15MOL    H43 6231   4.920   5.379   7.650  0.6484 -3.3065 -0.8382
   15MOL    H44 6232   4.968   5.091   7.625 -0.7820  0.9314  1.3033
   15MOL    H45 6233   5.016   5.095   0.018 -1.3700 -0.4766 -1.0759
   15MOL    C46 6234   5.123   4.939   7.676  0.5151 -0.0517 -0.0694
   15MOL    C47 6235   5.018   4.823   7.659 -0.1786 -0.2556 -0.0816
   15MOL    C48 6236   4.960   4.827   7.512 -0.9665  0.9732  0.2767
   15MOL    C49 6237   4.880   4.701   7.483 -0.3581 -0.4547  0.1199
   15MOL    C50 6238   4.759   4.693   7.581  0.3271 -1.1524 -0.4667
   15MOL    C51 6239   4.810   4.692   7.727  0.0970 -0.1461 -0.1929
   15MOL    C52 6240   4.895   4.811   7.761 -0.0601  0.2345  0.2936
   15MOL    C53 6241   5.224   4.923   0.020 -0.0192 -0.4687 -0.0250
   15MOL    H54 6242   5.183   4.936   7.584 -0.0516  0.5398 -0.4664
   15MOL    H55 6243   5.082   4.735   7.667 -0.2375 -0.4243 -1.4852
   15MOL    H56 6244   4.889   4.908   7.497 -1.7999  0.4937  1.5403
   15MOL    H57 6245   5.045   4.831   7.444  0.9390  0.1101  2.5211
   15MOL    H58 6246   4.933   4.605   7.486 -0.3297 -0.3962  2.8443
   15MOL    H59 6247   4.835   4.698   7.384 -2.2275  0.9137  0.9041
   15MOL    H60 6248   4.697   4.782   7.570  0.6765 -0.7979  0.3815
   15MOL    H61 6249   4.699   4.605   7.559  0.4825 -1.3786  0.0208
   15MOL    H62 6250   4.864   4.599   7.748 -2.4232 -1.5283  0.3439
   15MOL    H63 6251   4.727   4.689   0.026  1.2025  1.4415  1.2081
   15MOL    H64 6252   4.829   4.897   7.747 -0.6723  0.2625  3.0993
   15MOL    H65 6253   4.928   4.816   0.093  0.0091  2.7079  0.1790
   15MOL    H66 6254   5.169   4.928   0.114 -1.5081  0.0165 -0.9116
   15MOL    H67 6255   5.302   5.000   0.026  0.0558 -0.6034  0.8361
   15MOL    C68 6256   5.313   4.795   0.026 -0.0431  0.6558  0.0755
   15MOL    C69 6257   5.395   4.766   7.663  0.5349  0.0227 -0.1407
   15MOL    C70 6258   5.484   4.879   7.611  0.2414  0.4969  0.6003
   15MOL    C71 6259   5.535   4.846   7.465  0.8305 -1.2714 -0.5564
   15MOL    C72 6260   5.628   4.720   7.464 -0.1177  0.4197 -0.0949
   15MOL    C73 6261   5.552   4.608   7.529  0.0709 -0.3398  0.2326
   15MOL    C74 6262   5.492   4.646   7.672  0.9537  0.2290  0.2987
   15MOL    C75 6263   5.398   4.793   0.152 -0.8208  0.0450 -0.4061
   15MOL    H76 6264   5.243   4.711   0.037 -0.6783  1.4047  1.9319
   15MOL    H77 6265   5.314   4.733   7.597  1.8759 -1.5119 -1.0749
   15MOL    H78 6266   5.560   4.918   7.679  0.5562 -1.1176  1.1915
   15MOL    H79 6267   5.426   4.969   7.589 -1.7968 -1.4691 -2.5331
   15MOL    H80 6268   5.452   4.850   7.394  1.0709  1.5714 -0.7189
   15MOL    H81 6269   5.606   4.926   7.445  2.4264 -1.6650  3.0530
   15MOL    H82 6270   5.723   4.747   7.509  0.7591 -2.3317 -0.2191
   15MOL    H83 6271   5.656   4.701   7.360 -1.8207  3.0811 -1.0961
   15MOL    H84 6272   5.633   4.535   7.527  1.7510  1.4512  1.2430
   15MOL    H85 6273   5.472   4.566   7.469 -0.0040 -0.3989  0.3739
   15MOL    H86 6274   5.572   4.669   7.743 -0.3094 -0.7569  2.0763
   15MOL    H87 6275   5.426   4.569   7.711  1.7092 -0.9394 -0.6888
   15MOL    H88 6276   5.442   4.694   0.161 -2.3724 -0.6062  0.3064
   15MOL    H89 6277   5.486   4.855   0.136  0.0095 -0.7105  1.1002
   15MOL    C90 6278   5.325   4.826   0.287  0.1015  0.3368  0.3976
   15MOL    C91 6279   5.200   4.734   0.315  0.4160  0.2924  0.0140
   15MOL    C92 6280   5.235   4.595   0.383  0.6565 -0.2859  0.0381
   15MOL    C93 6281   5.113   4.510   0.413  0.2087  0.2241 -0.9322
   15MOL    C94 6282   5.000   4.576   0.490  0.0181  0.1727 -0.0699
   15MOL    C95 6283   4.958   4.699   0.402  0.0710  0.2658  0.4353
   15MOL    C96 6284   5.072   4.794   0.373  0.0892 -0.6940  0.4915
   15MOL    C97 6285   5.425   4.833   0.407 -0.6965  0.6687 -0.4694
   15MOL    H98 6286   5.293   4.930   0.276  0.8109  0.4712 -0.4572
   15MOL    H99 6287   5.162   4.695   0.221 -1.4292  3.6902 -0.7378
   15MOL   H100 6288   5.280   4.613   0.480  0.5290  0.3587 -0.0229
   15MOL   H101 6289   5.301   4.532   0.323 -1.5116  0.7232 -3.5228
   15MOL   H102 6290   5.139   4.424   0.474  0.0249  0.4317 -0.5529
   15MOL   H103 6291   5.069   4.458   0.328  1.0576 -0.4145 -0.9884
   15MOL   H104 6292   5.026   4.610   0.590  1.0028  0.3309 -0.3695
   15MOL   H105 6293   4.918   4.505   0.499  1.0819 -0.9666  0.8288
   15MOL   H106 6294   4.924   4.670   0.303 -0.4093  0.9534  0.3935
   15MOL   H107 6295   4.866   4.746   0.438  0.4915 -0.3523  2.3904
   15MOL   H108 6296   5.029   4.857   0.295  1.5292  0.2332  0.4129
   15MOL   H109 6297   5.096   4.851   0.463  1.8873  0.9737 -0.9959
   15MOL   H110 6298   5.355   4.855   0.487  0.3746 -0.6856  0.8601
   15MOL   H111 6299   5.467   4.733   0.420 -1.6681  0.7229  3.6455
   15MOL   C112 6300   5.540   4.948   0.401 -0.4775 -0.0095 -0.5123
   15MOL   C113 6301   5.642   4.931   0.519  0.2245 -0.3546 -0.9899
   15MOL   C114 6302   5.724   4.795   0.511 -1.0686 -0.0385 -0.5018
   15MOL   C115 6303   5.829   4.806   0.622 -0.1190  0.6180  0.4417
   15MOL   C116 6304   5.779   4.819   0.753 -0.2565  0.3066  0.1237
   15MOL   C117 6305   5.694   4.942   0.767  0.6780  0.3473 -0.3773
   15MOL   C118 6306   5.584   4.953   0.661 -0.3181  0.6508 -0.2100
   15MOL   C119 6307   5.490   5.098   0.394  0.5018  0.0665  0.0564
   15MOL   H120 6308   5.609   4.934   0.318  0.8401 -0.1007  0.5852
   15MOL   H121 6309   5.720   5.007   0.520  0.6170 -0.7575  0.7971
   15MOL   H122 6310   5.775   4.790   0.415  0.2090  4.7876 -0.2251
   15MOL   H123 6311   5.653   4.713   0.519 -0.6066 -0.3590  0.4685
   15MOL   H124 6312   5.890   4.716   0.617 -2.9970 -1.3417 -1.4957
   15MOL   H125 6313   5.897   4.889   0.602  0.2141 -0.1662 -1.8751
   15MOL   H126 6314   5.714   4.734   0.772  1.8848 -1.6822 -1.0903
   15MOL   H127 6315   5.853   4.818   0.832  0.3113  1.2370 -0.3893
   15MOL   H128 6316   5.651   4.961   0.865 -0.7458  0.8097 -1.0808
   15MOL   H129 6317   5.760   5.028   0.755  0.6754  0.8294  2.6386
   15MOL   H130 6318   5.535   5.050   0.670  0.4851  1.2905 -2.3450
   15MOL   H131 6319   5.497   4.891   0.679 -2.2371  2.8526 -1.7011
   15MOL   H132 6320   5.432   5.117   0.484  1.2471  1.0294  0.3488
   15MOL   H133 6321   5.417   5.102   0.313  1.1368  2.2454 -0.4528
   15MOL   C134 6322   5.602   5.201   0.347 -0.6180  0.3910  0.1593
   15MOL   C135 6323   5.568   5.343   0.407  0.0553 -0.9025 -0.1470
   15MOL   C136 6324   5.619   5.344   0.558  0.7709  0.3081 -0.7615
   15MOL   C137 6325   5.595   5.482   0.621 -0.2958  0.3513 -0.6329
   15MOL   C138 6326   5.449   5.536   0.599 -0.3675  0.2804 -0.4038
   15MOL   C139 6327   5.405   5.529   0.456 -0.2537 -0.0150 -0.3392
   15MOL   C140 6328   5.417   5.383   0.404 -0.3105 -0.5226 -0.2207
   15MOL   C141 6329   5.617   5.196   0.193 -0.0872 -0.2102 -0.0950
   15MOL   H142 6330   5.698   5.178   0.394 -0.3214 -2.8951 -1.8589
   15MOL   H143 6331   5.620   5.421   0.350 -0.6382  2.9535  4.1572
   15MOL   H144 6332   5.575   5.267   0.621 -0.0331  1.2825 -0.1194
   15MOL   H145 6333   5.726   5.324   0.565  0.3785 -1.3551  1.0623
   15MOL   H146 6334   5.669   5.553   0.585  1.3346 -1.0055 -0.0269
   15MOL   H147 6335   5.606   5.463   0.728 -0.0620 -0.6476 -0.8379
   15MOL   H148 6336   5.389   5.472   0.663  0.9935  0.6308  1.2747
   15MOL   H149 6337   5.452   5.642   0.627  2.1913  0.2794 -0.5066
   15MOL   H150 6338   5.468   5.598   0.399 -1.9580  3.0364  1.4093
   15MOL   H151 6339   5.304   5.568   0.447  0.9267  3.1917 -0.2923
   15MOL   H152 6340   5.354   5.322   0.468 -1.3925  2.1405  1.3421
   15MOL   H153 6341   5.374   5.379   0.303 -0.0388 -2.1919 -0.2778
   15MOL   H154 6342   5.525   5.240   0.157 -1.9193 -2.2715  1.8629
   15MOL   H155 6343   5.616   5.093   0.157 -0.9713  0.1274 -1.0491
   15MOL   C156 6344   5.743   5.274   0.137 -0.6888 -0.0118  0.2599
   15MOL   C157 6345   5.714   5.353   0.008 -0.5682 -0.4526  0.5891
   15MOL   C158 6346   5.666   5.265   7.667 -0.3763  0.1028  0.7387
   15MOL   C159 6347   5.642   5.339   7.539  0.0095 -0.1508  0.0866
   15MOL   C160 6348   5.528   5.441   7.558 -0.1747  0.1860 -0.5117
   15MOL   C161 6349   5.565   5.540   7.670 -0.2709 -0.2479 -0.6208
   15MOL   C162 6350   5.614   5.470   0.031 -0.5377 -0.0604  0.1065
   15MOL   C163 6351   5.873   5.190   0.129  0.0135 -0.1973  0.0932
   15MOL   H164 6352   5.768   5.354   0.207  0.2227 -1.2855  1.4284
   15MOL   H165 6353   5.804   5.402   7.743 -1.2515  0.3719 -0.0022
   15MOL   H166 6354   5.745   5.196   7.636 -1.6835 -0.5956 -1.1535
   15MOL   H167 6355   5.572   5.212   7.686 -0.1157  0.0803  1.9718
   15MOL   H168 6356   5.728   5.394   7.501 -2.0886  1.2364 -2.9015
   15MOL   H169 6357   5.609   5.269   7.462  0.5777  0.6776 -0.9125
   15MOL   H170 6358   5.438   5.390   7.591  1.1536 -2.3754 -0.7575
   15MOL   H171 6359   5.506   5.496   7.466 -1.6386  0.3105 -0.1094
   15MOL   H172 6360   5.489   5.610   7.702 -0.5861 -1.5054  1.4737
   15MOL   H173 6361   5.650   5.603   7.645 -0.8016  1.4774  1.7461
   15MOL   H174 6362   5.664   5.546   0.090  3.4558 -1.0121 -1.9094
   15MOL   H175 6363   5.520   5.451   0.083 -0.8434 -0.6198 -0.6371
   15MOL   H176 6364   5.892   5.134   0.037  2.7573 -0.3738  0.7505
   15MOL   H177 6365   5.860   5.096   0.183  2.0173 -0.9029 -0.6071
   15MOL   C178 6366   5.996   5.264   0.189 -0.3044 -0.4428  1.1458
   15MOL   C179 6367   5.990   5.279   0.347 -0.7129  0.6610 -0.6313
   15MOL   C180 6368   6.074   5.398   0.400 -0.3008  0.2789 -0.5580
   15MOL   C181 6369   6.034   5.407   0.554 -0.1412 -0.1830  0.3468
   15MOL   C182 6370   6.044   5.284   0.639 -0.3623 -0.0675 -0.7348
   15MOL   C183 6371   5.988   5.163   0.575  0.2014  0.2898 -0.7684
   15MOL   C184 6372   6.030   5.153   0.427 -0.3332 -0.3795  0.2869
   15MOL   C185 6373   6.138   5.207   0.133  0.8257  0.1263 -1.1980
   15MOL   H186 6374   5.989   5.367   0.154  1.3486 -0.3153  1.1657
   15MOL   H187 6375   5.888   5.307   0.375 -0.7040  0.1044 -0.0220
   15MOL   H188 6376   6.181   5.382   0.383 -0.4535  0.7626 -2.0943
   15MOL   H189 6377   6.041   5.494   0.359 -1.8617  0.2637  0.6063
   15MOL   H190 6378   5.931   5.442   0.550  0.0913  0.6678  1.3546
   15MOL   H191 6379   6.100   5.476   0.607  0.9923 -2.8828  2.5697
   15MOL   H192 6380   6.151   5.272   0.651 -0.6346 -0.2333  1.7259
   15MOL   H193 6381   5.988   5.302   0.731 -1.2874 -0.6013 -1.1893
   15MOL   H194 6382   5.879   5.164   0.580  0.0718  1.7103 -3.2489
   15MOL   H195 6383   6.027   5.077   0.631  1.0435  2.2109  1.6703
   15MOL   H196 6384   6.132   5.117   0.410 -0.7307 -2.1373  1.5107
   15MOL   H197 6385   5.960   5.076   0.394  0.4166  0.0049 -2.3234
   15MOL   H198 6386   6.204   5.282   0.176  1.1440 -1.5066  1.2388
   15MOL   H199 6387   6.163   5.109   0.174 -1.6361  0.5377  1.5243
   15MOL   C200 6388   6.148   5.208   7.753 -0.3874  0.7271  0.1641
   15MOL   C201 6389   6.246   5.321   7.710 -1.1071  0.3177 -0.5377
   15MOL   C202 6390   6.197   5.465   7.732 -0.2050 -0.6669  0.2323
   15MOL   C203 6391   6.299   5.575   7.699 -0.0946  0.4647 -0.1211
   15MOL   C204 6392   6.436   5.547   7.759 -0.1305  0.9134 -0.5455
   15MOL   C205 6393   6.484   5.405   7.714 -0.4567  1.0550 -0.5846
   15MOL   C206 6394   6.389   5.299   7.762 -0.4989 -0.1592 -0.0796
   15MOL   C207 6395   6.197   5.067   7.697  0.6661 -0.1579  0.6492
   15MOL   H208 6396   6.052   5.236   7.711 -0.3504  1.2754  0.4365
   15MOL   H209 6397   6.254   5.309   7.602  0.8635  0.1910 -0.3906
   15MOL   H210 6398   6.184   5.493   0.064  0.2515  0.3508  0.0202
   15MOL   H211 6399   6.102   5.484   7.682  0.2027  0.2975 -0.1755
   15MOL   H212 6400   6.319   5.586   7.592  0.7630  1.2179  0.1056
   15MOL   H213 6401   6.257   5.672   7.725 -0.7932  0.7335 -2.1270
   15MOL   H214 6402   6.505   5.619   7.715  1.0279 -0.1492 -0.5228
   15MOL   H215 6403   6.434   5.556   0.096 -0.8361  2.1662 -0.6580
   15MOL   H216 6404   6.497   5.405   7.606 -0.2926  0.4353 -0.5646
   15MOL   H217 6405   6.584   5.382   7.751 -0.5070 -1.6639 -2.0320
   15MOL   H218 6406   6.434   5.206   7.728  1.4725  1.0126 -0.7427
   15MOL   H219 6407   6.394   5.300   0.099  0.6611 -0.7638 -0.1129
   15MOL   H220 6408   6.258   5.074   7.607  1.4883  0.1752  1.2353
   15MOL   H221 6409   6.256   5.027   0.007  0.0649 -1.0265  0.6750
   15MOL   C222 6410   6.094   4.956   7.664  0.1013 -0.3153  0.9539
   15MOL   C223 6411   6.024   4.890   0.014 -0.0454  0.3918  0.0436
   15MOL   C224 6412   6.128   4.795   0.085  0.2931  0.5711 -0.5268
   15MOL   C225 6413   6.062   4.739   0.219 -0.0105 -0.1144 -0.9871
   15MOL   C226 6414   5.944   4.653   0.186  0.1624  0.0226  1.1510
   15MOL   C227 6415   5.839   4.735   0.112  0.1941  0.1192  0.3445
   15MOL   C228 6416   5.902   4.799   7.753 -0.7419  0.0992 -0.4176
   15MOL   C229 6417   6.007   5.009   7.550  0.2308  0.1452  0.0896
   15MOL   H230 6418   6.150   4.878   7.613 -0.6093 -1.4606  1.8941
   15MOL   H231 6419   5.998   4.964   0.090  0.2932 -1.6667  2.1972
   15MOL   H232 6420   6.171   4.721   0.017  0.7280 -0.2172  0.5864
   15MOL   H233 6421   6.205   4.865   0.118 -0.0718  1.2216 -1.0594
   15MOL   H234 6422   6.028   4.810   0.295  1.4441  1.4145 -1.7337
   15MOL   H235 6423   6.133   4.672   0.267  0.3500  1.5314  0.8801
   15MOL   H236 6424   5.967   4.563   0.128  1.7338  2.3342 -1.9709
   15MOL   H237 6425   5.908   4.617   0.282  0.7437 -2.1647  0.5735
   15MOL   H238 6426   5.786   4.806   0.175 -1.2037  0.0185 -0.6979
   15MOL   H239 6427   5.764   4.662   0.081  1.0688 -0.9567  0.7154
   15MOL   H240 6428   5.931   4.726   7.678  0.6861 -0.9806  1.1379
   15MOL   H241 6429   5.820   4.861   7.718  0.7058  1.0194 -2.2180
   15MOL   H242 6430   5.983   5.112   7.574  0.7352  0.6352 -1.4931
   15MOL   H243 6431   5.905   4.969   7.556  0.7398 -0.9943  1.6480
   15MOL   C244 6432   6.054   4.996   7.408 -0.4648  0.0062  0.1893
   15MOL   C245 6433   6.003   5.112   7.312 -0.8590  0.4245 -0.0328
   15MOL   C246 6434   6.061   5.251   7.344  0.6095 -0.5717 -0.0849
   15MOL   C247 6435   6.039   5.343   7.225  0.1382 -0.1621  0.6602
   15MOL   C248 6436   5.888   5.359   7.210 -0.3916  0.2307 -0.2286
   15MOL   C249 6437   5.809   5.231   7.193  0.2078 -0.6526  0.1066
   15MOL   C250 6438   5.850   5.131   7.301  0.2647 -0.5301  0.7056
   15MOL   C251 6439   6.031   4.858   7.342  0.4791  0.0330  0.1363
   15MOL   H252 6440   6.163   5.005   7.404 -0.6656  2.7973 -0.0033
   15MOL   H253 6441   6.046   5.091   7.214  1.1318  1.5482  0.5776
   15MOL   H254 6442   6.164   5.231   7.372  1.5661  0.6070 -2.6152
   15MOL   H255 6443   6.014   5.291   7.434 -1.7359 -2.0124 -0.6256
   15MOL   H256 6444   6.087   5.441   7.236 -0.9379  0.1820  2.7171
   15MOL   H257 6445   6.079   5.297   7.135  1.2330 -2.3109  2.1912
   15MOL   H258 6446   5.843   5.415   7.292 -2.2050  0.5602 -1.4244
   15MOL   H259 6447   5.867   5.416   7.119 -0.8500 -0.9938 -0.8987
   15MOL   H260 6448   5.813   5.189   7.092  1.7037  0.5543 -0.3554
   15MOL   H261 6449   5.702   5.246   7.208  0.2010 -0.9728  0.3997
   15MOL   H262 6450   5.812   5.168   7.396 -0.3251  0.5174  0.0697
   15MOL   H263 6451   5.803   5.033   7.289 -0.2183 -0.2707  0.4446
   15MOL   H264 6452   5.985   4.862   7.244 -2.0365 -0.5296  1.2423
   15MOL   H265 6453   5.947   4.818   7.400  0.0201  0.8099  0.0132
   15MOL   C266 6454   6.150   4.759   7.340  0.0846 -0.1722 -0.5462
   15MOL   C267 6455   6.096   4.609   7.328  0.2152  0.0289  0.1611
   15MOL   C268 6456   5.997   4.579   7.212 -0.1478 -0.2349 -0.3894
   15MOL   C269 6457   5.978   4.429   7.198  0.2056  0.4047  0.5295
   15MOL   C270 6458   5.915   4.371   7.328  0.7055 -0.2034 -0.0358
   15MOL   C271 6459   5.995   4.406   7.458  0.5417  0.5092 -0.5496
   15MOL   C272 6460   6.034   4.557   7.461  1.2738  0.2294  0.6528
   15MOL   C273 6461   6.243   4.791   7.222  0.1381  0.0987 -0.7839
   15MOL   H274 6462   6.212   4.764   7.430  2.0705 -0.2256 -1.8916
   15MOL   H275 6463   6.184   4.548   7.311 -0.3663 -0.5080 -0.9187
   15MOL   H276 6464   5.900   4.627   7.224  1.3380  2.8737 -0.1112
   15MOL   H277 6465   6.028   4.623   7.117 -0.1379 -1.4544 -0.9631
   15MOL   H278 6466   6.076   4.389   7.169  0.0751  1.2726 -1.1486
   15MOL   H279 6467   5.920   4.398   7.111  0.2417 -0.4643  0.8071
   15MOL   H280 6468   5.816   4.416   7.340  2.0798  3.0263 -0.1447
   15MOL   H281 6469   5.892   4.265   7.321  0.1475 -0.1510  0.8403
   15MOL   H282 6470   6.081   4.339   7.452 -0.9238 -1.5458  0.7775
   15MOL   H283 6471   5.944   4.375   7.549  2.1798 -0.0325  0.2076
   15MOL   H284 6472   6.106   4.584   7.538  1.7055  2.0390 -0.3578
   15MOL   H285 6473   5.953   4.615   7.506  0.2347 -0.3911 -0.3892
   15MOL   H286 6474   6.273   4.895   7.224 -1.2064  0.4623  1.2940
   15MOL   H287 6475   6.200   4.784   7.122  0.2202  2.1048 -0.9659
   15MOL   C288 6476   6.376   4.711   7.227 -0.3208  0.1149 -0.1134
   15MOL   C289 6477   6.455   4.720   7.354 -0.1995  0.0237 -0.0393
   15MOL   C290 6478   6.580   4.626   7.356  0.0549 -0.3437  0.6289
   15MOL   C291 6479   6.634   4.615   7.499  0.4971  0.6768 -0.2118
   15MOL   C292 6480   6.666   4.754   7.559  0.4976 -0.7460  0.3038
   15MOL   C293 6481   6.545   4.852   7.549  0.1482  0.3757  0.6299
   15MOL   C294 6482   6.489   4.863   7.404  0.4890  0.4172  0.1310
   15MOL   C295 6483   6.451   4.734   7.092 -1.0593  0.2988 -0.2939
   15MOL   H296 6484   6.352   4.605   7.215  1.0362 -0.1127 -0.9258
   15MOL   H297 6485   6.391   4.672   7.429 -0.6085  0.0269 -0.3808
   15MOL   H298 6486   6.554   4.526   7.322 -1.1465 -0.1688  1.0240
   15MOL   H299 6487   6.665   4.654   7.293 -0.9107 -0.5292 -0.7752
   15MOL   H300 6488   6.551   4.575   7.557  0.0934  0.1194 -1.1612
   15MOL   H301 6489   6.720   4.550   7.514  0.0230  0.2041  0.4522
   15MOL   H302 6490   6.754   4.789   7.506 -2.0409 -0.1046 -3.6587
   15MOL   H303 6491   6.698   4.748   7.663 -0.1500  3.2042  0.8219
   15MOL   H304 6492   6.585   4.948   7.581 -1.0015  0.8993  0.5302
   15MOL   H305 6493   6.467   4.817   7.616  0.4010 -1.1412  0.1542
   15MOL   H306 6494   6.549   4.917   7.331 -0.6078 -0.0601 -1.1362
   15MOL   H307 6495   6.409   4.936   7.411 -0.3217 -0.6743  3.1617
   15MOL   H308 6496   6.416   4.827   7.045  2.9698  2.7806  1.3693
   15MOL   H309 6497   6.554   4.762   7.113 -1.6488  0.3429  2.6859
   15MOL   C310 6498   6.445   4.623   6.985 -0.5476 -0.8977  0.1866
   15MOL   C311 6499   6.306   4.607   6.929 -0.2796  0.0286  0.3612
   15MOL   C312 6500   6.255   4.712   6.842  0.9422 -0.2325 -0.8883
   15MOL   C313 6501   6.113   4.700   6.804  0.4750 -0.4266 -0.1002
   15MOL   C314 6502   6.099   4.567   6.721  0.1153 -0.2013 -0.4245
   15MOL   C315 6503   6.134   4.445   6.802  0.4070  0.0846 -0.0464
   15MOL   C316 6504   6.278   4.466   6.869  0.3787 -0.4511 -0.1094
   15MOL   C317 6505   6.556   4.642   6.876  0.2461 -0.7642  0.3065
   15MOL   H318 6506   6.468   4.535   7.046 -1.7134 -2.1744 -1.1523
   15MOL   H319 6507   6.232   4.616   7.008  0.2840  0.1508  0.8772
   15MOL   H320 6508   6.257   4.815   6.879 -0.0747 -0.2134 -0.8744
   15MOL   H321 6509   6.306   4.722   6.746  0.2028 -1.3224 -1.4033
   15MOL   H322 6510   6.081   4.794   6.759 -0.3266  0.9379  3.1162
   15MOL   H323 6511   6.049   4.691   6.891 -1.1063 -2.1949 -1.4260
   15MOL   H324 6512   5.999   4.556   6.681 -0.3092  2.4445 -0.1640
   15MOL   H325 6513   6.162   4.574   6.632 -1.0706  2.2117 -1.0959
   15MOL   H326 6514   6.054   4.433   6.874  0.8025 -1.7630  0.1312
   15MOL   H327 6515   6.150   4.357   6.739  0.2085 -0.3548  0.5115
   15MOL   H328 6516   6.365   4.433   6.812  0.0635 -1.7746  0.1610
   15MOL   H329 6517   6.276   4.396   6.952  2.0787  1.3274  1.4773
   15MOL   H330 6518   6.542   4.746   6.847 -0.3362 -0.0655  2.9386
   15MOL   H331 6519   6.532   4.585   6.786  2.7591  1.0974 -1.6342
   15MOL   C332 6520   6.702   4.606   6.920 -0.7723 -0.0030 -0.0701
   15MOL   C333 6521   6.809   4.709   6.880 -0.0389 -0.0273  0.1153
   15MOL   C334 6522   6.801   4.851   6.945 -0.9159 -0.6299  0.0747
   15MOL   C335 6523   6.906   4.952   6.892  0.2384  0.1294 -0.7629
   15MOL   C336 6524   6.909   4.972   6.736  0.5562 -0.0363  0.2338
   15MOL   C337 6525   6.933   4.832   6.677  0.2761  0.2668  0.3481
   15MOL   C338 6526   6.817   4.732   6.725  0.0788 -0.0833  0.3299
   15MOL   C339 6527   6.739   4.464   6.863 -0.0017 -0.0741 -0.1590
   15MOL   H340 6528   6.710   4.596   7.029 -3.9671 -1.3362  0.0855
   15MOL   H341 6529   6.904   4.669   6.915  1.0929  1.2897 -1.4027
   15MOL   H342 6530   6.701   4.892   6.929 -1.4565 -1.7805  0.4540
   15MOL   H343 6531   6.820   4.843   7.052 -2.5038 -0.6655  0.3699
   15MOL   H344 6532   6.887   5.053   6.927 -1.9024 -0.3369 -0.5432
   15MOL   H345 6533   7.004   4.920   6.929  0.7441 -0.5921 -2.6521
   15MOL   H346 6534   6.820   5.014   6.689 -0.3640 -1.9475  0.1782
   15MOL   H347 6535   6.995   5.031   6.705  1.4083 -0.8088  1.1227
   15MOL   H348 6536   7.030   4.787   6.698 -0.1773 -0.4039  0.9991
   15MOL   H349 6537   6.929   4.835   6.568 -3.3352 -1.9334  0.3507
   15MOL   H350 6538   6.835   4.635   6.677  1.6466  0.7159 -0.7631
   15MOL   H351 6539   6.721   4.769   6.690  1.4128  3.3359  0.1581
   15MOL   H352 6540   6.847   4.457   6.867  0.0323  0.5647  0.1766
   15MOL   H353 6541   6.722   4.475   6.756 -1.4023 -1.3783 -0.0826
   15MOL   C354 6542   6.678   4.336   6.933  0.5345 -0.3592  0.3385
   15MOL   C355 6543   6.703   4.317   7.086  0.1687 -0.0728 -0.4251
   15MOL   C356 6544   6.860   4.318   7.130  0.7118  0.1307  0.9324
   15MOL   C357 6545   6.870   4.323   7.285  0.0764  0.0685  0.1500
   15MOL   C358 6546   6.808   4.202   7.350 -0.1491  0.5723  0.0605
   15MOL   C359 6547   6.658   4.194   7.308 -0.8577  0.2908 -0.1097
   15MOL   C360 6548   6.632   4.198   7.156 -0.0895  0.4401 -0.6637
   15MOL   C361 6549   6.720   4.210   6.849 -0.3444 -0.2609 -0.2158
   15MOL   H362 6550   6.572   4.356   6.918  1.2827  1.1662 -3.5722
   15MOL   H363 6551   6.654   4.401   7.134  0.0637 -2.2514  3.5546
   15MOL   H364 6552   6.900   4.412   7.092  3.1005 -0.6031  1.5295
   15MOL   H365 6553   6.900   4.234   7.073 -2.3037  2.0411 -4.3613
   15MOL   H366 6554   6.974   4.331   7.316  0.2573  4.2691 -1.2943
   15MOL   H367 6555   6.819   4.411   7.324  1.1366  1.0359 -0.6152
   15MOL   H368 6556   6.857   4.109   7.323  0.4111  1.0113 -0.4450
   15MOL   H369 6557   6.806   4.211   7.459 -1.2292  2.2949 -0.0817
   15MOL   H370 6558   6.636   4.098   7.355  1.4547 -0.3744 -0.3026
   15MOL   H371 6559   6.596   4.267   7.359 -0.5117  1.4067 -1.2465
   15MOL   H372 6560   6.527   4.207   7.130 -0.5188 -2.3317 -0.0383
   15MOL   H373 6561   6.642   4.097   7.117 -1.5694 -0.2570  0.7213
   15MOL   H374 6562   6.771   4.142   6.917  0.1424  1.3760  1.0624
   15MOL   H375 6563   6.799   4.241   6.781 -1.8555  1.0704 -1.4146
   15MOL   C376 6564   6.616   4.140   6.757 -0.3163  0.5937  0.1316
   15MOL   C377 6565   6.551   4.232   6.651  0.2304 -0.5364  0.3143
   15MOL   C378 6566   6.412   4.185   6.615 -0.0330 -0.2900  0.1397
   15MOL   C379 6567   6.337   4.287   6.517  0.5328 -0.2295  0.2834
   15MOL   C380 6568   6.421   4.318   6.393 -0.2979  0.1652 -0.0203
   15MOL   C381 6569   6.575   4.357   6.424 -0.2412  0.3010 -0.1610
   15MOL   C382 6570   6.643   4.261   6.526  0.3367 -0.9404 -0.4915
   15MOL   C383 6571   6.681   4.015   6.691  0.0541 -0.6420  0.2594
   15MOL   H384 6572   6.532   4.111   6.820 -0.6987 -1.0670 -1.0821
   15MOL   H385 6573   6.529   4.328   6.698  2.5323  0.5114 -0.6637
   15MOL   H386 6574   6.437   4.090   6.566  0.3118  0.2811 -0.8152
   15MOL   H387 6575   6.360   4.166   6.708 -0.6889 -0.0993 -0.1815
   15MOL   H388 6576   6.324   4.384   6.566  1.6598 -0.7945  1.7490
   15MOL   H389 6577   6.237   4.252   6.491  0.9809 -0.9375 -0.5042
   15MOL   H390 6578   6.420   4.226   6.335  0.7639 -1.4084  2.4382
   15MOL   H391 6579   6.384   4.404   6.336  0.2001 -0.7643 -1.7770
   15MOL   H392 6580   6.642   4.362   6.338 -0.7862  0.2330 -0.5909
   15MOL   H393 6581   6.582   4.460   6.461 -1.1245  0.5026 -0.5316
   15MOL   H394 6582   6.657   4.165   6.476  0.0605 -0.5937 -1.2538
   15MOL   H395 6583   6.739   4.302   6.555 -0.3414  0.1077  0.3026
   15MOL   H396 6584   6.778   4.047   6.654  0.1020  0.2065  1.1017
   15MOL   H397 6585   6.616   3.987   6.607 -0.6748  0.2671  0.5147
   15MOL   C398 6586   6.694   3.882   6.771 -0.2727  1.1690 -0.4730
   15MOL   C399 6587   6.564   3.848   6.858 -0.2945 -0.5671  0.0289
   15MOL   C400 6588   6.430   3.833   6.779  0.7741  0.3368 -0.0265
   15MOL   C401 6589   6.308   3.798   6.873  0.3619  0.3122  0.0017
   15MOL   C402 6590   6.336   3.670   6.946 -0.0114 -0.2221  0.0909
   15MOL   C403 6591   6.461   3.682   7.035  0.0365 -0.2482 -0.5573
   15MOL   C404 6592   6.581   3.725   6.949  0.7293 -0.3440  0.2614
   15MOL   C405 6593   6.754   3.766   6.681 -0.1718 -0.2305  0.3471
   15MOL   H406 6594   6.778   3.897   6.839  1.3940  0.2520 -2.2824
   15MOL   H407 6595   6.561   3.927   6.933 -0.2159  2.1047 -2.6939
   15MOL   H408 6596   6.428   3.765   6.695 -1.1604  1.5647 -0.9958
   15MOL   H409 6597   6.409   3.929   6.733 -0.1840  0.4254  0.5775
   15MOL   H410 6598   6.215   3.803   6.817  0.8006  1.6856 -0.6467
   15MOL   H411 6599   6.302   3.885   6.940 -0.0488 -1.3743  2.2073
   15MOL   H412 6600   6.359   3.596   6.870  2.0998  0.8844 -0.4158
   15MOL   H413 6601   6.246   3.645   7.002  0.0228  2.2467  1.3258
   15MOL   H414 6602   6.441   3.751   7.117  0.4374  0.3861 -0.9848
   15MOL   H415 6603   6.484   3.586   7.079  0.1462  0.3580  0.7389
   15MOL   H416 6604   6.668   3.746   7.010  1.6622 -0.2249 -1.0734
   15MOL   H417 6605   6.605   3.630   6.900  0.5009 -1.2395  1.8646
   15MOL   H418 6606   6.761   3.677   6.744  2.1668 -1.7968 -2.0058
   15MOL   H419 6607   6.689   3.758   6.594  0.9226  1.0934 -0.6328
   15MOL   C420 6608   6.901   3.793   6.621 -0.0849 -0.2622  0.3040
   15MOL   C421 6609   6.949   3.678   6.526  0.6034 -0.4554  1.3883
   15MOL   C422 6610   6.855   3.647   6.406  0.0639  0.7062 -0.2745
   15MOL   C423 6611   6.921   3.550   6.306 -0.6409  0.7867  0.7184
   15MOL   C424 6612   6.963   3.421   6.381 -0.1163 -0.4428  0.0833
   15MOL   C425 6613   7.038   3.447   6.515 -0.3203 -0.0888  0.0010
   15MOL   C426 6614   6.965   3.550   6.605 -0.1583  1.0747  0.2241
   15MOL   C427 6615   7.008   3.817   6.731 -1.0284  0.7510 -0.2973
   15MOL   H428 6616   6.895   3.886   6.564  1.0389 -0.5660 -0.3262
   15MOL   H429 6617   7.045   3.706   6.482  1.4748 -1.5993  2.5276
   15MOL   H430 6618   6.758   3.610   6.438 -0.0291  1.5401  0.4062
   15MOL   H431 6619   6.812   3.734   6.357 -0.5015 -0.2755 -1.5796
   15MOL   H432 6620   6.860   3.540   6.216 -2.6145  1.9049  1.8936
   15MOL   H433 6621   7.004   3.614   6.276  0.0306 -0.2076  0.4213
   15MOL   H434 6622   7.030   3.366   6.313  1.4085 -2.6278  3.2228
   15MOL   H435 6623   6.876   3.357   6.395  2.3527 -3.6003  1.8915
   15MOL   H436 6624   7.135   3.495   6.502 -0.7652  0.5858 -0.9355
   15MOL   H437 6625   7.052   3.348   6.557 -2.9150 -0.7406 -0.5584
   15MOL   H438 6626   6.870   3.507   6.636  1.2218 -2.2562 -0.0288
   15MOL   H439 6627   7.029   3.568   6.691  0.9486 -0.6113 -0.2432
   15MOL   H440 6628   7.111   3.808   6.696 -1.0575 -0.7341 -0.0173
   15MOL   H441 6629   6.983   3.919   6.758 -1.5869  0.9457 -1.4967
   15MOL   H442 6630   6.989   3.753   6.817  1.7625  0.5260  0.2147
   16MOL     C1 6631   6.056   0.151   3.329 -0.0795 -0.3468  0.9381
   16MOL     C2 6632   5.971   0.131   3.197 -0.4941  0.3459 -0.6035
   16MOL     C3 6633   6.059   0.133   3.071  0.2910  0.0974 -0.5553
   16MOL     C4 6634   5.980   0.107   2.940  0.1929 -0.8970  0.1762
   16MOL     C5 6635   5.855   0.196   2.932 -0.5548  0.0767 -0.8012
   16MOL     C6 6636   5.770   0.188   3.059  0.3495  0.1167 -1.0945
   16MOL     C7 6637   5.852   0.228   3.183  0.5956 -0.1198  0.2307
   16MOL     C8 6638   5.990   0.161   3.466  0.1246  1.0880 -0.0674
   16MOL     H9 6639   6.122   0.064   3.332  0.7567  0.2883  1.1543
   16MOL    H10 6640   5.928   0.032   3.211 -0.7300  0.3465 -1.3030
   16MOL    H11 6641   6.116   0.225   3.066 -0.2489  0.4642 -0.1065
   16MOL    H12 6642   6.124   0.046   3.071 -1.8789 -1.5669 -0.2618
   16MOL    H13 6643   5.951   0.003   2.927  1.2041 -0.9194 -1.9934
   16MOL    H14 6644   6.044   0.129   2.855  0.6099 -2.2988  0.1253
   16MOL    H15 6645   5.786   0.170   2.852 -1.0708  0.1459 -0.3785
   16MOL    H16 6646   5.880   0.302   2.927 -2.0374  0.4356 -0.7690
   16MOL    H17 6647   5.677   0.244   3.052  0.0325 -0.4887 -1.8210
   16MOL    H18 6648   5.728   0.091   3.086  1.8466  0.0495  1.1153
   16MOL    H19 6649   5.791   0.230   3.273 -2.2416 -1.4684 -1.5673
   16MOL    H20 6650   5.889   0.327   3.157  2.7311 -1.4315 -1.9157
   16MOL    H21 6651   5.915   0.081   3.467  0.6665  0.5730 -0.1197
   16MOL    H22 6652   5.945   0.260   3.472 -0.4996  0.9748 -2.2292
   16MOL    H23 6653   6.127   0.231   3.308  0.3025 -0.9749 -0.2650
   16MOL    C24 6654   6.088   0.126   3.590 -0.4970  0.2371  0.6203
   16MOL    C25 6655   6.182   0.240   3.628  0.0600  0.5499 -0.0425
   16MOL    C26 6656   6.302   0.205   3.722  0.7306  0.9975  0.1860
   16MOL    C27 6657   6.400   0.321   3.745 -0.3853 -0.0564 -0.2509
   16MOL    C28 6658   6.316   0.435   3.814  0.2821  0.0315  0.0558
   16MOL    C29 6659   6.202   0.482   3.721  0.2008  0.6284 -0.3481
   16MOL    C30 6660   6.105   0.363   3.691  0.3846  0.4470 -0.6623
   16MOL    C31 6661   6.002   0.082   3.705 -0.3518 -0.1875 -0.2679
   16MOL    H32 6662   6.159   0.050   3.557  0.8121  0.3979  2.9933
   16MOL    H33 6663   6.223   0.294   3.542 -0.0574  1.0551  0.2129
   16MOL    H34 6664   6.359   0.120   3.685 -1.5780 -1.0867  1.2573
   16MOL    H35 6665   6.262   0.183   3.821  1.8676  0.7297  0.5894
   16MOL    H36 6666   6.487   0.283   3.799 -1.2287  0.0682  1.2106
   16MOL    H37 6667   6.447   0.346   3.649  3.4908 -2.2390  0.9862
   16MOL    H38 6668   6.382   0.520   3.833  1.2132 -0.5313 -0.6179
   16MOL    H39 6669   6.299   0.397   3.914  2.1827 -1.5300 -0.1868
   16MOL    H40 6670   6.149   0.563   3.771  0.6012 -0.1105  1.2947
   16MOL    H41 6671   6.243   0.528   3.630  1.4810  1.9493  0.8743
   16MOL    H42 6672   6.048   0.331   3.778  0.2937  1.9930 -0.1302
   16MOL    H43 6673   6.031   0.397   3.619  0.4235  0.4903 -0.6821
   16MOL    H44 6674   5.911   0.140   3.711 -0.9818 -1.2373  0.4781
   16MOL    H45 6675   6.063   0.097   3.794  0.3568  0.3380 -0.8307
   16MOL    C46 6676   5.972   7.698   3.693 -0.1635  0.2571 -0.6448
   16MOL    C47 6677   5.842   7.660   3.763  0.1420 -0.1742 -0.7469
   16MOL    C48 6678   5.724   7.687   3.672 -0.2830  0.3170  0.1451
   16MOL    C49 6679   5.606   7.609   3.720  0.6978  0.9963  0.5016
   16MOL    C50 6680   5.567   7.648   3.861  0.2955 -0.2303 -0.3995
   16MOL    C51 6681   5.691   7.633   3.952  0.8172 -0.2182 -0.4848
   16MOL    C52 6682   5.818   7.698   3.909 -0.8684 -0.0475  0.2261
   16MOL    C53 6683   6.099   7.617   3.737  0.5096 -0.4342  0.4427
   16MOL    H54 6684   5.963   7.683   3.586 -5.5086  1.6595 -0.5052
   16MOL    H55 6685   5.837   7.551   3.757 -1.5763 -0.0766 -1.5596
   16MOL    H56 6686   5.709   0.023   3.683 -1.5664 -0.0326  1.8975
   16MOL    H57 6687   5.742   7.669   3.566 -0.4340 -1.7827  0.4565
   16MOL    H58 6688   5.616   7.501   3.712 -0.7497  0.8764  0.2597
   16MOL    H59 6689   5.523   7.643   3.659 -0.0801  0.8824  1.4881
   16MOL    H60 6690   5.526   7.747   3.884 -1.6725 -1.5799  2.1532
   16MOL    H61 6691   5.494   7.574   3.895  2.7279 -2.0162  1.0658
   16MOL    H62 6692   5.725   7.531   3.967  1.2925 -0.6253 -3.9616
   16MOL    H63 6693   5.683   7.676   4.052  0.3742  1.2785 -1.1508
   16MOL    H64 6694   5.814   0.034   3.922 -0.0148 -0.0556  0.5352
   16MOL    H65 6695   5.899   7.659   3.970  0.9969 -0.4581 -2.4347
   16MOL    H66 6696   6.088   7.598   3.844 -1.0766  2.9287  0.9554
   16MOL    H67 6697   6.188   7.680   3.732  0.1646  0.1151  1.0790
   16MOL    C68 6698   6.127   7.483   3.663  0.1877 -0.6500  0.1493
   16MOL    C69 6699   6.145   7.498   3.507 -0.0665 -0.6508 -0.1960
   16MOL    C70 6700   6.282   7.559   3.457 -0.3051  0.0022  0.0248
   16MOL    C71 6701   6.262   7.587   3.303 -0.3316 -0.0743  0.1283
   16MOL    C72 6702   6.231   7.456   3.232  0.6975 -0.1337 -0.0418
   16MOL    C73 6703   6.110   7.388   3.295 -0.4119 -0.1264 -0.0396
   16MOL    C74 6704   6.126   7.364   3.441  0.5924 -0.4331 -0.7578
   16MOL    C75 6705   6.248   7.403   3.723  0.2954 -0.6947  0.1789
   16MOL    H76 6706   6.037   7.422   3.668  0.6473 -1.6814 -3.1460
   16MOL    H77 6707   6.061   7.559   3.472  0.4577  0.6960  0.8488
   16MOL    H78 6708   6.370   7.495   3.459 -0.3439 -0.0386  0.3439
   16MOL    H79 6709   6.310   7.654   3.503 -1.7725  1.7362 -2.5046
   16MOL    H80 6710   6.178   7.651   3.276  0.4366  1.1578  0.5768
   16MOL    H81 6711   6.348   7.634   3.254  0.8822 -1.0367  1.2947
   16MOL    H82 6712   6.317   7.391   3.249 -0.6350 -2.1539 -0.8688
   16MOL    H83 6713   6.205   7.471   3.128  1.2153  0.5740 -0.0692
   16MOL    H84 6714   6.086   7.294   3.244 -0.9472  1.5465 -2.9625
   16MOL    H85 6715   6.019   7.445   3.276  0.1647  1.2451  1.2860
   16MOL    H86 6716   6.215   7.305   3.459  2.6024  1.8356 -2.8084
   16MOL    H87 6717   6.039   7.310   3.478 -0.1587  2.5428  2.0294
   16MOL    H88 6718   6.330   7.410   3.653  0.1032  1.5440  0.1403
   16MOL    H89 6719   6.282   7.464   3.807 -1.5333  1.0610 -0.3124
   16MOL    C90 6720   6.214   7.259   3.763  1.1218 -0.0793  0.6951
   16MOL    C91 6721   6.340   7.160   3.785 -0.1900  0.2256 -0.8929
   16MOL    C92 6722   6.393   7.103   3.652  0.3241 -0.5306 -0.2286
   16MOL    C93 6723   6.508   6.997   3.657 -0.3688  0.2804  0.7254
   16MOL    C94 6724   6.628   7.056   3.735 -0.0945  0.3602  0.1780
   16MOL    C95 6725   6.584   7.135   3.864  0.0905  0.1394 -0.1972
   16MOL    C96 6726   6.465   7.224   3.846 -0.6900 -0.2192 -0.7906
   16MOL    C97 6727   6.111   7.256   3.882 -0.5500 -0.6390  0.0406
   16MOL    H98 6728   6.159   7.227   3.674 -0.5274  0.1675  1.6060
   16MOL    H99 6729   6.305   7.082   3.852 -0.8218  0.8132 -0.5454
   16MOL   H100 6730   6.434   7.184   3.593  1.7369 -0.5187  0.7253
   16MOL   H101 6731   6.308   7.057   3.603 -0.1446 -1.3961  1.3727
   16MOL   H102 6732   6.542   6.968   3.558 -3.1402 -1.1532  0.1300
   16MOL   H103 6733   6.472   6.914   3.716 -0.3793  0.4086  0.9003
   16MOL   H104 6734   6.686   7.126   3.675  1.7448 -0.3058  1.1381
   16MOL   H105 6735   6.699   6.981   3.770 -0.4288 -0.3486 -0.6487
   16MOL   H106 6736   6.556   7.059   3.937 -1.4150  0.6773 -0.1969
   16MOL   H107 6737   6.664   7.195   3.906  0.5126 -0.3361 -0.3207
   16MOL   H108 6738   6.433   7.273   3.938  0.9890 -1.1501  0.3111
   16MOL   H109 6739   6.501   7.307   3.785  1.9364 -0.4227  0.4223
   16MOL   H110 6740   6.164   7.285   3.973  0.5708  1.4689 -1.2431
   16MOL   H111 6741   6.040   7.339   3.879 -1.3871 -1.3863 -1.5884
   16MOL   C112 6742   6.019   7.130   3.889 -0.2364 -0.0360  0.2260
   16MOL   C113 6743   5.908   7.120   3.779  0.6332  0.5185  0.3259
   16MOL   C114 6744   5.791   7.214   3.779  0.2376 -0.0520 -0.0748
   16MOL   C115 6745   5.710   7.202   3.647 -0.1444 -0.2617  0.7409
   16MOL   C116 6746   5.665   7.057   3.610  0.0413  0.1355 -0.2471
   16MOL   C117 6747   5.783   6.965   3.620 -0.3051 -0.6106 -0.2417
   16MOL   C118 6748   5.850   6.981   3.761  0.4401 -0.0505  0.5132
   16MOL   C119 6749   5.949   7.106   4.030 -0.0889 -0.7667  0.0139
   16MOL   H120 6750   6.086   7.046   3.871  0.0537  0.4534 -1.0434
   16MOL   H121 6751   5.960   7.134   3.685  0.5679  0.4309  0.2770
   16MOL   H122 6752   5.833   7.314   3.766 -1.0604  0.5481  0.2796
   16MOL   H123 6753   5.727   7.211   3.867 -0.5993 -0.7003 -0.6976
   16MOL   H124 6754   5.619   7.262   3.651 -0.5220 -0.7444 -0.3028
   16MOL   H125 6755   5.766   7.246   3.564 -1.3391 -1.8748 -0.9570
   16MOL   H126 6756   5.588   7.026   3.680 -1.5602 -0.2355 -2.1343
   16MOL   H127 6757   5.614   7.057   3.514  4.1522  0.0035 -2.5221
   16MOL   H128 6758   5.757   6.866   3.584  1.6810 -0.7525 -1.3604
   16MOL   H129 6759   5.864   7.000   3.557  0.0078  1.8726  1.4702
   16MOL   H130 6760   5.932   6.911   3.778  1.1579  0.5986 -0.2478
   16MOL   H131 6761   5.780   6.948   3.839 -1.4068  0.8794 -0.7190
   16MOL   H132 6762   5.861   7.041   4.036  1.1159 -2.7601 -2.8623
   16MOL   H133 6763   5.898   7.198   4.059 -1.4754 -1.1868 -1.0270
   16MOL   C134 6764   6.051   7.074   4.152  0.1039 -0.1731  0.0237
   16MOL   C135 6765   6.118   6.940   4.124  0.2814  0.3187  0.2036
   16MOL   C136 6766   6.034   6.818   4.167  0.1419 -0.1203 -0.4403
   16MOL   C137 6767   6.094   6.689   4.108  0.2618 -0.5338  0.1968
   16MOL   C138 6768   6.232   6.663   4.168 -0.0649  0.0735 -0.2614
   16MOL   C139 6769   6.324   6.784   4.144 -0.6571  0.3078  0.0944
   16MOL   C140 6770   6.265   6.925   4.182  0.1402  0.1419 -0.3831
   16MOL   C141 6771   5.975   7.085   4.289 -0.4934  0.4233 -0.0647
   16MOL   H142 6772   6.134   7.145   4.155  0.1983 -0.3152  0.8826
   16MOL   H143 6773   6.136   6.930   4.017  0.0668  3.1753 -0.1174
   16MOL   H144 6774   6.042   6.816   4.275 -2.5617  2.0397 -0.1519
   16MOL   H145 6775   5.933   6.833   4.129  1.4266 -0.0211 -4.0555
   16MOL   H146 6776   6.113   6.708   4.002  1.5546  2.8439  0.9365
   16MOL   H147 6777   6.030   6.601   4.112  2.0524 -1.8344  0.8339
   16MOL   H148 6778   6.221   6.648   4.276  0.9678  2.8297  0.2884
   16MOL   H149 6779   6.271   6.569   4.131 -0.4824  0.3890 -1.5193
   16MOL   H150 6780   6.356   6.781   4.040 -0.4686 -3.4342  0.2161
   16MOL   H151 6781   6.418   6.772   4.198  0.7209  0.4203 -2.2387
   16MOL   H152 6782   6.258   6.927   4.290 -1.6554  1.4839 -0.5005
   16MOL   H153 6783   6.336   7.003   4.154 -1.3411  1.5377 -0.3216
   16MOL   H154 6784   5.907   7.001   4.277 -0.9676  0.9219 -0.9150
   16MOL   H155 6785   5.909   7.171   4.281  3.6453  3.5583 -2.9308
   16MOL   C156 6786   6.060   7.102   4.415 -0.0545  0.3144  0.4570
   16MOL   C157 6787   5.987   7.077   4.549  0.5703 -0.0810  0.5855
   16MOL   C158 6788   5.855   7.162   4.572 -0.8184  0.6145 -0.1500
   16MOL   C159 6789   5.796   7.126   4.712  0.0751 -0.7306  0.3394
   16MOL   C160 6790   5.768   6.976   4.725 -0.4230 -0.3454  0.1040
   16MOL   C161 6791   5.898   6.894   4.703  0.3656 -0.3356  0.2315
   16MOL   C162 6792   5.950   6.929   4.560  0.1971  0.0253 -0.3083
   16MOL   C163 6793   6.131   7.245   4.419 -0.0900 -0.0123 -0.2516
   16MOL   H164 6794   6.144   7.033   4.410  0.8260  1.2230  2.3301
   16MOL   H165 6795   6.059   7.107   4.625 -0.5739  0.7025  1.3656
   16MOL   H166 6796   5.870   7.270   4.574 -3.4877  1.0143 -0.3685
   16MOL   H167 6797   5.799   7.142   4.481  1.5031 -3.1178 -0.8631
   16MOL   H168 6798   5.869   7.156   4.788 -0.8486  0.2330  0.8549
   16MOL   H169 6799   5.707   7.188   4.722  0.9874  0.6014  0.4955
   16MOL   H170 6800   5.688   6.951   4.656 -0.5670  2.3935 -0.7781
   16MOL   H171 6801   5.729   6.951   4.824  0.9683 -0.3389  0.6700
   16MOL   H172 6802   5.877   6.787   4.704 -0.3560 -0.2581 -2.0358
   16MOL   H173 6803   5.962   6.934   4.781 -0.6746 -0.5198  1.1766
   16MOL   H174 6804   6.036   6.866   4.539  1.3046  1.1220  0.8932
   16MOL   H175 6805   5.876   6.891   4.489 -0.8885  0.0748  0.7893
   16MOL   H176 6806   6.058   7.317   4.455 -0.9810  0.0069 -2.0215
   16MOL   H177 6807   6.158   7.274   4.317  0.6185 -2.2980 -0.7551
   16MOL   C178 6808   6.254   7.257   4.508 -0.8011 -0.2500 -0.5992
   16MOL   C179 6809   6.380   7.219   4.430 -0.0470 -0.2252 -0.1223
   16MOL   C180 6810   6.500   7.197   4.528 -0.5253 -0.3759  0.1072
   16MOL   C181 6811   6.635   7.166   4.452  0.1039 -0.7689 -0.0828
   16MOL   C182 6812   6.658   7.258   4.333 -0.0343  0.5687  0.3697
   16MOL   C183 6813   6.539   7.278   4.243  0.0058  0.0505 -0.3006
   16MOL   C184 6814   6.421   7.325   4.323  0.1766  0.0306  0.2283
   16MOL   C185 6815   6.267   7.395   4.578 -0.0977  0.4956  0.2581
   16MOL   H186 6816   6.256   7.182   4.588  0.8509 -1.1100 -1.4306
   16MOL   H187 6817   6.359   7.127   4.376  0.5664 -0.1185 -0.5476
   16MOL   H188 6818   6.513   7.285   4.592  0.5934 -0.5662  0.1608
   16MOL   H189 6819   6.471   7.114   4.592  2.3278 -0.7757  0.9594
   16MOL   H190 6820   6.658   7.067   4.413 -0.2367 -0.3351 -1.4046
   16MOL   H191 6821   6.719   7.173   4.521 -0.6140 -0.6819  0.7935
   16MOL   H192 6822   6.678   7.362   4.360 -0.3232  0.1999  2.0327
   16MOL   H193 6823   6.735   7.215   4.269 -0.3602 -2.4906  1.9385
   16MOL   H194 6824   6.501   7.188   4.193 -0.2310  0.6776 -1.2614
   16MOL   H195 6825   6.570   7.352   4.169  1.1521 -0.3060 -0.1947
   16MOL   H196 6826   6.442   7.419   4.375  0.5832  1.4579 -2.4126
   16MOL   H197 6827   6.341   7.347   4.252  0.3994  1.0738  0.2921
   16MOL   H198 6828   6.366   7.424   4.615 -0.2185  1.0604  0.1359
   16MOL   H199 6829   6.252   7.467   4.498 -0.5006  2.2740  1.8828
   16MOL   C200 6830   6.175   7.423   4.696 -0.0033  0.0442 -0.1747
   16MOL   C201 6831   6.229   7.349   4.816 -0.7533  0.3470 -0.2674
   16MOL   C202 6832   6.367   7.399   4.879 -0.0793 -0.2778  0.1013
   16MOL   C203 6833   6.413   7.308   4.999 -0.6167 -0.2271  0.7141
   16MOL   C204 6834   6.302   7.297   5.113 -0.1272 -0.1595  0.3289
   16MOL   C205 6835   6.164   7.259   5.054  0.6526 -0.9290 -0.1778
   16MOL   C206 6836   6.130   7.342   4.933 -0.5240  0.2496 -0.1448
   16MOL   C207 6837   6.152   7.578   4.713  0.0407 -0.3483  0.0282
   16MOL   H208 6838   6.077   7.382   4.675  0.5774 -0.4967 -1.9147
   16MOL   H209 6839   6.250   7.243   4.798  0.2930  0.3318  0.9590
   16MOL   H210 6840   6.337   7.499   4.908  0.4739 -0.0842  0.0078
   16MOL   H211 6841   6.442   7.412   4.800  0.1942 -2.1753  0.0145
   16MOL   H212 6842   6.442   7.208   4.964 -1.5392 -0.5174  0.7593
   16MOL   H213 6843   6.496   7.344   5.059  1.3211 -1.1287 -1.3625
   16MOL   H214 6844   6.341   7.239   5.196  0.9483 -0.4450 -0.3700
   16MOL   H215 6845   6.304   7.396   5.160 -0.5823 -1.2136  2.6372
   16MOL   H216 6846   6.167   7.151   5.045  0.0409 -0.9535 -0.1370
   16MOL   H217 6847   6.099   7.294   5.135  2.0381  0.2251  0.4497
   16MOL   H218 6848   6.035   7.302   4.898  1.4362 -3.6607 -1.1964
   16MOL   H219 6849   6.103   7.443   4.965 -2.9413 -0.1921 -0.6888
   16MOL   H220 6850   6.083   7.598   4.795 -1.0115 -1.6383 -0.5283
   16MOL   H221 6851   6.244   7.622   4.751  0.3941 -0.8635 -0.2392
   16MOL   C222 6852   6.108   7.667   4.587  0.2562  0.0385 -0.3975
   16MOL   C223 6853   5.983   7.600   4.525 -0.4034 -0.7087 -0.3181
   16MOL   C224 6854   5.963   7.651   4.381  0.6360 -0.3749  0.1143
   16MOL   C225 6855   5.858   7.567   4.310  0.4744  0.4566  0.2287
   16MOL   C226 6856   5.717   7.584   4.384 -0.9848  0.3679 -0.0128
   16MOL   C227 6857   5.732   7.540   4.532 -0.3284  0.0321 -0.0024
   16MOL   C228 6858   5.852   7.607   4.609  0.7149  0.1264  0.5712
   16MOL   C229 6859   6.094   0.036   4.639  1.3944  0.0404  0.0305
   16MOL   H230 6860   6.191   7.670   4.517 -0.0458 -0.8493 -0.7987
   16MOL   H231 6861   6.010   7.497   4.503 -1.2362 -0.6984 -1.4410
   16MOL   H232 6862   5.939   7.757   4.393 -3.2432 -1.1589 -0.0665
   16MOL   H233 6863   6.052   7.640   4.319  0.2588 -1.5496 -0.2206
   16MOL   H234 6864   5.883   7.462   4.298  0.3677  0.5591 -1.0614
   16MOL   H235 6865   5.848   7.609   4.209  1.6686 -1.8272 -0.8700
   16MOL   H236 6866   5.689   7.689   4.395 -1.5219  0.2106  0.1138
   16MOL   H237 6867   5.630   7.537   4.338  0.5221  1.1512 -3.8839
   16MOL   H238 6868   5.740   7.432   4.536  1.2924  0.0763 -1.4885
   16MOL   H239 6869   5.639   7.564   4.583 -1.0278  1.2696 -1.8029
   16MOL   H240 6870   5.820   7.708   4.633 -1.7279 -0.7354  1.1811
   16MOL   H241 6871   5.863   7.549   4.700  0.0264 -0.2077  0.4494
   16MOL   H242 6872   6.011   0.035   4.710 -0.3579  0.8292 -1.9346
   16MOL   H243 6873   6.056   0.091   4.553 -2.7045  0.7209  2.1180
   16MOL   C244 6874   6.222   0.105   4.687  0.2525  0.4723  0.7607
   16MOL   C245 6875   6.190   0.178   4.824  0.2997  0.5171 -0.3717
   16MOL   C246 6876   6.152   0.086   4.945  0.7103  0.3884  0.3738
   16MOL   C247 6877   6.139   0.171   5.075 -0.0728 -0.2128  0.6657
   16MOL   C248 6878   6.030   0.276   5.067 -0.0047 -0.9389  0.5882
   16MOL   C249 6879   6.075   0.366   4.950  0.1438  0.5129  0.0911
   16MOL   C250 6880   6.093   0.298   4.810  0.0915  0.0729  0.3987
   16MOL   C251 6881   6.305   0.202   4.588  0.9041 -0.6258  0.4372
   16MOL   H252 6882   6.299   0.029   4.705 -2.3201 -2.1964  0.9364
   16MOL   H253 6883   6.285   0.216   4.861 -1.1521  2.1099  1.8838
   16MOL   H254 6884   6.224   0.009   4.971  1.2492  0.8259  0.2032
   16MOL   H255 6885   6.055   0.038   4.938  0.8340  0.1808  0.0827
   16MOL   H256 6886   6.119   0.100   5.155  1.2335 -1.0926  0.2252
   16MOL   H257 6887   6.234   0.221   5.095  0.6772 -1.0588 -0.7200
   16MOL   H258 6888   5.939   0.221   5.045 -0.0484 -0.6940  0.1404
   16MOL   H259 6889   6.033   0.332   5.160  1.9351  2.3033 -1.3277
   16MOL   H260 6890   6.170   0.414   4.974  0.0159  0.1726  1.2967
   16MOL   H261 6891   5.999   0.442   4.932  0.4592  0.6894 -0.5236
   16MOL   H262 6892   6.001   0.246   4.785 -0.5042  0.2446  2.2019
   16MOL   H263 6893   6.134   0.369   4.738  1.8991 -1.1553  0.1828
   16MOL   H264 6894   6.348   0.286   4.643 -0.6016  0.4015  0.0634
   16MOL   H265 6895   6.232   0.247   4.521  1.5959 -0.2382 -0.0579
   16MOL   C266 6896   6.418   0.135   4.505  0.5507 -0.1732 -0.0733
   16MOL   C267 6897   6.369   0.099   4.368 -0.2030  0.4510  0.1535
   16MOL   C268 6898   6.446   7.740   4.319 -0.0051  0.5782  0.1853
   16MOL   C269 6899   6.391   7.671   4.190  0.4988 -0.0228  0.3864
   16MOL   C270 6900   6.367   0.005   4.080 -0.1991 -0.0279 -0.1390
   16MOL   C271 6901   6.295   0.136   4.125 -1.4012  0.4007  0.2470
   16MOL   C272 6902   6.359   0.196   4.251 -0.1029 -0.0524 -0.4760
   16MOL   C273 6903   6.545   0.226   4.507 -0.8048 -0.4571 -0.5186
   16MOL   H274 6904   6.441   0.043   4.559  3.0093  0.5285  0.1612
   16MOL   H275 6905   6.268   0.061   4.385  0.2933 -0.3422  1.3865
   16MOL   H276 6906   6.550   7.757   4.294  0.8546 -1.4357  2.1565
   16MOL   H277 6907   6.442   7.666   4.400  0.6699 -1.5604 -1.6875
   16MOL   H278 6908   6.297   7.622   4.214 -0.4886  0.2384 -2.6212
   16MOL   H279 6909   6.463   7.596   4.155  1.5092  1.3847 -0.6474
   16MOL   H280 6910   6.470   0.029   4.053  0.8703  2.6700  5.7129
   16MOL   H281 6911   6.319   7.733   3.992  2.1694  1.8527 -2.4530
   16MOL   H282 6912   6.200   0.087   4.148  0.7411 -2.1802  4.2220
   16MOL   H283 6913   6.292   0.197   4.035  1.0739 -0.8754 -0.7537
   16MOL   H284 6914   6.302   0.286   4.274 -0.2425 -0.3665  0.4051
   16MOL   H285 6915   6.451   0.244   4.216 -0.9889  1.3425 -0.9537
   16MOL   H286 6916   6.523   0.328   4.475 -0.7206 -0.9389 -2.1634
   16MOL   H287 6917   6.611   0.198   4.425 -0.1750  0.7755 -0.4449
   16MOL   C288 6918   6.625   0.229   4.647 -0.0097  0.7537 -0.3512
   16MOL   C289 6919   6.678   0.366   4.688  0.1210 -0.4531  0.0594
   16MOL   C290 6920   6.775   0.422   4.582 -0.4822 -0.6820  0.1777
   16MOL   C291 6921   6.814   0.567   4.618 -0.4086 -0.1970 -0.3001
   16MOL   C292 6922   6.686   0.658   4.626 -0.4501  1.0566  0.0504
   16MOL   C293 6923   6.599   0.612   4.741 -0.5276  0.3142 -0.0473
   16MOL   C294 6924   6.563   0.466   4.720  0.2051 -0.1521  0.4674
   16MOL   C295 6925   6.739   0.124   4.643 -0.6651  0.2915 -0.8352
   16MOL   H296 6926   6.557   0.194   4.725  0.9281  1.0612  0.6134
   16MOL   H297 6927   6.733   0.355   4.781 -0.0470  0.6664  0.2979
   16MOL   H298 6928   6.863   0.361   4.560  0.0960  0.8332 -1.8531
   16MOL   H299 6929   6.717   0.425   4.490 -1.4304  1.6169  0.8059
   16MOL   H300 6930   6.871   0.567   4.711  2.8651 -1.7669 -2.2091
   16MOL   H301 6931   6.884   0.608   4.545  1.3940  0.6484  1.8469
   16MOL   H302 6932   6.636   0.653   4.530 -1.1161  0.1621  0.4358
   16MOL   H303 6933   6.698   0.765   4.647 -1.6611  1.2151 -0.0209
   16MOL   H304 6934   6.505   0.667   4.741 -0.4919  0.4457  2.4262
   16MOL   H305 6935   6.644   0.633   4.838 -1.9086 -1.1818  0.9394
   16MOL   H306 6936   6.483   0.467   4.646 -0.4539  3.0800  1.1698
   16MOL   H307 6937   6.520   0.423   4.810 -1.0065  0.9941  0.4469
   16MOL   H308 6938   6.707   0.040   4.581  1.2352 -0.7178 -0.4970
   16MOL   H309 6939   6.826   0.151   4.583  0.1512  1.5418  0.8678
   16MOL   C310 6940   6.779   0.058   4.773  0.5210 -0.2363  0.0647
   16MOL   C311 6941   6.762   7.677   4.756  0.4658 -0.1511 -0.3742
   16MOL   C312 6942   6.869   7.600   4.661 -0.5606 -0.0097  0.0669
   16MOL   C313 6943   6.856   7.452   4.644 -0.6347  0.2658  0.4083
   16MOL   C314 6944   6.841   7.381   4.779  0.7570 -0.3553 -0.1778
   16MOL   C315 6945   6.731   7.445   4.860  0.1835 -0.1030  0.2409
   16MOL   C316 6946   6.749   7.593   4.890 -0.4966 -0.7642  0.1220
   16MOL   C317 6947   6.914   0.109   4.818 -0.0664  0.0881  0.0711
   16MOL   H318 6948   6.695   0.075   4.840 -0.6662  0.8285 -1.6654
   16MOL   H319 6949   6.665   7.659   4.711 -0.2669  1.5526  0.4900
   16MOL   H320 6950   6.884   7.633   4.558 -0.0790 -1.1871 -0.2441
   16MOL   H321 6951   6.969   7.612   4.702 -1.0598  2.9493  0.5759
   16MOL   H322 6952   6.950   7.418   4.600 -1.2173 -2.4408  1.1355
   16MOL   H323 6953   6.777   7.418   4.577 -1.7602  0.8620  1.4294
   16MOL   H324 6954   6.823   7.278   4.749  0.6275  0.1306 -1.8002
   16MOL   H325 6955   6.933   7.388   4.838 -0.0765  0.4451  1.0373
   16MOL   H326 6956   6.631   7.428   4.821  0.2351 -0.0266  0.0768
   16MOL   H327 6957   6.724   7.384   4.951 -1.4826  0.1574  0.3029
   16MOL   H328 6958   6.839   7.610   4.949 -1.4373  0.0914  1.3308
   16MOL   H329 6959   6.663   7.618   4.952 -0.3980 -2.4659  0.9579
   16MOL   H330 6960   6.940   0.203   4.770 -2.2128  0.2534 -0.8215
   16MOL   H331 6961   6.986   0.039   4.777 -1.1409 -1.3528  0.6018
   16MOL   C332 6962   6.939   0.125   4.971 -0.0553  0.4321  0.6981
   16MOL   C333 6963   6.877   0.257   5.024 -0.0724 -0.6150  0.7220
   16MOL   C334 6964   6.956   0.390   4.995  0.5046 -0.3656 -0.3360
   16MOL   C335 6965   6.887   0.517   5.034 -0.6223 -0.1355  0.6977
   16MOL   C336 6966   6.856   0.499   5.184  0.5638 -0.3547 -0.2317
   16MOL   C337 6967   6.771   0.378   5.221 -0.2819 -0.3314 -0.0193
   16MOL   C338 6968   6.858   0.258   5.170  0.2746 -0.7887 -0.5930
   16MOL   C339 6969   7.095   0.116   5.000  0.2296 -0.0768  0.0730
   16MOL   H340 6970   6.889   0.040   5.018 -1.1504  0.8483  0.2989
   16MOL   H341 6971   6.778   0.274   4.981 -0.1555  0.7906  1.4437
   16MOL   H342 6972   7.051   0.389   5.048  0.0007 -0.7383  0.5743
   16MOL   H343 6973   6.978   0.392   4.888  2.9428  1.3377  0.1570
   16MOL   H344 6974   6.945   0.607   5.013 -0.1240 -0.3936  0.9370
   16MOL   H345 6975   6.788   0.519   4.991 -0.4575  2.5353  0.3718
   16MOL   H346 6976   6.947   0.515   5.242 -0.7665  0.2499  1.7150
   16MOL   H347 6977   6.797   0.586   5.212  1.1279  0.0465 -0.2714
   16MOL   H348 6978   6.674   0.396   5.173 -0.4780 -1.1922  0.0489
   16MOL   H349 6979   6.744   0.383   5.326  0.1269 -2.2507  0.1981
   16MOL   H350 6980   6.815   0.167   5.211 -2.0023  0.4168 -0.1923
   16MOL   H351 6981   6.959   0.273   5.208 -0.5567  0.0046  1.3553
   16MOL   H352 6982   7.112   0.155   5.100  1.8563  0.0576 -0.2314
   16MOL   H353 6983   7.144   0.179   4.925  0.4467 -2.9761 -2.2809
   16MOL   C354 6984   7.171   7.757   4.997 -0.0867  0.6498  0.3692
   16MOL   C355 6985   7.119   7.649   5.093  0.5758  0.5142 -0.1789
   16MOL   C356 6986   7.149   7.674   5.246  0.2619  0.9718  0.2598
   16MOL   C357 6987   7.094   7.578   5.352 -0.6576 -0.4598  0.2327
   16MOL   C358 6988   7.128   7.427   5.312 -0.2408  0.4470  0.3899
   16MOL   C359 6989   7.079   7.406   5.165  0.2341 -0.0274  0.1234
   16MOL   C360 6990   7.153   7.504   5.063 -0.6992  0.7938 -0.0986
   16MOL   C361 6991   7.322   0.016   5.029  0.2560 -0.4567  0.0654
   16MOL   H362 6992   7.170   7.721   4.894  0.6055 -2.4334  1.4126
   16MOL   H363 6993   7.011   7.660   5.080  0.6663  3.2724  0.9968
   16MOL   H364 6994   7.124   0.007   5.262  1.1201  1.1375  0.5218
   16MOL   H365 6995   7.257   7.667   5.257  0.1035  2.0140  2.8298
   16MOL   H366 6996   7.138   7.597   5.450 -0.1143 -0.7068  0.0377
   16MOL   H367 6997   6.987   7.595   5.343 -0.6712 -0.0328  1.1690
   16MOL   H368 6998   7.234   7.407   5.327 -0.0663  1.9810  1.3463
   16MOL   H369 6999   7.070   7.356   5.371 -1.3116  0.6067 -0.4541
   16MOL   H370 7000   7.108   7.305   5.136 -0.6678  0.0639 -1.1516
   16MOL   H371 7001   6.971   7.405   5.156  0.4417  0.5481 -3.0790
   16MOL   H372 7002   7.109   7.484   4.965 -0.8735  0.9031 -0.0404
   16MOL   H373 7003   7.260   7.486   5.052 -1.1668 -0.6699 -2.9027
   16MOL   H374 7004   7.371   7.694   5.052  1.5555  0.3186  0.5517
   16MOL   H375 7005   7.330   0.065   5.126 -1.9195 -1.0196  0.5634
   16MOL   C376 7006   7.414   0.085   4.922  0.3693 -0.0901 -0.1692
   16MOL   C377 7007   7.553   0.137   4.983  0.6921  0.1133  0.2225
   16MOL   C378 7008   7.620   0.061   5.096 -0.0213 -0.2235  0.6772
   16MOL   C379 7009   7.752   0.124   5.154 -0.6302 -0.6900 -0.1862
   16MOL   C380 7010   7.730   0.266   5.201 -0.1980 -0.3827  0.3439
   16MOL   C381 7011   7.651   0.345   5.092 -0.8013  0.7793  0.4614
   16MOL   C382 7012   7.525   0.278   5.035  0.6463 -0.1518 -0.8912
   16MOL   C383 7013   7.441   7.749   4.806 -0.1077 -0.0573 -0.0627
   16MOL   H384 7014   7.357   0.164   4.873  3.4368  1.3527 -1.5128
   16MOL   H385 7015   7.618   0.152   4.897  0.1234 -0.8501 -0.3783
   16MOL   H386 7016   7.558   0.039   5.183 -0.3484 -2.0758  0.0110
   16MOL   H387 7017   7.648   7.735   5.057  4.3349  1.2573 -0.1386
   16MOL   H388 7018   0.057   0.112   5.078  1.9483  1.5984  1.9702
   16MOL   H389 7019   0.026   0.069   5.236  1.2075 -1.1004 -1.4777
   16MOL   H390 7020   7.666   0.266   5.290 -0.8807 -0.3177 -0.1392
   16MOL   H391 7021   0.054   0.314   5.218  0.7087 -1.1435 -2.4000
   16MOL   H392 7022   7.621   0.442   5.131  0.9587  0.8663  1.6683
   16MOL   H393 7023   7.722   0.365   5.012 -0.3313 -0.0152  0.6649
   16MOL   H394 7024   7.442   0.282   5.105  1.4318 -1.7529  0.1618
   16MOL   H395 7025   7.488   0.333   4.949  1.0532  1.3698 -0.1143
   16MOL   H396 7026   7.369   7.668   4.816 -0.1266 -0.3438 -2.3563
   16MOL   H397 7027   7.539   7.709   4.832 -0.4217 -1.0501 -0.3925
   16MOL   C398 7028   7.452   0.045   4.662 -0.6782 -0.6413  0.2969
   16MOL   C399 7029   7.548   7.738   4.570 -0.2770 -0.3893  0.1797
   16MOL   C400 7030   7.507   7.591   4.550  0.2018 -0.2100  0.4439
   16MOL   C401 7031   7.611   7.511   4.476 -0.1838 -0.0802 -0.8083
   16MOL   C402 7032   7.660   7.580   4.343 -0.3625  0.3390 -0.1358
   16MOL   C403 7033   7.695   7.722   4.366 -0.2268 -0.1493  0.3125
   16MOL   C404 7034   7.583   0.027   4.433  0.0259 -0.4589 -0.0579
   16MOL   C405 7035   7.312   0.076   4.596  0.5102 -0.3182 -0.0016
   16MOL   H406 7036   7.509   0.137   4.673  1.3893 -1.9650  0.9604
   16MOL   H407 7037   7.649   7.739   4.612 -0.1171  0.0950 -0.2121
   16MOL   H408 7038   7.411   7.579   4.500 -0.0175  2.9798  0.0268
   16MOL   H409 7039   7.499   7.540   4.646 -1.0432 -1.8725 -0.5194
   16MOL   H410 7040   7.577   7.414   4.439 -1.5330  0.5892 -1.3611
   16MOL   H411 7041   7.692   7.485   4.543 -0.7236 -1.6737 -0.7519
   16MOL   H412 7042   7.590   7.555   4.263 -1.5789 -0.7164  1.2093
   16MOL   H413 7043   7.751   7.529   4.311 -1.1008 -1.9234  1.2210
   16MOL   H414 7044   0.015   7.725   4.424  0.7802  1.1107 -1.3271
   16MOL   H415 7045   7.722   7.759   4.267  0.3935  1.2648  0.9960
   16MOL   H416 7046   7.607   0.133   4.440  1.3083 -0.8014  0.8729
   16MOL   H417 7047   7.496   0.022   4.368 -0.7940  2.0121  0.8070
   16MOL   H418 7048   7.276   7.762   4.540 -2.0253  0.9489 -0.3980
   16MOL   H419 7049   7.246   0.076   4.683 -0.1642 -1.4436 -0.4955
   16MOL   C420 7050   7.303   0.197   4.506  0.2464 -0.2515  0.2266
   16MOL   C421 7051   7.309   0.333   4.583  0.2684  0.2863 -0.4154
   16MOL   C422 7052   7.187   0.386   4.663 -0.1233  0.9756  0.5982
   16MOL   C423 7053   7.229   0.503   4.760  0.1665  0.7169  0.3349
   16MOL   C424 7054   7.277   0.618   4.676  0.1643  0.5372  0.2406
   16MOL   C425 7055   7.397   0.578   4.585  0.3799  0.7815 -0.2028
   16MOL   C426 7056   7.364   0.453   4.499  0.1047  0.8405  0.4609
   16MOL   C427 7057   7.192   0.201   4.403  0.6062  0.3133 -0.0399
   16MOL   H428 7058   7.391   0.203   4.441  0.0020  5.2424  0.1232
   16MOL   H429 7059   7.391   0.324   4.655  0.4491 -2.3342 -0.8858
   16MOL   H430 7060   7.110   0.424   4.595  1.8513  1.2716 -1.5341
   16MOL   H431 7061   7.146   0.302   4.720 -0.3089  2.8992  3.3931
   16MOL   H432 7062   7.142   0.529   4.820  0.9853  2.0146  0.9764
   16MOL   H433 7063   7.307   0.465   4.826  1.0682 -2.9064 -2.6111
   16MOL   H434 7064   7.305   0.703   4.739  1.9322  1.0359 -1.1544
   16MOL   H435 7065   7.192   0.656   4.619  0.1632  2.1422  1.2687
   16MOL   H436 7066   7.478   0.550   4.652  0.3197 -0.7573 -0.7742
   16MOL   H437 7067   7.423   0.666   4.525 -0.6702  0.7795 -0.6613
   16MOL   H438 7068   7.289   0.484   4.425  1.4007 -0.1662 -1.3106
   16MOL   H439 7069   7.450   0.421   4.440 -0.1655 -0.7266  0.9029
   16MOL   H440 7070   7.178   0.299   4.358 -1.5639 -0.4555 -1.1418
   16MOL   H441 7071   7.191   0.118   4.332  0.9434  0.6950 -0.4933
   16MOL   H442 7072   7.097   0.187   4.454  0.4081  0.8575 -0.2585
   17MOL     C1 7073   3.513   3.498   1.785  0.0422  0.2930 -0.2266
   17MOL     C2 7074   3.623   3.602   1.758  0.0970  0.5505  0.0375
   17MOL     C3 7075   3.607   3.648   1.615 -0.4993 -0.2631 -0.2506
   17MOL     C4 7076   3.709   3.756   1.570 -0.7258  0.1463  0.4874
   17MOL     C5 7077   3.852   3.709   1.588 -0.2424  0.1050  0.2709
   17MOL     C6 7078   3.871   3.667   1.732  0.0185  0.7100 -0.3513
   17MOL     C7 7079   3.767   3.559   1.780 -0.5558 -1.1411 -0.3047
   17MOL     C8 7080   3.504   3.455   1.934 -0.4047  0.3133 -0.0541
   17MOL     H9 7081   3.420   3.547   1.758 -0.7456 -1.0565 -0.0051
   17MOL    H10 7082   3.608   3.689   1.822  3.4258  0.8199  0.5525
   17MOL    H11 7083   3.591   3.566   1.546 -2.9777 -0.3980  0.4407
   17MOL    H12 7084   3.508   3.693   1.605 -0.3163  0.2080  0.0395
   17MOL    H13 7085   3.710   3.854   1.616  2.7606  0.0456  0.7034
   17MOL    H14 7086   3.691   3.779   1.465 -2.3015 -1.2988  0.4071
   17MOL    H15 7087   3.931   3.782   1.570  1.6446 -1.7667  0.7793
   17MOL    H16 7088   3.861   3.628   1.516 -0.7665 -0.6175  1.0097
   17MOL    H17 7089   3.972   3.634   1.755  0.3086  0.6884 -1.6363
   17MOL    H18 7090   3.847   3.747   1.802  0.9025 -0.0240  0.8079
   17MOL    H19 7091   3.781   3.541   1.887  0.6526 -0.6406 -0.3680
   17MOL    H20 7092   3.795   3.469   1.724  3.6891  0.8880 -1.6610
   17MOL    H21 7093   3.478   3.547   1.988  1.1065  0.8750 -0.2447
   17MOL    H22 7094   3.602   3.421   1.968 -1.0753  0.8320  2.5570
   17MOL    H23 7095   3.532   3.411   1.722 -0.9025 -0.6836  0.8069
   17MOL    C24 7096   3.398   3.343   1.962 -0.5897  0.5737  0.2373
   17MOL    C25 7097   3.441   3.200   1.901  0.9873 -0.2562  0.9683
   17MOL    C26 7098   3.337   3.084   1.916  0.0742 -0.8483  0.2898
   17MOL    C27 7099   3.378   2.951   1.842 -0.2505  0.2800 -0.6799
   17MOL    C28 7100   3.520   2.910   1.893  0.0324  0.5866 -0.2136
   17MOL    C29 7101   3.627   3.021   1.876  0.6711  0.4758 -0.0948
   17MOL    C30 7102   3.580   3.147   1.947  0.4626  0.2093 -0.1821
   17MOL    C31 7103   3.373   3.331   2.111 -0.2830  0.6136 -0.1128
   17MOL    H32 7104   3.311   3.379   1.906 -1.2681 -0.8038  0.3955
   17MOL    H33 7105   3.447   3.225   1.795 -1.3297 -1.8403  0.4184
   17MOL    H34 7106   3.236   3.110   1.885 -0.5539 -2.3856  0.9565
   17MOL    H35 7107   3.334   3.061   2.023  0.0938 -1.5052  0.1553
   17MOL    H36 7108   3.299   2.876   1.851 -1.4379  1.2639 -2.5579
   17MOL    H37 7109   3.385   2.962   1.733  0.2982 -1.7933 -0.8731
   17MOL    H38 7110   3.557   2.825   1.837  0.1561  1.0620 -0.8598
   17MOL    H39 7111   3.498   2.872   1.993  2.7189 -2.9090 -0.8379
   17MOL    H40 7112   3.726   2.985   1.903  0.4932 -0.1298 -0.2382
   17MOL    H41 7113   3.637   3.033   1.768  0.4158  0.4470 -0.1222
   17MOL    H42 7114   3.578   3.129   2.054 -0.1809 -0.9252 -0.3731
   17MOL    H43 7115   3.658   3.222   1.933  0.5983  0.1063  0.0373
   17MOL    H44 7116   3.476   3.333   2.148 -0.0570 -2.0915 -0.4564
   17MOL    H45 7117   3.336   3.230   2.129 -3.1129  1.2419 -2.1535
   17MOL    C46 7118   3.273   3.430   2.174 -0.1445 -0.4742 -0.2036
   17MOL    C47 7119   3.301   3.458   2.323 -0.7561 -0.1785  0.2178
   17MOL    C48 7120   3.430   3.548   2.348  0.5889  0.3097 -0.7354
   17MOL    C49 7121   3.459   3.577   2.498 -0.6961 -0.4697  0.2775
   17MOL    C50 7122   3.457   3.444   2.585 -0.1874 -0.8149  0.6266
   17MOL    C51 7123   3.328   3.362   2.559  0.4894 -0.6679  0.1608
   17MOL    C52 7124   3.317   3.329   2.410  0.0078  0.3155  0.2798
   17MOL    C53 7125   3.122   3.383   2.170  0.7155  0.7122  0.7969
   17MOL    H54 7126   3.283   3.528   2.127  1.8201 -1.0572 -1.0400
   17MOL    H55 7127   3.214   3.511   2.363  0.6166  0.6049  2.2731
   17MOL    H56 7128   3.511   3.493   2.300 -0.9085 -1.1853 -1.6596
   17MOL    H57 7129   3.409   3.640   2.294  0.5088 -1.2440 -3.4387
   17MOL    H58 7130   3.385   3.652   2.527  1.0538  1.2758  0.3029
   17MOL    H59 7131   3.555   3.626   2.511 -1.5762  1.7726 -1.3501
   17MOL    H60 7132   3.542   3.377   2.575  0.4482  0.2937 -1.8553
   17MOL    H61 7133   3.454   3.487   2.685 -2.3547 -0.7927  0.5769
   17MOL    H62 7134   3.235   3.402   2.600  0.6001  0.0149 -0.2535
   17MOL    H63 7135   3.331   3.263   2.604  0.1662 -0.6113  0.3110
   17MOL    H64 7136   3.400   3.268   2.377 -0.6863  0.0780 -1.0789
   17MOL    H65 7137   3.237   3.256   2.403 -1.1065  1.4592  0.7523
   17MOL    H66 7138   3.089   3.343   2.266 -1.0345  1.8454  0.6873
   17MOL    H67 7139   3.113   3.296   2.105 -2.1354  0.8850  0.9118
   17MOL    C68 7140   3.019   3.488   2.128  0.8353  0.0308  0.3716
   17MOL    C69 7141   3.042   3.523   1.977  0.4516 -0.1273 -0.5352
   17MOL    C70 7142   3.015   3.415   1.875 -0.0699  0.3825  0.5198
   17MOL    C71 7143   3.048   3.452   1.730 -0.0147  1.0934  0.3309
   17MOL    C72 7144   3.016   3.596   1.693  0.0630 -0.5545  0.0354
   17MOL    C73 7145   3.048   3.702   1.805  0.2355  0.2757  0.7749
   17MOL    C74 7146   2.983   3.661   1.942 -0.8936  0.9939 -0.7643
   17MOL    C75 7147   2.873   3.462   2.160  0.5877 -0.4952  0.0066
   17MOL    H76 7148   3.035   3.579   2.186 -0.6025  1.2862 -1.1158
   17MOL    H77 7149   3.150   3.536   1.974  0.6954 -1.6118  0.9674
   17MOL    H78 7150   2.910   3.391   1.892 -0.4029  1.0019 -0.5926
   17MOL    H79 7151   3.060   3.320   1.905 -0.1543  0.3921  0.6793
   17MOL    H80 7152   3.154   3.434   1.712  0.4298  3.1891  0.6471
   17MOL    H81 7153   3.009   3.379   1.660  0.1244  0.2704  1.0980
   17MOL    H82 7154   2.908   3.600   1.674 -0.2416 -2.7324  1.1717
   17MOL    H83 7155   3.062   3.623   1.598  0.7373  1.1287  0.8072
   17MOL    H84 7156   3.008   3.799   1.776  1.8896  0.5955 -0.5328
   17MOL    H85 7157   3.155   3.715   1.823  0.6036  0.8628 -1.6470
   17MOL    H86 7158   2.875   3.651   1.934 -0.7893 -0.3512 -0.6535
   17MOL    H87 7159   3.007   3.728   2.025 -0.4948  0.4583 -0.4386
   17MOL    H88 7160   2.817   3.550   2.131  0.3688 -1.6239 -3.1958
   17MOL    H89 7161   2.835   3.387   2.090 -1.8844 -0.5472  1.3235
   17MOL    C90 7162   2.833   3.430   2.307 -0.2358 -0.8150  0.3356
   17MOL    C91 7163   2.895   3.538   2.398 -0.0366  0.7431 -0.3800
   17MOL    C92 7164   2.837   3.681   2.359  0.3499 -0.0040  0.6419
   17MOL    C93 7165   2.875   3.790   2.458  0.0199  0.0623 -0.4223
   17MOL    C94 7166   2.872   3.738   2.608  0.6352 -0.3665  0.3335
   17MOL    C95 7167   2.947   3.613   2.635 -0.6941  0.5343 -0.4456
   17MOL    C96 7168   2.897   3.497   2.549  0.8965 -0.0070 -0.1917
   17MOL    C97 7169   2.679   3.407   2.325  0.4808 -1.0612 -0.0096
   17MOL    H98 7170   2.881   3.339   2.343  0.6354 -0.2834  0.5355
   17MOL    H99 7171   3.003   3.535   2.385  0.0559 -2.0883  0.6229
   17MOL   H100 7172   2.729   3.687   2.369  0.4828  1.7500  1.1303
   17MOL   H101 7173   2.855   3.714   2.257 -0.7560 -4.4570 -1.1092
   17MOL   H102 7174   2.815   3.880   2.451 -0.2436 -0.1314 -0.6747
   17MOL   H103 7175   2.979   3.818   2.438  0.1604 -0.5344 -0.5307
   17MOL   H104 7176   2.767   3.731   2.637  0.5978  2.5073  1.0386
   17MOL   H105 7177   2.905   3.813   2.680  3.2594  0.0472 -1.2444
   17MOL   H106 7178   3.054   3.623   2.617 -0.1441 -1.4869  1.4996
   17MOL   H107 7179   2.945   3.587   2.741  0.2374 -0.3437 -0.6278
   17MOL   H108 7180   2.958   3.408   2.566 -0.4009 -1.1735 -1.4886
   17MOL   H109 7181   2.793   3.476   2.573  1.2333 -1.2592  0.2159
   17MOL   H110 7182   2.654   3.423   2.430 -0.8590 -0.1085 -0.4609
   17MOL   H111 7183   2.626   3.480   2.264 -2.8712 -2.2424  1.3495
   17MOL   C112 7184   2.634   3.261   2.282 -0.1785  0.0905  0.0535
   17MOL   C113 7185   2.495   3.251   2.227  0.4341  0.1053 -0.2188
   17MOL   C114 7186   2.476   3.312   2.088  0.0904 -0.7404  0.4936
   17MOL   C115 7187   2.335   3.302   2.024  0.7802 -0.9060 -0.2817
   17MOL   C116 7188   2.239   3.350   2.120 -0.3749 -0.1491  0.1352
   17MOL   C117 7189   2.237   3.270   2.251  0.8903  0.0149  0.1289
   17MOL   C118 7190   2.377   3.294   2.325  0.5046 -0.1570  1.2020
   17MOL   C119 7191   2.672   3.163   2.394 -0.0521  0.6574 -0.1701
   17MOL   H120 7192   2.694   3.229   2.197  0.3041  0.1189  0.3862
   17MOL   H121 7193   2.468   3.147   2.209 -2.1071  0.9562 -1.5438
   17MOL   H122 7194   2.551   3.275   2.018 -0.8834 -1.9562  0.0631
   17MOL   H123 7195   2.496   3.419   2.093  0.9198 -0.9514  2.6635
   17MOL   H124 7196   2.345   3.370   1.939 -1.8106  1.0863  0.9278
   17MOL   H125 7197   2.313   3.198   1.999  1.0380 -0.7624 -1.1280
   17MOL   H126 7198   2.246   3.457   2.139  0.6787  0.0559 -1.3623
   17MOL   H127 7199   2.138   3.332   2.083  0.0700 -1.4803 -0.4586
   17MOL   H128 7200   2.153   3.301   2.313  1.6062  0.8317  0.7003
   17MOL   H129 7201   2.225   3.163   2.236 -0.0448 -0.1583  1.9848
   17MOL   H130 7202   2.372   3.232   2.415 -4.1461 -2.5923 -0.4971
   17MOL   H131 7203   2.394   3.395   2.361  0.1033  0.0344  0.8625
   17MOL   H132 7204   2.610   3.176   2.483  0.6993  0.4985  0.3871
   17MOL   H133 7205   2.773   3.191   2.426 -0.1207 -0.0977  0.7524
   17MOL   C134 7206   2.671   3.004   2.376  0.0011 -0.3012 -0.3821
   17MOL   C135 7207   2.753   2.968   2.249 -0.3918 -0.1185  0.2305
   17MOL   C136 7208   2.756   2.808   2.230  0.0258  0.3084  0.0848
   17MOL   C137 7209   2.857   2.747   2.131 -0.2754 -0.2977  0.3940
   17MOL   C138 7210   2.998   2.818   2.148  0.7419  0.1879  0.5283
   17MOL   C139 7211   2.980   2.969   2.144 -0.3529 -0.8426  0.2702
   17MOL   C140 7212   2.892   3.018   2.258 -0.2289  0.0643  0.2825
   17MOL   C141 7213   2.523   2.943   2.363 -0.4835 -0.5756  0.2801
   17MOL   H142 7214   2.710   2.957   2.466 -1.9485  0.0582  0.6800
   17MOL   H143 7215   2.709   3.020   2.164  0.8604 -0.6225 -0.7373
   17MOL   H144 7216   2.785   2.772   2.329  0.3387  2.6641  0.8918
   17MOL   H145 7217   2.658   2.768   2.204  0.5101 -0.1139 -1.1361
   17MOL   H146 7218   2.821   2.763   2.030 -0.4513  1.3621  0.6940
   17MOL   H147 7219   2.868   2.640   2.143 -0.1077 -0.3397 -0.1362
   17MOL   H148 7220   3.041   2.795   2.246  2.1078  1.3514  0.2122
   17MOL   H149 7221   3.074   2.780   2.080 -0.3588 -0.8392 -0.1602
   17MOL   H150 7222   2.949   3.005   2.046  1.3418  0.1549  0.0806
   17MOL   H151 7223   3.078   3.013   2.162 -1.0948  0.7132  0.6174
   17MOL   H152 7224   2.938   2.989   2.352  1.1710  0.4148 -0.2867
   17MOL   H153 7225   2.903   3.127   2.254 -2.8370  0.3947  1.4417
   17MOL   H154 7226   2.508   2.935   2.255  2.9085  1.0320 -0.3661
   17MOL   H155 7227   2.450   3.020   2.389 -0.1455 -0.8921  2.2131
   17MOL   C156 7228   2.482   2.816   2.437  0.3881 -0.2083 -0.5951
   17MOL   C157 7229   2.336   2.768   2.403  0.0660  0.1456  0.6494
   17MOL   C158 7230   2.216   2.860   2.444 -0.7644 -0.3420  0.5428
   17MOL   C159 7231   2.078   2.795   2.415 -0.1708 -0.2966 -0.1856
   17MOL   C160 7232   2.060   2.764   2.271 -0.0179  0.2740  0.2760
   17MOL   C161 7233   2.168   2.666   2.231  0.2847  0.1769  0.3147
   17MOL   C162 7234   2.306   2.727   2.257  0.0646 -0.3512  0.0013
   17MOL   C163 7235   2.500   2.835   2.598 -0.2527 -0.4442 -0.3122
   17MOL   H164 7236   2.537   2.727   2.408 -1.0209 -0.9605 -1.0085
   17MOL   H165 7237   2.314   2.675   2.457  0.2996 -0.3078 -0.0299
   17MOL   H166 7238   2.232   2.871   2.551 -0.8761 -0.7299  0.6039
   17MOL   H167 7239   2.229   2.966   2.426 -1.3237 -0.0842  1.6145
   17MOL   H168 7240   2.065   2.703   2.472 -2.3192  0.1237  0.0502
   17MOL   H169 7241   1.992   2.854   2.447 -0.4168 -1.4764  1.3819
   17MOL   H170 7242   2.069   2.860   2.222  0.0723  0.2605  0.2667
   17MOL   H171 7243   1.958   2.729   2.253 -0.1928  1.1442 -0.4595
   17MOL   H172 7244   2.159   2.641   2.125  1.1571  1.4415 -0.0619
   17MOL   H173 7245   2.163   2.570   2.284  0.8776 -1.2181 -2.0794
   17MOL   H174 7246   2.387   2.664   2.219 -0.1445  0.5831 -2.0243
   17MOL   H175 7247   2.311   2.814   2.193  0.1753 -0.7723 -0.5684
   17MOL   H176 7248   2.426   2.907   2.633 -0.7970 -0.9608 -0.3964
   17MOL   H177 7249   2.600   2.873   2.619 -0.6128  0.1057  0.4394
   17MOL   C178 7250   2.492   2.709   2.691 -0.3761 -0.5126 -0.3519
   17MOL   C179 7251   2.624   2.623   2.684 -0.3014 -0.9744 -0.5416
   17MOL   C180 7252   2.606   2.480   2.737 -0.4133 -0.6932 -0.6366
   17MOL   C181 7253   2.725   2.385   2.722 -0.2476  0.6599 -0.4511
   17MOL   C182 7254   2.854   2.444   2.774  0.8872  0.0084 -0.8745
   17MOL   C183 7255   2.870   2.594   2.727  0.4563 -0.4665 -0.3581
   17MOL   C184 7256   2.748   2.688   2.753  0.1368  0.0207 -0.6845
   17MOL   C185 7257   2.453   2.747   2.841  0.7052 -0.5979 -0.5283
   17MOL   H186 7258   2.410   2.652   2.647 -0.6081 -0.6381  0.2401
   17MOL   H187 7259   2.648   2.617   2.578 -1.7564 -0.2873 -0.9189
   17MOL   H188 7260   2.581   2.474   2.842  2.0392 -1.6886 -0.0777
   17MOL   H189 7261   2.526   2.431   2.681 -2.2389  3.3762 -1.7906
   17MOL   H190 7262   2.748   2.375   2.616  1.7706 -0.1762  0.0457
   17MOL   H191 7263   2.705   2.283   2.757 -0.6965  0.9977  0.3082
   17MOL   H192 7264   2.851   2.431   2.882  0.6892  0.4807 -0.8260
   17MOL   H193 7265   2.934   2.374   2.747  1.3491  0.5710 -0.9611
   17MOL   H194 7266   2.907   2.593   2.624 -1.3094 -2.5964 -1.0100
   17MOL   H195 7267   2.959   2.633   2.776  0.3663 -3.3020  2.1397
   17MOL   H196 7268   2.735   2.695   2.861  0.3320  0.7582 -0.7112
   17MOL   H197 7269   2.771   2.790   2.724 -2.0570  1.0233  0.9549
   17MOL   H198 7270   2.480   2.671   2.914 -0.1069 -1.1593 -0.8005
   17MOL   H199 7271   2.518   2.834   2.854 -0.7061  0.7560 -2.1907
   17MOL   C200 7272   2.302   2.785   2.874 -0.3782 -0.5778 -0.2644
   17MOL   C201 7273   2.218   2.666   2.909  0.4391 -0.3162 -0.2524
   17MOL   C202 7274   2.071   2.706   2.919 -0.5784 -0.1402  0.4293
   17MOL   C203 7275   1.988   2.584   2.963 -0.2348 -0.7437  0.6579
   17MOL   C204 7276   1.984   2.478   2.850  0.1036 -0.4056 -0.0327
   17MOL   C205 7277   2.130   2.433   2.834 -0.4707 -0.4481 -0.2033
   17MOL   C206 7278   2.228   2.549   2.806  0.2871 -0.0009  0.2629
   17MOL   C207 7279   2.303   2.887   2.992 -0.9052 -0.2897  0.0893
   17MOL   H208 7280   2.256   2.842   2.793 -1.0501 -1.0515 -0.2204
   17MOL   H209 7281   2.245   2.620   3.005  1.0664  1.1056  0.2621
   17MOL   H210 7282   2.034   2.720   2.818 -0.3089  1.8661  0.5923
   17MOL   H211 7283   2.057   2.791   2.986  0.5132  1.3840 -1.2264
   17MOL   H212 7284   2.020   2.540   3.058 -1.2189 -1.2775  0.7409
   17MOL   H213 7285   1.883   2.608   2.978 -0.0523  2.9399 -2.9519
   17MOL   H214 7286   1.931   2.387   2.879  2.6313 -1.9041  0.0547
   17MOL   H215 7287   1.950   2.518   2.754  1.0667 -2.5498 -1.3184
   17MOL   H216 7288   2.166   2.378   2.921  1.5151 -0.0970 -0.7690
   17MOL   H217 7289   2.131   2.365   2.749 -1.1553 -4.0222  2.5475
   17MOL   H218 7290   2.326   2.502   2.802 -1.0813 -2.7905 -1.7005
   17MOL   H219 7291   2.216   2.595   2.708  0.5660  0.8220  0.6067
   17MOL   H220 7292   2.258   2.844   3.081 -0.8141  0.7814  0.6613
   17MOL   H221 7293   2.404   2.896   3.031 -1.4611 -1.2907  1.8233
   17MOL   C222 7294   2.223   3.016   2.970  0.1117  0.4186 -0.1364
   17MOL   C223 7295   2.192   3.082   3.106  0.1039 -0.0140  0.4169
   17MOL   C224 7296   2.309   3.132   3.200 -0.1360  0.1825  0.3241
   17MOL   C225 7297   2.251   3.234   3.300 -0.5081  0.1366 -0.6550
   17MOL   C226 7298   2.150   3.164   3.386  0.2723 -0.4068  0.2612
   17MOL   C227 7299   2.041   3.091   3.300 -0.2361 -1.0949 -0.0868
   17MOL   C228 7300   2.093   3.001   3.193  0.3014 -0.3219  0.0424
   17MOL   C229 7301   2.314   3.099   2.879  0.0581 -0.4506  0.4189
   17MOL   H230 7302   2.130   2.992   2.918  0.2370 -1.4074  0.4327
   17MOL   H231 7303   2.142   3.176   3.084  1.0842  0.5584  0.5998
   17MOL   H232 7304   2.367   3.056   3.253  1.2438 -0.1378 -1.5711
   17MOL   H233 7305   2.381   3.178   3.133  0.4557  1.1604  1.6135
   17MOL   H234 7306   2.216   3.319   3.242  2.1461 -0.4099 -3.1765
   17MOL   H235 7307   2.342   3.262   3.354 -1.1963  0.1996  0.4917
   17MOL   H236 7308   2.196   3.084   3.443 -0.7366 -0.7060  0.6724
   17MOL   H237 7309   2.103   3.235   3.453 -2.0668 -2.5766  1.0234
   17MOL   H238 7310   1.975   3.168   3.261  0.2790 -0.5823  0.0554
   17MOL   H239 7311   1.970   3.035   3.361 -1.0909 -0.4789 -0.5023
   17MOL   H240 7312   2.131   2.912   3.244 -1.4474 -1.5474 -0.7427
   17MOL   H241 7313   2.007   2.974   3.131  0.4942  1.4249 -1.0104
   17MOL   H242 7314   2.308   3.060   2.777 -1.3724  1.6941 -0.3806
   17MOL   H243 7315   2.415   3.099   2.919  1.4707 -0.6179 -2.9284
   17MOL   C244 7316   2.281   3.253   2.850  0.3997  0.6657  0.3704
   17MOL   C245 7317   2.141   3.253   2.779 -0.3795 -0.6100 -0.2648
   17MOL   C246 7318   2.142   3.231   2.624 -0.1539 -1.0953 -0.1382
   17MOL   C247 7319   1.989   3.231   2.568  0.3533  0.0510  0.3425
   17MOL   C248 7320   1.907   3.355   2.603  0.2688  0.3869 -0.2935
   17MOL   C249 7321   1.919   3.375   2.755  0.2002  0.3451  0.0769
   17MOL   C250 7322   2.065   3.381   2.810  0.2917 -0.5167 -0.0908
   17MOL   C251 7323   2.381   3.325   2.765  0.3155 -0.1518  0.5867
   17MOL   H252 7324   2.283   3.299   2.949  1.5806 -0.1759  0.7417
   17MOL   H253 7325   2.072   3.182   2.825 -1.5913  1.0318  0.5146
   17MOL   H254 7326   2.187   3.134   2.602 -1.6510 -1.5076 -1.4718
   17MOL   H255 7327   2.204   3.303   2.570  0.7786 -0.7658  1.3330
   17MOL   H256 7328   1.976   3.224   2.460 -1.9980  0.7886  0.5428
   17MOL   H257 7329   1.937   3.145   2.610 -1.3415  0.3730 -1.0442
   17MOL   H258 7330   1.949   3.448   2.564  1.8124 -0.4013 -0.5351
   17MOL   H259 7331   1.803   3.345   2.571  0.6458  0.5471 -1.5814
   17MOL   H260 7332   1.867   3.291   2.802 -0.4764  0.3792 -0.6092
   17MOL   H261 7333   1.868   3.465   2.788  1.4218  1.3102 -0.6461
   17MOL   H262 7334   2.108   3.478   2.785 -1.4605 -0.0971 -1.6146
   17MOL   H263 7335   2.066   3.385   2.919 -0.2846 -1.1252 -0.0550
   17MOL   H264 7336   2.317   3.395   2.711  1.8773 -0.4839 -1.8167
   17MOL   H265 7337   2.421   3.259   2.687 -2.6104 -0.9814 -0.2757
   17MOL   C266 7338   2.485   3.406   2.845  0.0278  0.0504 -0.0560
   17MOL   C267 7339   2.602   3.331   2.910 -0.6634  0.5684  0.0236
   17MOL   C268 7340   2.694   3.418   3.003  0.4932  0.1861 -0.1214
   17MOL   C269 7341   2.794   3.326   3.070 -1.2158  0.4546  0.3693
   17MOL   C270 7342   2.883   3.261   2.961  0.1954 -0.2201 -0.1557
   17MOL   C271 7343   2.800   3.173   2.864  0.5676  0.8742  0.8388
   17MOL   C272 7344   2.688   3.256   2.797 -0.4466 -0.0553 -0.0297
   17MOL   C273 7345   2.522   3.529   2.762 -0.1915  0.2651  0.9354
   17MOL   H274 7346   2.441   3.454   2.932  0.2573  2.9566 -1.4722
   17MOL   H275 7347   2.557   3.255   2.974 -2.3421  2.2022  0.8292
   17MOL   H276 7348   2.753   3.490   2.945 -0.0183  0.8796  0.2189
   17MOL   H277 7349   2.638   3.475   3.077  0.8502  0.1289  0.1889
   17MOL   H278 7350   2.745   3.255   3.137  0.4711 -0.7349  0.3941
   17MOL   H279 7351   2.862   3.368   3.144  1.3047 -1.2582 -0.9062
   17MOL   H280 7352   2.940   3.335   2.904 -1.9500  1.2218 -0.5187
   17MOL   H281 7353   2.956   3.193   3.003  0.6120  1.2689  1.5770
   17MOL   H282 7354   2.758   3.095   2.929 -2.9790  2.4789  0.6252
   17MOL   H283 7355   2.854   3.119   2.786 -0.1470 -2.0636  2.2963
   17MOL   H284 7356   2.630   3.181   2.744  0.5668  0.3272 -1.7338
   17MOL   H285 7357   2.728   3.320   2.717 -1.9131  1.0360  0.0896
   17MOL   H286 7358   2.526   3.500   2.657  2.4344  1.8224  0.5644
   17MOL   H287 7359   2.624   3.566   2.773  0.2700 -0.6755 -0.0757
   17MOL   C288 7360   2.419   3.649   2.775  0.3741  0.3057  0.8250
   17MOL   C289 7361   2.377   3.721   2.636 -0.4056  0.1347  0.3320
   17MOL   C290 7362   2.500   3.778   2.559 -0.6317 -0.6602 -0.2606
   17MOL   C291 7363   2.472   3.851   2.426  0.1686 -0.3431  0.3637
   17MOL   C292 7364   2.403   3.757   2.330  0.5323 -0.1281 -0.8854
   17MOL   C293 7365   2.280   3.692   2.394 -0.6035  0.7674  0.9621
   17MOL   C294 7366   2.303   3.627   2.537  0.1677  0.0624  0.2300
   17MOL   C295 7367   2.443   3.762   2.877  0.9993 -0.3912 -0.9683
   17MOL   H296 7368   2.321   3.616   2.811  0.3719  0.9330  1.4226
   17MOL   H297 7369   2.321   3.812   2.659  1.5940  1.3370  0.5767
   17MOL   H298 7370   2.550   3.858   2.615  0.6673 -0.4267 -1.7200
   17MOL   H299 7371   2.578   3.705   2.537 -0.7245 -0.3082 -1.8462
   17MOL   H300 7372   2.403   3.931   2.453 -0.3609 -0.9800  0.9196
   17MOL   H301 7373   2.558   3.883   2.367  0.3372 -0.6188  0.4638
   17MOL   H302 7374   2.483   3.688   2.303 -0.5713 -2.1053  0.7881
   17MOL   H303 7375   2.361   3.803   2.240  1.5225 -2.2622 -2.5092
   17MOL   H304 7376   2.232   3.622   2.325 -1.2068  1.7797  0.3359
   17MOL   H305 7377   2.207   3.772   2.408 -1.4177  0.1532  0.3205
   17MOL   H306 7378   2.359   3.533   2.528  0.6494  0.3643  0.0384
   17MOL   H307 7379   2.207   3.591   2.573  1.0262 -0.1670  2.3774
   17MOL   H308 7380   2.514   3.722   2.949  0.1550 -1.3644 -0.6710
   17MOL   H309 7381   2.487   3.855   2.840 -0.7973  1.6279  1.8532
   17MOL   C310 7382   2.307   3.807   2.943 -0.2545 -0.0049 -0.0739
   17MOL   C311 7383   2.306   3.787   3.097 -0.0704 -0.2031 -0.1251
   17MOL   C312 7384   2.292   3.642   3.133  0.0465 -0.1633  0.1558
   17MOL   C313 7385   2.301   3.618   3.288  0.0359  0.4868 -0.4014
   17MOL   C314 7386   2.434   3.675   3.343 -0.3536 -0.9085 -0.5264
   17MOL   C315 7387   2.437   3.832   3.316  0.4691  0.4413 -0.4899
   17MOL   C316 7388   2.425   3.862   3.170  0.7080  0.0982  0.1598
   17MOL   C317 7389   2.271   3.952   2.911 -0.4730 -1.3571 -0.4273
   17MOL   H318 7390   2.222   3.757   2.898 -1.0404  1.4230 -0.2162
   17MOL   H319 7391   2.210   3.826   3.131 -1.2632  0.3100 -3.8448
   17MOL   H320 7392   2.211   3.590   3.082  0.2502 -0.4221  0.0926
   17MOL   H321 7393   2.381   3.598   3.087  0.2378  0.9060 -0.5053
   17MOL   H322 7394   2.303   3.510   3.301 -1.8348  0.6635  1.4596
   17MOL   H323 7395   2.219   3.668   3.339  0.3772  0.4114  0.2201
   17MOL   H324 7396   2.454   3.644   3.446 -0.2982 -2.3308 -0.9567
   17MOL   H325 7397   2.523   3.633   3.298  0.3783 -1.3055  1.2591
   17MOL   H326 7398   2.360   3.888   3.369 -0.4660 -2.6771  1.5814
   17MOL   H327 7399   2.536   3.861   3.353  0.7852 -1.1958 -0.0071
   17MOL   H328 7400   2.523   3.836   3.131  1.1900  2.0575  0.0175
   17MOL   H329 7401   2.410   3.969   3.159 -0.1074  0.2276  2.1869
   17MOL   H330 7402   2.305   3.958   2.807 -0.2280 -0.2182 -0.2818
   17MOL   H331 7403   2.334   4.022   2.965  0.7805 -0.4427 -3.0041
   17MOL   C332 7404   2.116   3.997   2.909  0.0921  0.2199 -0.7092
   17MOL   C333 7405   2.060   4.048   2.775 -0.3023 -0.0447  0.6293
   17MOL   C334 7406   2.033   3.933   2.668  0.3798 -0.0046 -0.3857
   17MOL   C335 7407   1.969   3.994   2.540  0.8589  0.1692 -0.3756
   17MOL   C336 7408   2.060   4.101   2.477 -0.1464  0.2267 -0.2958
   17MOL   C337 7409   2.088   4.214   2.578 -0.1621  0.1258 -0.8629
   17MOL   C338 7410   2.150   4.157   2.704  0.8208 -0.2789  0.4591
   17MOL   C339 7411   2.100   4.115   3.011  0.2404 -0.5746  0.7498
   17MOL   H340 7412   2.044   3.921   2.942 -0.4475  1.9948  2.3868
   17MOL   H341 7413   1.964   4.098   2.784  0.7970  2.5334 -1.1622
   17MOL   H342 7414   2.126   3.886   2.636  1.1806  1.3669 -0.1338
   17MOL   H343 7415   1.977   3.855   2.720 -0.7163  0.7630 -0.3987
   17MOL   H344 7416   1.947   3.913   2.471 -0.1385  1.0086 -1.0601
   17MOL   H345 7417   1.875   4.041   2.568 -0.2756 -2.5105  0.4468
   17MOL   H346 7418   2.159   4.059   2.460 -0.1365  0.3366 -0.4999
   17MOL   H347 7419   2.003   4.126   2.388 -2.4344  0.5512  1.2071
   17MOL   H348 7420   1.998   4.270   2.604 -0.8121 -0.3633 -2.0066
   17MOL   H349 7421   2.155   4.291   2.539 -2.1360  2.2779 -0.1131
   17MOL   H350 7422   2.181   4.241   2.765 -0.4547  1.6046 -1.4048
   17MOL   H351 7423   2.238   4.111   2.658  0.1486 -2.0711  0.9362
   17MOL   H352 7424   2.172   4.196   2.997  2.6419 -2.7047  0.3909
   17MOL   H353 7425   2.137   4.079   3.106 -2.5719  0.0505  2.1498
   17MOL   C354 7426   1.951   4.161   3.046  0.2479 -0.8553 -0.1549
   17MOL   C355 7427   1.931   4.308   2.984 -0.5108  0.1328 -0.0569
   17MOL   C356 7428   2.020   4.410   3.053 -0.3229 -0.1680  0.6904
   17MOL   C357 7429   2.024   4.537   2.968  0.7628 -0.4567 -0.6267
   17MOL   C358 7430   1.886   4.602   2.958  0.6321 -0.3714  0.2031
   17MOL   C359 7431   1.779   4.496   2.912  0.3529 -0.2769 -0.3478
   17MOL   C360 7432   1.789   4.363   2.982 -0.2755  0.1262 -0.9378
   17MOL   C361 7433   1.920   4.160   3.199 -0.0036  0.0255 -0.2442
   17MOL   H362 7434   1.882   4.096   2.992 -0.7147  1.3043 -1.5909
   17MOL   H363 7435   1.958   4.299   2.879  0.3524  0.0528  0.1700
   17MOL   H364 7436   2.127   4.388   3.059 -0.5244 -1.5567 -0.6154
   17MOL   H365 7437   1.979   4.441   3.149 -1.6026  3.8981 -1.1159
   17MOL   H366 7438   2.098   4.607   3.005 -1.7502  0.9672  1.8576
   17MOL   H367 7439   2.061   4.517   2.867  0.3188  0.9996 -1.0892
   17MOL   H368 7440   1.854   4.643   3.054  0.5276 -1.1006  0.4783
   17MOL   H369 7441   1.892   4.686   2.888 -0.0986 -0.6818 -0.2381
   17MOL   H370 7442   1.677   4.531   2.923  0.8470  0.9661  0.3700
   17MOL   H371 7443   1.797   4.473   2.807  2.1219 -0.9918  0.0886
   17MOL   H372 7444   1.723   4.291   2.935  1.5226 -0.7153 -2.2529
   17MOL   H373 7445   1.757   4.376   3.086  1.6295  2.1103 -0.5578
   17MOL   H374 7446   1.831   4.224   3.202  0.2411  0.2932  1.6321
   17MOL   H375 7447   1.991   4.223   3.252 -0.0745 -0.4296  0.3981
   17MOL   C376 7448   1.905   4.027   3.274 -0.2724  0.5509  0.0362
   17MOL   C377 7449   1.933   4.053   3.426  0.4149 -0.0348  0.5199
   17MOL   C378 7450   1.857   4.172   3.495 -0.2810 -1.2073 -0.3569
   17MOL   C379 7451   1.897   4.168   3.645 -0.5586  0.6798 -0.5910
   17MOL   C380 7452   2.048   4.162   3.674 -0.3151 -0.0557 -0.1421
   17MOL   C381 7453   2.116   4.043   3.611 -0.6983  0.2074  0.0042
   17MOL   C382 7454   2.084   4.041   3.457  1.3874  0.6405  0.7923
   17MOL   C383 7455   1.766   3.970   3.235  0.6412  0.0460  0.5029
   17MOL   H384 7456   1.977   3.953   3.238  1.2540  1.6719  0.7217
   17MOL   H385 7457   1.900   3.965   3.481  0.9708  0.2815  1.3740
   17MOL   H386 7458   1.895   4.263   3.449 -1.1812 -1.5356 -1.7703
   17MOL   H387 7459   1.748   4.170   3.500 -0.3017 -0.9059 -0.6880
   17MOL   H388 7460   1.836   4.099   3.704  0.0999  1.2087  0.7401
   17MOL   H389 7461   1.874   4.267   3.685  0.3830 -0.0045  1.7257
   17MOL   H390 7462   2.097   4.254   3.642 -0.1447 -0.4815 -1.1309
   17MOL   H391 7463   2.062   4.164   3.782 -2.9104  0.9419  0.1958
   17MOL   H392 7464   2.224   4.055   3.620 -0.6059 -0.4496 -0.1904
   17MOL   H393 7465   2.071   3.954   3.654  0.2002 -1.1728 -1.8235
   17MOL   H394 7466   2.145   4.111   3.399  0.1567  0.5181 -0.6734
   17MOL   H395 7467   2.121   3.948   3.412 -1.6140  0.0561 -0.5877
   17MOL   H396 7468   1.762   3.964   3.126  0.5613  0.0477  0.5052
   17MOL   H397 7469   1.686   4.037   3.266  1.1463  0.8539  0.1019
   17MOL   C398 7470   1.741   3.832   3.291 -0.7619 -0.1962 -0.1714
   17MOL   C399 7471   1.602   3.782   3.246 -0.2080  0.2102  0.2699
   17MOL   C400 7472   1.481   3.862   3.286 -0.5847 -0.1459  0.2238
   17MOL   C401 7473   1.348   3.785   3.248 -0.0904 -0.0604 -0.0021
   17MOL   C402 7474   1.338   3.754   3.097 -0.5831 -0.6569 -0.2608
   17MOL   C403 7475   1.469   3.692   3.045 -0.2287  0.2763 -0.2494
   17MOL   C404 7476   1.599   3.764   3.092  0.2104 -0.1398  0.3300
   17MOL   C405 7477   1.851   3.731   3.260  0.1263 -0.6352 -0.7305
   17MOL   H406 7478   1.743   3.847   3.399  0.3426  0.2875 -0.2490
   17MOL   H407 7479   1.595   3.678   3.279 -1.0940 -0.1100 -0.8686
   17MOL   H408 7480   1.474   3.947   3.218  0.1523  0.4882  0.9343
   17MOL   H409 7481   1.474   3.890   3.391 -0.2544 -0.8578  0.4386
   17MOL   H410 7482   1.269   3.851   3.284 -1.4659 -0.4706 -2.1992
   17MOL   H411 7483   1.341   3.692   3.305  1.2111 -0.7099 -0.8735
   17MOL   H412 7484   1.314   3.847   3.044  1.4740  0.7167  1.1243
   17MOL   H413 7485   1.261   3.683   3.066  1.0220 -0.9769 -3.8794
   17MOL   H414 7486   1.479   3.584   3.060 -1.9960 -0.0605 -1.3453
   17MOL   H415 7487   1.454   3.703   2.938 -0.0113 -1.5376 -0.4955
   17MOL   H416 7488   1.691   3.723   3.050 -0.1599  1.3191 -2.0066
   17MOL   H417 7489   1.584   3.865   3.055 -1.3382 -0.3005  0.4723
   17MOL   H418 7490   1.867   3.734   3.152 -0.9865  1.7268 -0.8571
   17MOL   H419 7491   1.947   3.762   3.301  0.9477 -2.6530 -1.0874
   17MOL   C420 7492   1.845   3.583   3.313 -0.0135  0.4065  0.1021
   17MOL   C421 7493   1.841   3.570   3.468 -0.0985 -0.8268  0.0513
   17MOL   C422 7494   1.974   3.613   3.540 -0.5650 -0.0132 -0.1654
   17MOL   C423 7495   1.958   3.616   3.696  0.2593  0.5248  0.3881
   17MOL   C424 7496   1.915   3.483   3.754  0.0846 -0.5605  0.1883
   17MOL   C425 7497   1.787   3.430   3.673 -0.8474 -0.0434 -0.1640
   17MOL   C426 7498   1.816   3.428   3.521  0.4246 -0.0806 -0.3523
   17MOL   C427 7499   1.948   3.492   3.238 -0.5234  0.5651 -0.0277
   17MOL   H428 7500   1.754   3.537   3.275 -0.9311  0.6032  1.9964
   17MOL   H429 7501   1.760   3.632   3.505  0.9426  0.6257 -0.0925
   17MOL   H430 7502   2.060   3.549   3.517 -0.2267  0.5881 -0.5530
   17MOL   H431 7503   2.007   3.711   3.508  0.4300  0.8426  3.2448
   17MOL   H432 7504   2.055   3.645   3.738  0.2414 -0.5659  1.1783
   17MOL   H433 7505   1.878   3.687   3.714 -0.6563 -0.0858 -1.2037
   17MOL   H434 7506   1.903   3.489   3.862  0.7858 -1.8312  0.3382
   17MOL   H435 7507   1.990   3.404   3.750  1.3435  0.6029  0.4624
   17MOL   H436 7508   1.700   3.488   3.703 -0.9306 -1.1849  1.8837
   17MOL   H437 7509   1.766   3.329   3.708 -0.2306  0.0768  0.5607
   17MOL   H438 7510   1.907   3.371   3.507  0.4597 -0.6306  1.9707
   17MOL   H439 7511   1.736   3.378   3.467 -0.4327 -0.6719  1.4348
   17MOL   H440 7512   2.051   3.529   3.242 -0.4680  0.3449  0.6217
   17MOL   H441 7513   1.953   3.391   3.278 -2.8917 -0.6108 -2.5478
   17MOL   H442 7514   1.923   3.478   3.133 -0.0121  0.0322 -0.0825
   18MOL     C1 7515   2.989   1.534   0.822  0.0236  0.3722 -0.6737
   18MOL     C2 7516   3.021   1.405   0.754  0.3128 -0.3914 -0.1542
   18MOL     C3 7517   3.046   1.419   0.604 -0.2049  0.0483  0.6702
   18MOL     C4 7518   3.075   1.279   0.536 -0.5027 -0.2189 -0.6582
   18MOL     C5 7519   2.947   1.195   0.548 -0.7213  0.3936  0.3433
   18MOL     C6 7520   2.907   1.175   0.702 -0.2791 -0.3487  0.7969
   18MOL     C7 7521   2.896   1.317   0.773  0.3524  0.9581  0.1127
   18MOL     C8 7522   2.977   1.540   0.973  0.3916 -0.0952  0.7050
   18MOL     H9 7523   3.082   1.589   0.808  0.1556  0.1285 -0.7682
   18MOL    H10 7524   3.104   1.356   0.804 -2.1183 -0.8022  3.7200
   18MOL    H11 7525   2.965   1.470   0.553 -0.9373  0.6305  2.3976
   18MOL    H12 7526   3.142   1.470   0.602  0.0448 -0.3780 -4.5303
   18MOL    H13 7527   3.156   1.223   0.582 -1.2714  0.2940  1.3773
   18MOL    H14 7528   3.107   1.288   0.432  0.8407 -0.6923 -0.3018
   18MOL    H15 7529   2.964   1.094   0.511 -2.5969  1.2477 -3.0499
   18MOL    H16 7530   2.860   1.236   0.496  0.8510  2.2396 -0.8648
   18MOL    H17 7531   2.805   1.137   0.708 -0.0036 -1.3864 -0.7648
   18MOL    H18 7532   2.980   1.106   0.743 -0.7382  0.4526  3.0592
   18MOL    H19 7533   2.885   1.301   0.880 -0.6635  0.8515  0.0038
   18MOL    H20 7534   2.811   1.374   0.734 -0.1549 -0.4257 -0.8698
   18MOL    H21 7535   3.072   1.500   1.009  1.5867  0.8180 -1.3542
   18MOL    H22 7536   2.895   1.479   1.010  0.6245 -0.6436  0.3176
   18MOL    H23 7537   2.913   1.591   0.769 -1.6432 -1.1034  0.0781
   18MOL    C24 7538   2.950   1.685   1.018  0.2609  0.3485 -0.0126
   18MOL    C25 7539   2.803   1.722   0.992  0.3844 -0.2742  0.5107
   18MOL    C26 7540   2.781   1.871   0.977 -0.8197 -0.0961  0.0334
   18MOL    C27 7541   2.641   1.902   0.928  0.0937  0.0847 -0.2578
   18MOL    C28 7542   2.538   1.834   1.021  0.0697 -0.5351 -0.1188
   18MOL    C29 7543   2.560   1.687   1.026  0.0015 -0.4342 -0.0871
   18MOL    C30 7544   2.697   1.658   1.088 -0.0519 -0.0869 -0.5880
   18MOL    C31 7545   2.970   1.703   1.171 -0.2762 -0.6058 -0.3024
   18MOL    H32 7546   3.007   1.753   0.954  0.2941 -2.2623 -2.8436
   18MOL    H33 7547   2.775   1.675   0.898  0.3757 -0.0594  0.4057
   18MOL    H34 7548   2.842   1.924   0.904  0.4092  0.6170  1.5534
   18MOL    H35 7549   2.791   1.916   1.076 -3.4010  0.0357  0.2743
   18MOL    H36 7550   2.628   2.010   0.934 -0.2217  0.0664 -0.6252
   18MOL    H37 7551   2.633   1.889   0.820  1.7228 -1.0004 -0.2690
   18MOL    H38 7552   2.441   1.861   0.978 -0.7739 -1.2052  1.2906
   18MOL    H39 7553   2.553   1.874   1.121 -1.8877  1.9093 -0.7432
   18MOL    H40 7554   2.484   1.654   1.096  0.5317  0.7919  1.1001
   18MOL    H41 7555   2.557   1.640   0.928  1.1147  0.4417 -0.5593
   18MOL    H42 7556   2.706   1.688   1.192  0.2570  1.4826 -1.0614
   18MOL    H43 7557   2.711   1.550   1.090  2.6095  0.2364 -0.0990
   18MOL    H44 7558   2.936   1.617   1.228 -2.7434  0.5973  0.1377
   18MOL    H45 7559   2.915   1.785   1.218  0.6154 -1.3741  2.1702
   18MOL    C46 7560   3.117   1.726   1.210 -0.1834 -0.7675 -0.1485
   18MOL    C47 7561   3.144   1.673   1.351 -0.7727  0.2675  0.6935
   18MOL    C48 7562   3.051   1.724   1.464 -0.6206  0.2069 -0.1278
   18MOL    C49 7563   3.081   1.653   1.596  0.2234 -0.7173 -0.8868
   18MOL    C50 7564   3.229   1.665   1.647 -0.2293  0.1753 -0.4607
   18MOL    C51 7565   3.326   1.619   1.535  1.0007 -0.1045 -0.7509
   18MOL    C52 7566   3.302   1.684   1.399  0.5425  0.3291  0.3553
   18MOL    C53 7567   3.161   1.876   1.215 -0.5203  0.5145 -0.3566
   18MOL    H54 7568   3.189   1.668   1.151  0.1426  0.4954 -1.0312
   18MOL    H55 7569   3.125   1.566   1.343 -0.1188  0.1315  0.9343
   18MOL    H56 7570   3.066   1.829   1.489 -2.1169  0.0171  1.7114
   18MOL    H57 7571   2.948   1.701   1.436 -0.9445 -0.3584  1.4512
   18MOL    H58 7572   3.065   1.547   1.613 -0.2949 -0.3725  0.8467
   18MOL    H59 7573   3.020   1.704   1.670  1.2862  0.5353 -0.8546
   18MOL    H60 7574   3.257   1.765   1.682 -1.1358  0.6120 -0.9692
   18MOL    H61 7575   3.231   1.605   1.738 -0.2765 -0.0904 -0.6346
   18MOL    H62 7576   3.321   1.511   1.525 -0.0703 -0.1203 -0.0830
   18MOL    H63 7577   3.430   1.640   1.561  1.2905  0.2587 -2.1382
   18MOL    H64 7578   3.353   1.780   1.406 -1.1630  1.2188  0.9588
   18MOL    H65 7579   3.358   1.635   1.320 -1.2562 -0.0924 -0.6927
   18MOL    H66 7580   3.224   1.908   1.297 -2.2470 -2.5787  2.3129
   18MOL    H67 7581   3.074   1.935   1.245 -1.3201 -0.7267 -0.1679
   18MOL    C68 7582   3.231   1.942   1.091 -0.0836  0.5762 -0.5350
   18MOL    C69 7583   3.171   2.091   1.059 -0.4879 -1.0235 -0.2732
   18MOL    C70 7584   3.036   2.082   0.996  0.4834  0.3118 -0.3262
   18MOL    C71 7585   2.999   2.221   0.950  0.0918  0.2957 -0.1115
   18MOL    C72 7586   3.000   2.310   1.068  0.1877  0.6558  0.0334
   18MOL    C73 7587   3.136   2.324   1.135  0.7815  0.3256  1.0202
   18MOL    C74 7588   3.178   2.182   1.179  0.4078 -0.2540 -0.4183
   18MOL    C75 7589   3.379   1.933   1.104 -0.5001  0.6004  0.1031
   18MOL    H76 7590   3.217   1.877   1.005 -3.0264  0.4212  0.0032
   18MOL    H77 7591   3.238   2.134   0.984 -0.7150  0.4547  0.3637
   18MOL    H78 7592   2.972   2.042   1.075  0.5232 -0.6824 -0.7850
   18MOL    H79 7593   3.024   2.010   0.915 -3.4662 -0.2626  0.6335
   18MOL    H80 7594   3.076   2.257   0.883 -0.1915  3.4668  1.1768
   18MOL    H81 7595   2.901   2.220   0.902 -0.2762  0.4938  0.6172
   18MOL    H82 7596   2.925   2.264   1.133 -0.3618 -1.5328 -2.0790
   18MOL    H83 7597   2.959   2.403   1.029 -2.6611 -0.2817  0.6402
   18MOL    H84 7598   3.130   2.390   1.222 -2.2540  0.7185  0.5728
   18MOL    H85 7599   3.203   2.360   1.057 -1.4847 -2.2753 -2.3176
   18MOL    H86 7600   3.121   2.144   1.264  0.2423  0.0290 -0.4022
   18MOL    H87 7601   3.280   2.191   1.215  0.4562  0.3647 -0.7030
   18MOL    H88 7602   3.408   2.028   1.148 -0.4697 -0.9872  3.6489
   18MOL    H89 7603   3.415   1.878   1.191 -0.4087 -2.0933 -1.5787
   18MOL    C90 7604   3.462   1.900   0.974 -0.2375 -0.4181  0.3225
   18MOL    C91 7605   3.432   1.761   0.913 -0.0357  0.9004 -0.0796
   18MOL    C92 7606   3.524   1.716   0.790  0.1942 -0.0088  0.2211
   18MOL    C93 7607   3.474   1.584   0.728  0.0604  0.1883 -0.2683
   18MOL    C94 7608   3.490   1.474   0.834 -0.2009  0.0869 -0.3044
   18MOL    C95 7609   3.413   1.513   0.963 -0.2232 -0.5234  0.5436
   18MOL    C96 7610   3.459   1.648   1.014 -0.1953  0.2773  0.4902
   18MOL    C97 7611   3.466   2.019   0.876  0.0349  0.5210  0.4465
   18MOL    H98 7612   3.566   1.902   1.008 -0.3226  0.2691  0.5508
   18MOL    H99 7613   3.326   1.752   0.888  0.2458  0.4636 -1.1693
   18MOL   H100 7614   3.630   1.707   0.814 -0.1711 -3.8383  0.6367
   18MOL   H101 7615   3.515   1.786   0.707 -0.1421  0.5074  0.6920
   18MOL   H102 7616   3.539   1.548   0.649  1.6367 -0.1423  1.1420
   18MOL   H103 7617   3.378   1.585   0.675  0.3302  0.8348 -0.7462
   18MOL   H104 7618   3.595   1.456   0.858  0.0147  1.5984 -0.0729
   18MOL   H105 7619   3.459   1.377   0.797 -0.1209  0.3284 -1.0128
   18MOL   H106 7620   3.306   1.499   0.951  0.2805 -1.3763 -4.0538
   18MOL   H107 7621   3.442   1.444   1.043  0.7087  0.9935  1.5295
   18MOL   H108 7622   3.396   1.661   1.102  0.0183 -0.3764  0.7373
   18MOL   H109 7623   3.565   1.636   1.036 -0.3854 -1.4628  0.5739
   18MOL   H110 7624   3.517   1.996   0.783  0.2732 -0.4381  0.8096
   18MOL   H111 7625   3.364   2.039   0.843  0.5903  1.1948 -0.8936
   18MOL   C112 7626   3.529   2.148   0.933  0.6288 -0.3328 -0.6060
   18MOL   C113 7627   3.517   2.262   0.827  0.2056  0.9692  0.1952
   18MOL   C114 7628   3.381   2.287   0.758 -0.0673  0.3892 -0.5203
   18MOL   C115 7629   3.387   2.417   0.673  0.2679  0.4558  1.1163
   18MOL   C116 7630   3.501   2.405   0.567 -0.5421 -0.0740 -0.2029
   18MOL   C117 7631   3.635   2.381   0.637  0.5724  0.0840 -0.2830
   18MOL   C118 7632   3.625   2.247   0.716  0.3895 -0.0646  0.1629
   18MOL   C119 7633   3.671   2.146   1.005  0.3077  0.9159  0.1544
   18MOL   H120 7634   3.456   2.181   1.007  1.7758 -0.1853  0.4718
   18MOL   H121 7635   3.537   2.351   0.887 -2.0469 -1.1027  4.2386
   18MOL   H122 7636   3.296   2.289   0.827 -0.8429 -2.2561 -1.3487
   18MOL   H123 7637   3.378   2.200   0.693 -1.4042 -0.6073  0.8313
   18MOL   H124 7638   3.295   2.443   0.621  2.2306 -0.6617 -3.1014
   18MOL   H125 7639   3.408   2.503   0.737 -2.8205  1.3684  1.0026
   18MOL   H126 7640   3.486   2.319   0.502 -0.8835 -1.6000  1.8489
   18MOL   H127 7641   3.511   2.494   0.505 -1.6023  0.8752  0.9649
   18MOL   H128 7642   3.716   2.369   0.565  0.5658 -1.3915 -0.0666
   18MOL   H129 7643   3.664   2.469   0.694  0.1586 -0.0822  0.1881
   18MOL   H130 7644   3.723   2.217   0.756  0.0011 -2.1989 -0.4013
   18MOL   H131 7645   3.601   2.171   0.641 -0.7241  1.0823 -0.6505
   18MOL   H132 7646   3.732   2.081   0.943 -0.9231  2.1099 -2.4034
   18MOL   H133 7647   3.661   2.081   1.092  0.8926 -0.6615 -0.9415
   18MOL   C134 7648   3.750   2.278   1.046  0.6696 -0.2798  0.6727
   18MOL   C135 7649   3.894   2.261   1.093  0.0819 -0.6382 -0.1048
   18MOL   C136 7650   3.977   2.202   0.978 -0.3311 -0.2047  0.5227
   18MOL   C137 7651   4.128   2.188   1.015 -0.6377 -0.1797 -0.1776
   18MOL   C138 7652   4.140   2.104   1.140  0.5358 -0.1418 -0.9048
   18MOL   C139 7653   4.048   2.145   1.252 -0.5855  0.2091 -0.4583
   18MOL   C140 7654   3.907   2.153   1.202 -0.4998  0.3306  0.2307
   18MOL   C141 7655   3.660   2.373   1.138 -0.0259 -0.3281  0.7038
   18MOL   H142 7656   3.761   2.335   0.953 -0.6467 -1.7631 -0.4131
   18MOL   H143 7657   3.936   2.352   1.135  0.4707 -0.2761 -1.2648
   18MOL   H144 7658   3.936   2.106   0.947 -1.6600  0.9065 -1.2918
   18MOL   H145 7659   3.969   2.262   0.887  1.9387 -0.4741  0.1050
   18MOL   H146 7660   4.171   2.286   1.035  0.4298 -0.1389 -2.5191
   18MOL   H147 7661   4.177   2.139   0.931  0.2792 -2.7555  1.7875
   18MOL   H148 7662   4.136   1.995   1.135  0.5369 -0.4734  3.6499
   18MOL   H149 7663   4.234   2.112   1.194 -0.1172 -0.7896  0.3585
   18MOL   H150 7664   4.067   2.234   1.313  0.2442 -0.2247 -0.0786
   18MOL   H151 7665   4.050   2.064   1.324 -1.7935  0.8784  0.3544
   18MOL   H152 7666   3.877   2.058   1.158 -1.2989 -0.0417  1.5554
   18MOL   H153 7667   3.835   2.172   1.282  0.1188  0.3822  0.7766
   18MOL   H154 7668   3.665   2.321   1.233 -0.5285 -1.7215 -0.0270
   18MOL   H155 7669   3.559   2.377   1.097  0.1548 -0.2365  0.2628
   18MOL   C156 7670   3.713   2.516   1.146  0.0754  0.0224 -0.4563
   18MOL   C157 7671   3.645   2.596   1.254  0.0368 -0.3403  0.7063
   18MOL   C158 7672   3.490   2.620   1.234  0.1041 -0.8788 -0.1464
   18MOL   C159 7673   3.443   2.712   1.359 -0.2721 -0.8881  0.3620
   18MOL   C160 7674   3.463   2.641   1.493  0.1141  0.0327  0.3853
   18MOL   C161 7675   3.611   2.601   1.511 -0.3892 -0.2250 -0.4652
   18MOL   C162 7676   3.672   2.527   1.395 -0.0795 -0.2293 -0.2845
   18MOL   C163 7677   3.699   2.585   1.003 -0.2138 -0.0909 -0.2552
   18MOL   H164 7678   3.818   2.505   1.170 -0.7157 -2.0990  2.3498
   18MOL   H165 7679   3.692   2.694   1.256 -1.7256  0.5050  1.7387
   18MOL   H166 7680   3.466   2.671   1.141 -0.7885 -1.4757 -0.2566
   18MOL   H167 7681   3.436   2.526   1.242 -0.1735 -0.5698  1.8353
   18MOL   H168 7682   3.502   2.803   1.345 -3.1734  0.8880 -0.7614
   18MOL   H169 7683   3.340   2.747   1.348  0.0309  0.4221  1.4708
   18MOL   H170 7684   3.397   2.554   1.488 -0.1630  0.2406  0.4362
   18MOL   H171 7685   3.436   2.707   1.575  0.8966  0.8436  0.0008
   18MOL   H172 7686   3.626   2.540   1.600 -0.5619  1.2894  0.6101
   18MOL   H173 7687   3.663   2.694   1.531 -4.0391  1.7264  0.3986
   18MOL   H174 7688   3.776   2.507   1.418  0.4435  2.8133  0.2387
   18MOL   H175 7689   3.632   2.426   1.394 -1.6007  0.3480  1.1469
   18MOL   H176 7690   3.592   2.586   0.980 -0.7896  1.3340  2.2956
   18MOL   H177 7691   3.748   2.529   0.923 -0.4986  0.0859 -0.5593
   18MOL   C178 7692   3.757   2.724   0.985  0.1719 -0.2258  0.0328
   18MOL   C179 7693   3.911   2.735   0.986 -0.3240 -0.1826 -0.3487
   18MOL   C180 7694   3.992   2.629   0.901  0.7293 -0.1626  0.4240
   18MOL   C181 7695   4.141   2.673   0.893 -0.0936  0.0607 -0.2087
   18MOL   C182 7696   4.195   2.674   1.041 -0.1067 -0.2961 -0.0448
   18MOL   C183 7697   4.128   2.791   1.120 -0.4937  0.5696  0.1088
   18MOL   C184 7698   3.977   2.759   1.123 -0.1585 -0.0841  0.3772
   18MOL   C185 7699   3.698   2.774   0.848  0.7973 -0.3497 -0.6246
   18MOL   H186 7700   3.733   2.791   1.068  2.6682  2.1840 -1.1500
   18MOL   H187 7701   3.930   2.827   0.930  2.3055 -1.2820 -1.3380
   18MOL   H188 7702   3.974   2.532   0.948  2.4774 -1.1618 -0.9513
   18MOL   H189 7703   3.952   2.622   0.800 -1.2724 -0.5005  1.2090
   18MOL   H190 7704   4.149   2.771   0.846  0.6597  1.1456  2.1092
   18MOL   H191 7705   4.205   2.603   0.840 -1.8695  0.0022 -2.3630
   18MOL   H192 7706   4.170   2.579   1.088 -2.0948  1.0333  1.6753
   18MOL   H193 7707   4.301   2.694   1.056 -0.5745  2.6110 -0.3900
   18MOL   H194 7708   4.156   2.891   1.086 -0.0276 -0.3124 -2.2111
   18MOL   H195 7709   4.178   2.791   1.217 -0.4552 -0.0340  0.0903
   18MOL   H196 7710   3.973   2.669   1.184 -1.3342  0.1612  0.6876
   18MOL   H197 7711   3.928   2.841   1.177  2.4428  0.8560  1.3491
   18MOL   H198 7712   3.740   2.708   0.772  2.5325  0.9175 -0.7798
   18MOL   H199 7713   3.590   2.761   0.861  0.8326 -1.0033 -0.9517
   18MOL   C200 7714   3.715   2.912   0.773  0.2420  1.1054  0.4594
   18MOL   C201 7715   3.672   2.910   0.623  0.3961  0.4532  0.3420
   18MOL   C202 7716   3.773   2.837   0.530 -0.0806 -0.0952  0.3990
   18MOL   C203 7717   3.718   2.848   0.383 -0.2859 -0.3676 -0.2757
   18MOL   C204 7718   3.573   2.793   0.366  0.0341 -0.5932 -0.2098
   18MOL   C205 7719   3.473   2.856   0.469  0.6248  0.5540  0.3563
   18MOL   C206 7720   3.531   2.843   0.610 -0.2509  0.1554 -0.3368
   18MOL   C207 7721   3.660   3.032   0.852  0.2066 -0.1574 -0.0585
   18MOL   H208 7722   3.823   2.921   0.756  0.0637 -0.1496 -1.5361
   18MOL   H209 7723   3.670   3.015   0.592 -0.0899 -0.4014 -2.7616
   18MOL   H210 7724   3.789   2.734   0.563  3.8278  1.2110  2.8913
   18MOL   H211 7725   3.868   2.890   0.539 -0.5976  1.1620 -1.4043
   18MOL   H212 7726   3.725   2.955   0.367 -1.2840 -0.2878 -0.2173
   18MOL   H213 7727   3.793   2.804   0.317 -0.4959 -0.2490 -0.5947
   18MOL   H214 7728   3.531   2.822   0.270  0.6050  2.2130  0.3473
   18MOL   H215 7729   3.568   2.684   0.375 -3.0275 -0.4542  0.3667
   18MOL   H216 7730   3.469   2.964   0.455  0.0703  0.6618  1.3314
   18MOL   H217 7731   3.369   2.828   0.456  0.3375  0.4303  2.7202
   18MOL   H218 7732   3.465   2.887   0.685 -0.8999  0.3521 -1.0144
   18MOL   H219 7733   3.539   2.739   0.641 -0.6096  0.5459  1.1265
   18MOL   H220 7734   3.555   3.042   0.825  0.2036 -0.4856 -0.1787
   18MOL   H221 7735   3.653   3.004   0.958 -0.4856  1.3974  0.3130
   18MOL   C222 7736   3.733   3.168   0.840  0.7207  0.3104 -0.0229
   18MOL   C223 7737   3.649   3.296   0.876 -0.8430 -0.0283  0.5289
   18MOL   C224 7738   3.573   3.281   1.013  0.5779  0.4636 -0.6795
   18MOL   C225 7739   3.511   3.416   1.032  0.0985 -0.6622 -0.5899
   18MOL   C226 7740   3.404   3.446   0.930 -0.1494  0.2081  0.5120
   18MOL   C227 7741   3.469   3.467   0.792 -0.0940  0.1205 -0.2601
   18MOL   C228 7742   3.543   3.331   0.763  0.3201  0.3530 -0.1407
   18MOL   C229 7743   3.857   3.156   0.933  0.5937  0.5177 -0.5287
   18MOL   H230 7744   3.764   3.183   0.737 -2.4187  0.8675 -0.9526
   18MOL   H231 7745   3.712   3.385   0.878  0.8259 -1.1238 -1.4688
   18MOL   H232 7746   3.488   3.213   1.021  0.6009  0.5873  0.6368
   18MOL   H233 7747   3.637   3.260   1.098 -0.7585  0.3653  0.3092
   18MOL   H234 7748   3.582   3.498   1.029 -1.5832  0.9320  1.1765
   18MOL   H235 7749   3.473   3.419   1.135 -0.8236  0.0796 -0.9433
   18MOL   H236 7750   3.341   3.358   0.919 -0.5792  0.4771  0.8522
   18MOL   H237 7751   3.340   3.530   0.954  0.0744  0.3266  0.6957
   18MOL   H238 7752   3.538   3.549   0.810  0.9851 -0.8127 -0.0557
   18MOL   H239 7753   3.384   3.493   0.730  0.0012  1.1034  0.0122
   18MOL   H240 7754   3.482   3.243   0.744  1.2871 -0.2248 -0.6581
   18MOL   H241 7755   3.576   3.346   0.660 -0.7688  0.9872 -0.3956
   18MOL   H242 7756   3.904   3.058   0.922 -1.5229 -0.3248 -2.5988
   18MOL   H243 7757   3.826   3.150   1.037  2.4890  1.3389  0.1041
   18MOL   C244 7758   3.982   3.256   0.926 -0.0047  0.5954 -0.7099
   18MOL   C245 7759   4.038   3.261   0.789  0.3255 -0.2582  0.4908
   18MOL   C246 7760   4.121   3.143   0.720  0.1308 -0.2645 -0.2766
   18MOL   C247 7761   4.126   3.168   0.570 -0.4887 -0.1636 -0.3201
   18MOL   C248 7762   4.190   3.302   0.535 -0.3788 -0.1175 -1.6498
   18MOL   C249 7763   4.135   3.421   0.615  0.2679  0.1506  0.1947
   18MOL   C250 7764   4.124   3.389   0.763  0.1587 -0.2102 -0.9537
   18MOL   C251 7765   4.085   3.205   1.034 -0.1887 -0.1883 -0.2426
   18MOL   H252 7766   3.944   3.356   0.944 -2.4901 -1.0342  4.0046
   18MOL   H253 7767   3.956   3.263   0.717  0.8242  0.3932 -0.0678
   18MOL   H254 7768   4.068   3.052   0.748  1.0361 -0.1808  1.8063
   18MOL   H255 7769   4.223   3.136   0.757  0.2761 -2.1483 -1.0051
   18MOL   H256 7770   4.192   3.090   0.532 -1.4510 -1.4742  0.6281
   18MOL   H257 7771   4.024   3.169   0.530 -0.4415 -2.8062 -0.5894
   18MOL   H258 7772   4.298   3.300   0.537 -0.4010 -1.2366 -1.3121
   18MOL   H259 7773   4.175   3.308   0.427 -1.6354  3.0209 -1.3586
   18MOL   H260 7774   4.038   3.453   0.578  1.0576 -0.3239 -2.3902
   18MOL   H261 7775   4.209   3.499   0.595  0.1288  0.4167  0.7105
   18MOL   H262 7776   4.221   3.371   0.810 -0.1055 -1.7315 -0.9655
   18MOL   H263 7777   4.086   3.475   0.819  0.4887 -0.9368  0.4240
   18MOL   H264 7778   4.183   3.231   0.994 -0.0717 -2.2207 -1.3173
   18MOL   H265 7779   4.083   3.096   1.041 -2.3017 -0.2597 -1.3821
   18MOL   C266 7780   4.078   3.268   1.175  0.1667 -0.3472 -0.1729
   18MOL   C267 7781   3.952   3.237   1.255  0.0811  0.5029  0.6033
   18MOL   C268 7782   3.927   3.331   1.380  0.3148 -0.1197 -0.0677
   18MOL   C269 7783   3.805   3.292   1.462 -0.3012  0.0276 -0.3740
   18MOL   C270 7784   3.824   3.150   1.499  0.0337  0.6310  0.1923
   18MOL   C271 7785   3.828   3.053   1.374  0.0381  0.0199  0.5404
   18MOL   C272 7786   3.944   3.089   1.281  0.1539 -0.0371  0.6053
   18MOL   C273 7787   4.209   3.244   1.253 -0.8018  0.1664 -1.1409
   18MOL   H274 7788   4.071   3.376   1.165 -1.3693 -0.2962  1.4053
   18MOL   H275 7789   3.864   3.264   1.198 -1.0652 -2.7817  0.6831
   18MOL   H276 7790   4.018   3.350   1.436 -0.2052 -0.0418  0.7627
   18MOL   H277 7791   3.906   3.433   1.348 -0.3297 -0.4964 -0.8572
   18MOL   H278 7792   3.708   3.302   1.414 -0.6767  1.0584  0.5756
   18MOL   H279 7793   3.790   3.349   1.554  0.9523  1.9306 -1.3190
   18MOL   H280 7794   3.913   3.141   1.561 -0.3167  3.0854  1.0987
   18MOL   H281 7795   3.751   3.117   1.573  0.4752  0.3443  0.5048
   18MOL   H282 7796   3.734   3.053   1.318  0.0137  2.0361  0.5375
   18MOL   H283 7797   3.851   2.959   1.423  1.1335  0.4522  0.8782
   18MOL   H284 7798   3.928   3.042   1.184 -0.1802  2.3805 -0.5634
   18MOL   H285 7799   4.036   3.056   1.329  0.0432  0.2242  1.0075
   18MOL   H286 7800   4.262   3.162   1.205  2.2790  0.1247  2.1944
   18MOL   H287 7801   4.187   3.208   1.353 -1.7395  1.9553 -0.6768
   18MOL   C288 7802   4.328   3.351   1.253  0.8498  0.2280  0.2102
   18MOL   C289 7803   4.466   3.299   1.301 -0.2445 -0.0265 -0.0208
   18MOL   C290 7804   4.468   3.220   1.434  0.2346 -0.2581 -0.4977
   18MOL   C291 7805   4.609   3.174   1.483  0.1215  0.0404  0.1487
   18MOL   C292 7806   4.689   3.115   1.369 -0.1599 -0.0035 -0.3119
   18MOL   C293 7807   4.689   3.190   1.233 -0.4845  0.3205 -0.3225
   18MOL   C294 7808   4.549   3.218   1.191 -0.6027  0.1709 -0.1436
   18MOL   C295 7809   4.295   3.476   1.334  0.9255 -0.5167  0.0862
   18MOL   H296 7810   4.335   3.380   1.148  0.7744 -1.1472 -0.1908
   18MOL   H297 7811   4.539   3.377   1.319  2.3880 -2.0757 -1.4114
   18MOL   H298 7812   4.414   3.273   1.513  4.1818  0.3323  1.9343
   18MOL   H299 7813   4.406   3.131   1.432  0.1542 -0.2744  1.7065
   18MOL   H300 7814   4.661   3.262   1.519 -0.8913  1.8552 -2.6230
   18MOL   H301 7815   4.591   3.097   1.558  2.1494 -0.8656 -0.2743
   18MOL   H302 7816   4.658   3.011   1.366  0.6738 -0.2290 -1.5028
   18MOL   H303 7817   4.793   3.114   1.401 -0.1772  0.6483 -0.2215
   18MOL   H304 7818   4.755   3.139   1.163  0.2595 -0.2514  0.7806
   18MOL   H305 7819   4.739   3.286   1.247 -0.0917 -0.2419  2.4952
   18MOL   H306 7820   4.485   3.135   1.162 -2.1583  1.9912 -2.0442
   18MOL   H307 7821   4.554   3.289   1.109 -0.5140  0.5951  0.2233
   18MOL   H308 7822   4.187   3.491   1.328  0.9122 -1.1607 -1.4795
   18MOL   H309 7823   4.305   3.459   1.441 -0.2759  1.0017  0.4640
   18MOL   C310 7824   4.364   3.611   1.288 -0.0771  0.1296  0.6168
   18MOL   C311 7825   4.257   3.719   1.246 -0.2721 -0.0089  0.0931
   18MOL   C312 7826   4.198   3.673   1.108 -0.2738 -0.1655  0.0023
   18MOL   C313 7827   4.120   3.797   1.054 -0.1495  0.3235  0.6917
   18MOL   C314 7828   4.009   3.834   1.154  0.1654 -0.1369 -0.1733
   18MOL   C315 7829   4.066   3.862   1.293  0.3502  0.5995  0.3521
   18MOL   C316 7830   4.151   3.752   1.349 -0.5223 -0.6860 -0.1519
   18MOL   C317 7831   4.464   3.658   1.400 -0.2906 -0.0013  0.2091
   18MOL   H318 7832   4.423   3.593   1.198 -0.7583  2.9545 -0.4509
   18MOL   H319 7833   4.306   3.815   1.228  1.2333 -0.6730  0.5563
   18MOL   H320 7834   4.275   3.662   1.032 -0.1670 -0.8468  0.2047
   18MOL   H321 7835   4.136   3.584   1.108 -0.5250  0.0092 -0.0428
   18MOL   H322 7836   4.068   3.772   0.961 -0.0414 -2.6327  1.3758
   18MOL   H323 7837   4.193   3.876   1.038  0.0939 -0.2249 -1.0019
   18MOL   H324 7838   3.949   3.921   1.126  2.3127  1.0932 -1.1278
   18MOL   H325 7839   3.939   3.751   1.162 -0.3445  0.4001  1.0282
   18MOL   H326 7840   4.118   3.958   1.291 -2.0153  1.9121  0.2142
   18MOL   H327 7841   3.985   3.882   1.363  2.5324  2.7818  2.3484
   18MOL   H328 7842   4.086   3.669   1.378 -1.1559 -0.8260 -1.9038
   18MOL   H329 7843   4.198   3.784   1.442 -0.3951  1.1236 -0.8143
   18MOL   H330 7844   4.510   3.576   1.456  2.0623  0.6495 -0.7190
   18MOL   H331 7845   4.399   3.696   1.478 -1.5362  0.7274 -1.1669
   18MOL   C332 7846   4.562   3.771   1.349 -0.2013  0.0699  0.8349
   18MOL   C333 7847   4.687   3.714   1.280  0.5147  0.0853 -0.1376
   18MOL   C334 7848   4.793   3.650   1.365 -0.1008 -0.2838 -0.4786
   18MOL   C335 7849   4.883   3.573   1.272 -0.8208  0.0010  0.1117
   18MOL   C336 7850   4.964   3.664   1.177 -0.3964 -0.2715 -0.1980
   18MOL   C337 7851   4.863   3.752   1.095 -0.1322 -0.3629  0.3388
   18MOL   C338 7852   4.752   3.812   1.174  0.2033 -0.2668 -0.8142
   18MOL   C339 7853   4.588   3.876   1.453 -0.1771 -0.0475  0.0205
   18MOL   H340 7854   4.509   3.831   1.274 -0.0753  0.0882  0.7610
   18MOL   H341 7855   4.651   3.632   1.217  1.4079  0.2188 -0.8480
   18MOL   H342 7856   4.854   3.719   1.423 -2.6045  1.6622 -0.1158
   18MOL   H343 7857   4.745   3.584   1.437  0.7511 -0.0017  0.3472
   18MOL   H344 7858   4.947   3.519   1.342  0.9784  0.2231 -1.3343
   18MOL   H345 7859   4.835   3.496   1.212  1.5928 -0.7808 -0.8588
   18MOL   H346 7860   5.024   3.735   1.234  1.6157 -1.2560 -1.0639
   18MOL   H347 7861   5.032   3.604   1.117  0.6625  1.6424 -0.9567
   18MOL   H348 7862   4.814   3.693   1.017 -0.0747  1.3739 -1.0224
   18MOL   H349 7863   4.904   3.837   1.041 -3.2486  0.5057 -0.7773
   18MOL   H350 7864   4.678   3.868   1.116  0.6260  2.7808  1.4467
   18MOL   H351 7865   4.813   3.889   1.221 -0.3192  2.1102 -3.8300
   18MOL   H352 7866   4.678   3.918   1.408 -0.5218 -0.9913 -1.5987
   18MOL   H353 7867   4.607   3.818   1.543 -0.8897  0.6552  0.6351
   18MOL   C354 7868   4.483   3.990   1.478 -0.0245  0.1490  0.7799
   18MOL   C355 7869   4.471   4.090   1.361  0.3187 -1.0352 -0.4234
   18MOL   C356 7870   4.582   4.196   1.365 -0.3653  0.8808  1.0895
   18MOL   C357 7871   4.583   4.297   1.246  0.1811 -0.3503  0.1635
   18MOL   C358 7872   4.443   4.351   1.225  0.1776  0.3057 -0.3170
   18MOL   C359 7873   4.342   4.233   1.203  0.2699 -0.2914 -0.4468
   18MOL   C360 7874   4.336   4.152   1.331  1.2136  0.4225  0.4423
   18MOL   C361 7875   4.504   4.048   1.618 -0.4785  0.0867  0.4666
   18MOL   H362 7876   4.388   3.937   1.479 -0.9313  1.7302  2.4434
   18MOL   H363 7877   4.494   4.034   1.270 -1.1029 -1.7281 -0.3765
   18MOL   H364 7878   4.680   4.152   1.382 -0.9981 -0.7853  0.4830
   18MOL   H365 7879   4.578   4.258   1.455 -2.6815 -0.9858  2.3359
   18MOL   H366 7880   4.657   4.377   1.252  0.7617 -1.0134  2.8551
   18MOL   H367 7881   4.606   4.254   1.149 -1.6122 -0.0559 -0.3913
   18MOL   H368 7882   4.418   4.404   1.317  4.7303  0.0598  1.2048
   18MOL   H369 7883   4.442   4.420   1.140  1.2434  1.0098  0.2244
   18MOL   H370 7884   4.247   4.285   1.187  0.1609  0.5752  2.7618
   18MOL   H371 7885   4.367   4.183   1.109 -0.4571 -1.3378 -0.0934
   18MOL   H372 7886   4.261   4.074   1.317 -0.6627  2.0959  0.9815
   18MOL   H373 7887   4.304   4.222   1.408  0.6751 -0.1011  0.6997
   18MOL   H374 7888   4.594   4.110   1.624 -0.9642  0.8383  0.0205
   18MOL   H375 7889   4.528   3.970   1.690  1.6352  0.4300  0.1865
   18MOL   C376 7890   4.385   4.127   1.678 -0.0891 -0.5110 -0.1059
   18MOL   C377 7891   4.280   4.032   1.730 -0.2453  0.3874 -0.3079
   18MOL   C378 7892   4.138   4.098   1.726  0.2314 -0.2349 -0.3598
   18MOL   C379 7893   4.023   4.017   1.776 -0.0367  0.1767  0.0782
   18MOL   C380 7894   4.052   3.966   1.922  0.1015 -0.1598  0.7290
   18MOL   C381 7895   4.179   3.890   1.928 -0.4331  1.2993  0.0489
   18MOL   C382 7896   4.303   3.971   1.872 -0.2073 -0.0550  0.3435
   18MOL   C383 7897   4.435   4.235   1.784 -0.1742 -0.0784 -0.3709
   18MOL   H384 7898   4.343   4.182   1.593  1.9121 -1.8322 -2.0238
   18MOL   H385 7899   4.274   3.949   1.660  0.4695 -1.3055  1.6108
   18MOL   H386 7900   4.148   4.189   1.785 -0.5920 -2.1699  2.8452
   18MOL   H387 7901   4.120   4.129   1.623 -0.7976  1.9941  0.4762
   18MOL   H388 7902   3.985   3.937   1.712  1.1864 -1.4833  1.3902
   18MOL   H389 7903   3.935   4.081   1.784 -2.3849 -2.8992 -0.1198
   18MOL   H390 7904   4.061   4.037   2.005 -1.9320 -0.1736  0.9743
   18MOL   H391 7905   3.973   3.901   1.957  0.4543 -1.6511 -1.1963
   18MOL   H392 7906   4.204   3.856   2.029  1.6171  1.0330 -0.5111
   18MOL   H393 7907   4.170   3.802   1.865  2.3542 -0.2272  1.6678
   18MOL   H394 7908   4.346   4.047   1.937  2.6799 -1.7079  0.4519
   18MOL   H395 7909   4.386   3.902   1.853  1.2410  1.0311  2.5624
   18MOL   H396 7910   4.516   4.197   1.846 -0.4952  0.2777  0.2749
   18MOL   H397 7911   4.361   4.255   1.861  1.5108  2.5011  0.6244
   18MOL   C398 7912   4.499   4.375   1.736 -0.6292  0.0935  0.3332
   18MOL   C399 7913   4.394   4.466   1.666 -0.6859 -0.0651 -0.6984
   18MOL   C400 7914   4.300   4.531   1.779 -0.7269 -0.6079 -1.1976
   18MOL   C401 7915   4.182   4.612   1.718 -0.3002  0.3390 -0.4334
   18MOL   C402 7916   4.245   4.719   1.632 -0.1385 -1.1903  0.3572
   18MOL   C403 7917   4.331   4.658   1.518  0.1418 -0.7848 -1.0445
   18MOL   C404 7918   4.445   4.572   1.575  0.0854  0.4836 -0.0363
   18MOL   C405 7919   4.587   4.455   1.840  0.1379 -0.0586  0.5656
   18MOL   H406 7920   4.558   4.347   1.649 -0.6740  0.6513  0.1182
   18MOL   H407 7921   4.326   4.400   1.612  1.8823 -2.0638 -1.6180
   18MOL   H408 7922   4.363   4.602   1.834 -1.7780 -1.0453  0.6319
   18MOL   H409 7923   4.268   4.457   1.852 -2.8232  2.1210  0.7885
   18MOL   H410 7924   4.126   4.636   1.808  1.8304 -1.5674  1.4662
   18MOL   H411 7925   4.113   4.540   1.675 -1.8535  1.4761  0.1304
   18MOL   H412 7926   4.309   4.785   1.690 -2.3073  1.9315 -0.6416
   18MOL   H413 7927   4.176   4.785   1.578  1.0762 -0.7083 -0.6298
   18MOL   H414 7928   4.278   4.586   1.456  0.5752 -1.3845 -0.7252
   18MOL   H415 7929   4.381   4.728   1.451 -1.1683  0.6778 -0.5269
   18MOL   H416 7930   4.501   4.527   1.493  0.4739  0.0559  0.4570
   18MOL   H417 7931   4.500   4.647   1.631  1.6625  0.1587 -1.1229
   18MOL   H418 7932   4.618   4.555   1.808  0.2608 -0.1370  0.4359
   18MOL   H419 7933   4.527   4.464   1.930  1.8545 -0.1056  1.7335
   18MOL   C420 7934   4.718   4.384   1.889  0.0399  0.1540  0.0839
   18MOL   C421 7935   4.797   4.472   1.995  1.0534  0.0494  0.4754
   18MOL   C422 7936   4.938   4.421   2.021  0.4041 -0.1548 -0.1929
   18MOL   C423 7937   5.010   4.514   2.117 -0.2573 -0.3026 -1.0823
   18MOL   C424 7938   4.943   4.512   2.247  0.7127  0.3198  0.2392
   18MOL   C425 7939   4.799   4.567   2.233  0.3192  0.2701  0.2607
   18MOL   C426 7940   4.728   4.484   2.133 -0.7205 -0.1431 -0.8299
   18MOL   C427 7941   4.796   4.344   1.756  0.1246 -0.8314  0.0763
   18MOL   H428 7942   4.691   4.296   1.946 -0.6187  1.3303  1.6258
   18MOL   H429 7943   4.822   4.571   1.955  0.6371 -0.2215 -0.4795
   18MOL   H430 7944   4.931   4.323   2.067  2.3393  0.1092  0.7045
   18MOL   H431 7945   5.006   4.425   1.936 -0.1413  1.0007 -0.5867
   18MOL   H432 7946   5.114   4.480   2.122 -0.7746 -1.8493 -0.8980
   18MOL   H433 7947   5.001   4.617   2.081  1.1298 -0.0409 -0.7167
   18MOL   H434 7948   4.996   4.560   2.329  1.3633  0.7330 -0.4125
   18MOL   H435 7949   4.930   4.410   2.283 -0.0266 -0.4613 -2.1345
   18MOL   H436 7950   4.815   4.670   2.202 -1.2428  0.1353 -1.0052
   18MOL   H437 7951   4.744   4.575   2.327 -2.2207 -0.3310 -1.1448
   18MOL   H438 7952   4.711   4.385   2.177 -0.4684 -0.0391 -0.4955
   18MOL   H439 7953   4.629   4.526   2.117 -0.1192  2.7291  2.5821
   18MOL   H440 7954   4.794   4.427   1.685 -0.5054 -0.8442  0.0784
   18MOL   H441 7955   4.895   4.302   1.773  0.2280 -0.3424  0.7209
   18MOL   H442 7956   4.741   4.263   1.710 -1.3106 -0.0352  0.3545
   19MOL     C1 7957   4.626   1.385   5.930 -0.4053  0.3806  0.7345
   19MOL     C2 7958   4.534   1.506   5.931 -0.2905 -0.1961  0.2699
   19MOL     C3 7959   4.600   1.629   6.000  0.5632 -0.0890 -0.0076
   19MOL     C4 7960   4.518   1.759   5.992  0.4746  0.0077  0.1282
   19MOL     C5 7961   4.383   1.732   6.058 -0.3565 -0.0647  0.7904
   19MOL     C6 7962   4.318   1.597   6.005  0.7310  0.2900 -0.3845
   19MOL     C7 7963   4.407   1.479   6.001  0.0903  0.2172 -0.1219
   19MOL     C8 7964   4.749   1.392   5.829 -0.2076 -0.5388  0.6143
   19MOL     H9 7965   4.662   1.356   6.029  1.4792 -0.2241 -0.1287
   19MOL    H10 7966   4.508   1.536   5.830  0.9968 -2.1306 -0.6494
   19MOL    H11 7967   4.618   1.608   6.106  2.2867 -1.6751 -0.5897
   19MOL    H12 7968   4.696   1.650   5.953  0.6669  0.5830  0.5057
   19MOL    H13 7969   4.500   1.790   5.889  1.5752 -0.1081 -0.1155
   19MOL    H14 7970   4.571   1.846   6.030  0.1060 -0.4603  1.7718
   19MOL    H15 7971   4.321   1.816   6.028  0.2566  0.1679  0.1651
   19MOL    H16 7972   4.396   1.735   6.166  0.8841  2.1825  0.6132
   19MOL    H17 7973   4.231   1.573   6.067 -0.3519  0.2569 -1.8852
   19MOL    H18 7974   4.283   1.605   5.902 -0.2613 -1.3062 -0.1928
   19MOL    H19 7975   4.360   1.395   5.950 -0.0924  0.4897 -0.4050
   19MOL    H20 7976   4.428   1.442   6.101  3.1629  1.4499 -0.2407
   19MOL    H21 7977   4.795   1.490   5.843  1.6365 -1.0116 -1.8464
   19MOL    H22 7978   4.696   1.388   5.734 -0.3922 -0.0307  0.6959
   19MOL    H23 7979   4.565   1.299   5.903  1.0070 -0.4933  0.3395
   19MOL    C24 7980   4.849   1.272   5.839  0.1009 -0.2480  0.1607
   19MOL    C25 7981   4.821   1.166   5.734 -0.2240 -0.2198 -0.1122
   19MOL    C26 7982   4.878   1.029   5.772 -0.4860 -0.7707 -0.9460
   19MOL    C27 7983   4.851   0.923   5.667  0.5581  0.4344 -0.3074
   19MOL    C28 7984   4.881   0.959   5.521 -0.1157 -0.0251 -0.6516
   19MOL    C29 7985   4.812   1.093   5.499  0.1043 -0.1221 -0.2466
   19MOL    C30 7986   4.852   1.211   5.592 -0.5346 -0.3718 -0.3385
   19MOL    C31 7987   5.000   1.320   5.846 -0.1279  0.1689 -0.1406
   19MOL    H32 7988   4.834   1.225   5.936  1.9802 -0.0107  0.5792
   19MOL    H33 7989   4.713   1.150   5.739 -0.1058 -0.7807  0.8989
   19MOL    H34 7990   4.840   0.999   5.870 -0.6514  0.6295 -0.5772
   19MOL    H35 7991   4.986   1.032   5.782 -0.5654 -1.1987  0.0481
   19MOL    H36 7992   4.901   0.829   5.686 -2.8572 -1.6928 -1.4155
   19MOL    H37 7993   4.744   0.904   5.678  0.6820  1.1088  2.3036
   19MOL    H38 7994   4.860   0.875   5.455  3.7316 -0.1061 -1.9424
   19MOL    H39 7995   4.988   0.978   5.506  0.2395  0.0622  1.8157
   19MOL    H40 7996   4.827   1.116   5.393 -2.1812 -1.1921 -0.8383
   19MOL    H41 7997   4.704   1.083   5.501 -0.0231  1.3795  0.5999
   19MOL    H42 7998   4.957   1.236   5.578 -0.8540  0.9972 -0.3865
   19MOL    H43 7999   4.804   1.307   5.572  1.9407  0.8885 -0.5221
   19MOL    H44 8000   5.024   1.383   5.760  1.4857  1.0307  0.9034
   19MOL    H45 8001   5.079   1.245   5.840 -0.4621 -0.2688  0.9306
   19MOL    C46 8002   5.027   1.397   5.980  0.8985  0.0902  0.2880
   19MOL    C47 8003   5.133   1.509   5.955  0.5146 -0.0056  0.2773
   19MOL    C48 8004   5.055   1.632   5.897  0.4365 -0.2411 -0.5852
   19MOL    C49 8005   5.149   1.757   5.880  0.2840  0.4145  0.0347
   19MOL    C50 8006   5.272   1.721   5.804 -0.0590 -0.1715 -0.1999
   19MOL    C51 8007   5.345   1.611   5.874 -0.6185 -0.6693 -0.4861
   19MOL    C52 8008   5.262   1.476   5.870  0.6383  0.3959 -0.0604
   19MOL    C53 8009   5.088   1.300   6.088  0.3230 -0.5671 -0.0350
   19MOL    H54 8010   4.936   1.443   6.018  0.6542  0.1854 -0.4073
   19MOL    H55 8011   5.173   1.541   6.052 -2.4202 -0.8466  1.8059
   19MOL    H56 8012   5.009   1.610   5.801 -0.8708 -1.8715  0.3854
   19MOL    H57 8013   4.973   1.669   5.958  0.0068 -1.0390 -0.6746
   19MOL    H58 8014   5.168   1.802   5.976  1.3712  3.1995 -1.4486
   19MOL    H59 8015   5.107   1.826   5.807 -0.7035  1.9737  2.0538
   19MOL    H60 8016   5.240   1.696   5.703 -2.1746  1.3690  0.0444
   19MOL    H61 8017   5.338   1.807   5.796 -1.4930  1.3569  3.2320
   19MOL    H62 8018   5.385   1.638   5.971  1.4972 -0.0464 -1.5059
   19MOL    H63 8019   5.436   1.604   5.814  0.1756 -0.2809  0.6561
   19MOL    H64 8020   5.243   1.444   5.767  0.1997  1.6957 -0.3891
   19MOL    H65 8021   5.308   1.392   5.923 -2.2286 -1.3792 -0.2892
   19MOL    H66 8022   5.196   1.288   6.087  0.8773  3.4866  2.2241
   19MOL    H67 8023   5.048   1.202   6.061 -0.8529 -0.0785 -0.1228
   19MOL    C68 8024   5.035   1.327   6.231  0.5390 -0.4501  0.0404
   19MOL    C69 8025   4.890   1.280   6.248 -0.1538 -0.4335  0.2845
   19MOL    C70 8026   4.886   1.130   6.297 -0.3591 -0.4326  0.3652
   19MOL    C71 8027   4.745   1.077   6.311 -0.4913  0.2104  0.5501
   19MOL    C72 8028   4.668   1.151   6.416 -0.2652  0.0507 -0.0265
   19MOL    C73 8029   4.657   1.300   6.383  0.4300 -0.2233  0.0191
   19MOL    C74 8030   4.795   1.359   6.350  0.1721  0.8328 -0.3372
   19MOL    C75 8031   5.135   1.303   6.345  0.4082  0.2239  0.7803
   19MOL    H76 8032   5.024   1.435   6.230  1.0913 -0.3884 -1.9588
   19MOL    H77 8033   4.838   1.283   6.152 -1.0725  1.6470  0.8298
   19MOL    H78 8034   4.938   1.131   6.392 -0.4169 -0.7458  0.3988
   19MOL    H79 8035   4.939   1.062   6.231 -0.2334  1.0640 -1.1273
   19MOL    H80 8036   4.682   1.089   6.222  0.0225  3.5822  0.5664
   19MOL    H81 8037   4.755   0.972   6.338  5.8586  0.4169 -0.2934
   19MOL    H82 8038   4.721   1.152   6.511 -2.7506 -0.7164  1.4224
   19MOL    H83 8039   4.568   1.110   6.426  0.8170 -2.1799  1.8364
   19MOL    H84 8040   4.612   1.350   6.469  0.8275 -1.1988  0.8045
   19MOL    H85 8041   4.594   1.310   6.294 -1.3446 -1.3081  1.1142
   19MOL    H86 8042   4.851   1.364   6.444 -2.7913 -0.6141  1.5729
   19MOL    H87 8043   4.783   1.457   6.305 -0.0207  1.4033  0.9355
   19MOL    H88 8044   5.086   1.293   6.442  1.1469 -1.4741  0.9949
   19MOL    H89 8045   5.177   1.204   6.330 -1.5884 -1.0290  3.2026
   19MOL    C90 8046   5.240   1.416   6.360  0.2908 -0.2346  0.0002
   19MOL    C91 8047   5.183   1.550   6.425  0.2205 -0.2390  0.7181
   19MOL    C92 8048   5.161   1.550   6.577 -0.2467  0.4518  0.1293
   19MOL    C93 8049   5.087   1.676   6.622 -0.6189  1.1330 -0.1665
   19MOL    C94 8050   5.153   1.804   6.574 -0.4151  0.1025 -0.1085
   19MOL    C95 8051   5.181   1.799   6.425  0.2649  0.3769  0.3304
   19MOL    C96 8052   5.259   1.673   6.387 -0.6261 -0.3645  0.3218
   19MOL    C97 8053   5.368   1.367   6.446  0.2356 -0.2071  0.6680
   19MOL    H98 8054   5.279   1.437   6.261 -1.6586  1.4707 -0.4271
   19MOL    H99 8055   5.081   1.560   6.388  0.3852  0.1252  0.3556
   19MOL   H100 8056   5.260   1.549   6.623 -1.7977  1.5556  3.7418
   19MOL   H101 8057   5.120   1.455   6.613 -2.4346  0.9954 -0.8259
   19MOL   H102 8058   5.070   1.686   6.729 -1.3426 -1.6689  0.0158
   19MOL   H103 8059   4.989   1.673   6.575  0.7521  2.1267 -3.2373
   19MOL   H104 8060   5.240   1.828   6.636 -1.0750 -1.3080  1.4163
   19MOL   H105 8061   5.081   1.885   6.586 -1.0540  0.2613 -4.3425
   19MOL   H106 8062   5.086   1.813   6.373  0.3982  0.6411  0.1554
   19MOL   H107 8063   5.237   1.892   6.410  1.2636 -0.5680 -2.1481
   19MOL   H108 8064   5.272   1.671   6.279 -0.5313 -1.2896  0.3443
   19MOL   H109 8065   5.353   1.676   6.441  0.2153 -0.3006 -1.1151
   19MOL   H110 8066   5.432   1.452   6.469 -0.1211 -0.2487  1.8667
   19MOL   H111 8067   5.330   1.322   6.538 -2.6584 -0.7665 -0.7280
   19MOL   C112 8068   5.452   1.264   6.369  0.8692  0.0739  0.2850
   19MOL   C113 8069   5.533   1.166   6.460 -0.1774  0.2044  0.5391
   19MOL   C114 8070   5.442   1.047   6.508 -0.4295 -0.5668  0.9437
   19MOL   C115 8071   5.527   0.953   6.594 -0.4932 -0.5252  0.2127
   19MOL   C116 8072   5.588   1.028   6.722  0.8118  0.0537 -0.3032
   19MOL   C117 8073   5.680   1.137   6.669  0.0517  0.5419  0.5074
   19MOL   C118 8074   5.598   1.238   6.582 -0.7630 -0.3319 -0.4166
   19MOL   C119 8075   5.548   1.333   6.277  0.2256  0.3395 -0.2771
   19MOL   H120 8076   5.388   1.198   6.311  1.7928  0.1885 -0.8671
   19MOL   H121 8077   5.619   1.120   6.412 -0.4344 -0.0437  0.3183
   19MOL   H122 8078   5.394   0.996   6.425  1.6648 -0.5915 -0.2789
   19MOL   H123 8079   5.363   1.076   6.577  0.2582 -0.6668  1.7805
   19MOL   H124 8080   5.463   0.871   6.627 -0.4699 -0.5543  0.1854
   19MOL   H125 8081   5.608   0.898   6.546  0.9791  3.1155 -1.6302
   19MOL   H126 8082   5.512   1.075   6.785  0.6781  0.3030 -0.6514
   19MOL   H127 8083   5.636   0.950   6.780  0.3525 -1.1132 -1.4480
   19MOL   H128 8084   5.723   1.175   6.762  1.4397  0.1236  0.0512
   19MOL   H129 8085   5.757   1.087   6.609 -0.0521  0.5511  0.3670
   19MOL   H130 8086   5.683   1.295   6.547 -0.0305 -1.3928 -0.4071
   19MOL   H131 8087   5.539   1.308   6.641  0.2488  2.2682 -2.4296
   19MOL   H132 8088   5.616   1.383   6.347  2.8808 -1.1080 -1.7529
   19MOL   H133 8089   5.500   1.417   6.226  0.0142  0.3983  0.0196
   19MOL   C134 8090   5.620   1.248   6.170 -0.7436  0.3031  0.3159
   19MOL   C135 8091   5.740   1.328   6.115 -0.2885 -0.1430  0.3924
   19MOL   C136 8092   5.702   1.458   6.048  0.0328 -0.1458 -0.7594
   19MOL   C137 8093   5.820   1.550   6.006  0.1480 -0.2596  0.2988
   19MOL   C138 8094   5.933   1.463   5.935  0.3032  0.2171  0.4052
   19MOL   C139 8095   5.973   1.337   6.011  0.0812  0.3518  0.0369
   19MOL   C140 8096   5.851   1.251   6.041  0.2853  0.1371  0.7812
   19MOL   C141 8097   5.520   1.191   6.061  0.4590  0.4814 -0.5832
   19MOL   H142 8098   5.662   1.155   6.208 -0.5012  0.5233  0.5844
   19MOL   H143 8099   5.798   1.347   6.206  0.1617  0.3707 -0.0026
   19MOL   H144 8100   5.647   1.434   5.957 -0.0838  1.0724 -1.0109
   19MOL   H145 8101   5.629   1.520   6.101 -0.4986 -0.2583 -1.3529
   19MOL   H146 8102   5.840   1.601   6.100 -1.5703 -0.5978  0.8614
   19MOL   H147 8103   5.789   1.627   5.935  0.4391 -1.9179 -1.6928
   19MOL   H148 8104   5.902   1.443   5.832 -0.1542 -0.6364  0.7019
   19MOL   H149 8105   6.023   1.523   5.922 -1.1563  2.2992 -0.2334
   19MOL   H150 8106   6.024   1.358   6.105 -0.4128  1.6804  0.0237
   19MOL   H151 8107   6.032   1.270   5.950  0.1804  0.5936 -0.1324
   19MOL   H152 8108   5.818   1.200   5.950 -0.8128  1.4002  0.4554
   19MOL   H153 8109   5.897   1.179   6.108  2.0833 -1.2134 -1.7807
   19MOL   H154 8110   5.508   1.251   5.970 -0.9333  1.3986  0.1899
   19MOL   H155 8111   5.427   1.202   6.116  0.5727 -2.1187  0.1674
   19MOL   C156 8112   5.537   1.042   6.015  0.1616 -0.3250 -0.2503
   19MOL   C157 8113   5.483   1.002   5.875 -0.8044 -0.0326 -0.1178
   19MOL   C158 8114   5.333   1.045   5.857 -0.4626  0.7238  0.5060
   19MOL   C159 8115   5.278   1.017   5.717 -0.0418  1.2825  0.1652
   19MOL   C160 8116   5.369   1.078   5.609 -0.0302 -0.4811 -1.1930
   19MOL   C161 8117   5.510   1.023   5.622 -0.1274  0.1060 -0.0426
   19MOL   C162 8118   5.572   1.058   5.761 -0.0506  0.1259  1.1507
   19MOL   C163 8119   5.495   0.934   6.124 -0.7591 -0.0806  0.1111
   19MOL   H164 8120   5.644   1.024   6.011  0.5892  1.3164  2.5281
   19MOL   H165 8121   5.484   0.893   5.861 -1.8159  0.1803 -2.0506
   19MOL   H166 8122   5.268   0.993   5.928  0.2601 -1.4296 -0.3503
   19MOL   H167 8123   5.324   1.152   5.876  1.8820  1.4834 -2.2393
   19MOL   H168 8124   5.272   0.910   5.697  3.4195  1.0253  0.2645
   19MOL   H169 8125   5.178   1.051   5.691 -1.1078 -1.5854  0.3164
   19MOL   H170 8126   5.381   1.186   5.620 -1.0357 -0.2811 -1.9008
   19MOL   H171 8127   5.333   1.056   5.508  0.5156 -0.4693 -1.3879
   19MOL   H172 8128   5.568   1.076   5.547  0.6963  1.0456  1.2361
   19MOL   H173 8129   5.512   0.919   5.590  2.1420  0.6317 -1.7849
   19MOL   H174 8130   5.668   1.007   5.752 -0.4806 -0.6532  0.8434
   19MOL   H175 8131   5.597   1.163   5.773  0.8954 -0.1146  1.2808
   19MOL   H176 8132   5.388   0.935   6.147 -0.5436 -0.1160  1.1284
   19MOL   H177 8133   5.547   0.972   6.212 -1.0321 -0.3521  0.3905
   19MOL   C178 8134   5.540   0.783   6.101  0.1708  0.3874 -0.1998
   19MOL   C179 8135   5.692   0.756   6.099  0.1955 -0.5893 -0.0519
   19MOL   C180 8136   5.765   0.823   6.216  0.6130 -0.3789 -0.6783
   19MOL   C181 8137   5.917   0.779   6.218  0.2333  0.1620  0.0247
   19MOL   C182 8138   5.980   0.809   6.080 -0.2098 -0.1343  0.5135
   19MOL   C183 8139   5.913   0.731   5.963 -0.0048 -0.3514  0.3686
   19MOL   C184 8140   5.763   0.765   5.963  0.4386  0.0742  0.3843
   19MOL   C185 8141   5.465   0.694   6.207  0.4787  0.1517 -0.1384
   19MOL   H186 8142   5.498   0.739   6.010 -1.5309  0.7394  0.3953
   19MOL   H187 8143   5.709   0.650   6.120  1.3119 -0.2829  0.6240
   19MOL   H188 8144   5.762   0.932   6.206  1.4681 -0.2738  0.2117
   19MOL   H189 8145   5.718   0.806   6.313 -2.0651 -0.8132 -1.9932
   19MOL   H190 8146   5.920   0.672   6.238 -1.5163 -0.2625 -1.7847
   19MOL   H191 8147   5.978   0.833   6.290  0.0095  0.6661 -0.1588
   19MOL   H192 8148   5.984   0.916   6.064 -0.4329 -0.5132 -2.2946
   19MOL   H193 8149   6.082   0.771   6.088 -0.8649 -2.0663  0.0723
   19MOL   H194 8150   5.913   0.622   5.962 -0.5746 -0.3809 -2.2938
   19MOL   H195 8151   5.951   0.767   5.867 -0.0224 -1.1064  0.0750
   19MOL   H196 8152   5.748   0.862   5.916  2.5163 -0.8681 -2.3825
   19MOL   H197 8153   5.719   0.693   5.894 -0.9707  0.0414  1.3182
   19MOL   H198 8154   5.502   0.591   6.202  0.8300  0.0945  2.7110
   19MOL   H199 8155   5.487   0.737   6.304  0.5897  0.2641 -0.2127
   19MOL   C200 8156   5.307   0.691   6.203 -0.3038  0.0438 -0.0039
   19MOL   C201 8157   5.243   0.689   6.063 -0.4198 -0.2720  0.1032
   19MOL   C202 8158   5.257   0.547   5.993  0.2479  0.6886 -0.3300
   19MOL   C203 8159   5.225   0.559   5.851  0.5275  0.1310 -0.5490
   19MOL   C204 8160   5.078   0.602   5.834  0.0616 -0.1131  0.2674
   19MOL   C205 8161   5.047   0.735   5.905  0.5983  0.2256 -0.6661
   19MOL   C206 8162   5.097   0.736   6.055  0.1433 -0.6872  0.5048
   19MOL   C207 8163   5.246   0.579   6.292  0.1089 -0.2380 -0.4298
   19MOL   H208 8164   5.279   0.787   6.246 -2.0621 -0.0796 -0.8473
   19MOL   H209 8165   5.299   0.754   5.996  0.9618 -0.9769  0.5527
   19MOL   H210 8166   5.197   0.477   6.050 -0.8066  1.1403 -0.8727
   19MOL   H211 8167   5.356   0.502   6.004 -0.6773 -1.2600  0.1133
   19MOL   H212 8168   5.287   0.635   5.804  0.6706  1.1620  1.2554
   19MOL   H213 8169   5.253   0.470   5.794 -0.0815 -0.5082  0.1374
   19MOL   H214 8170   5.059   0.618   5.728  0.8873  3.9576  0.6624
   19MOL   H215 8171   5.008   0.524   5.864 -0.5508  0.5560  0.5848
   19MOL   H216 8172   5.083   0.829   5.863  0.2707  0.4144 -0.5297
   19MOL   H217 8173   4.939   0.738   5.916  0.7592 -0.5246  1.3157
   19MOL   H218 8174   5.083   0.835   6.100 -0.2564 -0.0692 -0.9532
   19MOL   H219 8175   5.034   0.662   6.104  0.2130 -0.5703  0.7739
   19MOL   H220 8176   5.140   0.571   6.271  0.4045  0.6079 -2.3524
   19MOL   H221 8177   5.295   0.490   6.251  0.3651 -0.6316  0.7118
   19MOL   C222 8178   5.255   0.584   6.446 -0.7261 -0.8777  0.4357
   19MOL   C223 8179   5.183   0.708   6.509 -0.1320  0.1377  0.5830
   19MOL   C224 8180   5.199   0.722   6.664 -0.5242  0.3922 -0.1292
   19MOL   C225 8181   5.150   0.861   6.707  0.9501 -0.0155  0.7543
   19MOL   C226 8182   5.002   0.884   6.679 -0.0054 -0.8473 -0.1163
   19MOL   C227 8183   4.978   0.863   6.536 -0.0242 -0.2583  0.2248
   19MOL   C228 8184   5.028   0.726   6.494  0.1133  0.5497  0.0823
   19MOL   C229 8185   5.208   0.449   6.503  1.0022  0.1069  0.4587
   19MOL   H230 8186   5.360   0.598   6.474 -0.3311 -0.9388 -0.9636
   19MOL   H231 8187   5.224   0.790   6.450  2.3940 -1.7745 -0.4253
   19MOL   H232 8188   5.142   0.647   6.718  0.5132 -2.9511 -3.4450
   19MOL   H233 8189   5.305   0.713   6.691 -0.4429  0.0474 -0.5673
   19MOL   H234 8190   5.220   0.933   6.665 -0.1303  1.4308  1.3988
   19MOL   H235 8191   5.161   0.883   6.813 -0.8025 -1.3107  1.2321
   19MOL   H236 8192   4.939   0.815   6.736  0.2263 -0.0834  1.0845
   19MOL   H237 8193   4.969   0.982   6.712 -0.3431 -1.2090  0.6409
   19MOL   H238 8194   5.041   0.934   6.483  0.8932 -1.8781 -0.9133
   19MOL   H239 8195   4.872   0.883   6.518  0.3066  1.0367 -0.3316
   19MOL   H240 8196   4.972   0.643   6.537 -0.6564 -0.9352 -3.5843
   19MOL   H241 8197   5.006   0.729   6.388  0.7996  0.8943 -0.0565
   19MOL   H242 8198   5.102   0.439   6.482  0.6901  0.5740  1.7678
   19MOL   H243 8199   5.210   0.453   6.612  0.4558 -0.3218  0.4897
   19MOL   C244 8200   5.295   0.320   6.465 -0.1951 -0.2159  0.1542
   19MOL   C245 8201   5.236   0.185   6.532  0.2856 -0.5159  0.6557
   19MOL   C246 8202   5.111   0.143   6.455 -0.2561 -0.4962  0.2203
   19MOL   C247 8203   5.074   7.768   6.491  0.4616  0.4291 -0.1190
   19MOL   C248 8204   5.025   0.001   6.641 -0.5255 -0.3975  0.3247
   19MOL   C249 8205   5.141   0.056   6.729  0.3614  0.5833  0.0120
   19MOL   C250 8206   5.205   0.184   6.681  0.1382  0.2129 -0.3842
   19MOL   C251 8207   5.451   0.342   6.502 -0.8006  0.2046 -0.1180
   19MOL   H252 8208   5.285   0.304   6.357 -0.9771 -0.9994  0.3410
   19MOL   H253 8209   5.309   0.110   6.501  0.4054  0.7967 -2.5218
   19MOL   H254 8210   5.124   0.150   6.347  0.2656  1.9737  0.4111
   19MOL   H255 8211   5.022   0.201   6.479  1.1134  1.6186  0.3404
   19MOL   H256 8212   5.000   7.742   6.415 -0.3583  1.0860  0.4437
   19MOL   H257 8213   5.159   7.705   6.464 -0.4842 -0.0987 -2.0028
   19MOL   H258 8214   4.941   0.070   6.655  0.8822  1.7945 -1.5655
   19MOL   H259 8215   4.984   7.674   6.660 -0.3434 -0.4000  0.7020
   19MOL   H260 8216   5.216   7.750   6.718 -1.4610 -1.0829 -0.7985
   19MOL   H261 8217   5.120   0.061   6.836  0.1400 -1.4168  0.0878
   19MOL   H262 8218   5.138   0.262   6.716  0.8002 -0.0553  1.5060
   19MOL   H263 8219   5.301   0.200   6.731  1.0421 -2.1018 -1.3007
   19MOL   H264 8220   5.457   0.357   6.610  1.4639 -1.8770  0.1162
   19MOL   H265 8221   5.480   0.439   6.463  2.2059 -0.1194  1.1538
   19MOL   C266 8222   5.571   0.252   6.463  0.3331 -0.4907  0.2116
   19MOL   C267 8223   5.550   0.207   6.311  0.4027 -0.2389 -0.1937
   19MOL   C268 8224   5.623   0.069   6.275  0.5844  0.4477  0.3467
   19MOL   C269 8225   5.580   0.020   6.134 -0.2455 -0.4197  0.0671
   19MOL   C270 8226   5.627   0.123   6.034 -0.1960  0.4107 -0.2735
   19MOL   C271 8227   5.552   0.258   6.069 -0.0383  0.0129  0.0245
   19MOL   C272 8228   5.567   0.313   6.210  0.1769 -0.4085 -0.0096
   19MOL   C273 8229   5.710   0.325   6.488 -0.6031 -0.7932 -0.2862
   19MOL   H274 8230   5.562   0.162   6.523 -0.0016 -0.4523  0.2228
   19MOL   H275 8231   5.450   0.164   6.312  0.3052 -0.0249 -1.0499
   19MOL   H276 8232   5.726   0.090   6.303  0.1376  1.0983  1.5805
   19MOL   H277 8233   5.615   0.000   6.359  0.9369  0.4344  0.3661
   19MOL   H278 8234   5.471   0.016   6.137 -0.1937 -0.8137  2.0201
   19MOL   H279 8235   5.620   7.695   6.108  1.9536  0.9451 -1.7743
   19MOL   H280 8236   5.734   0.140   6.038 -0.1348 -0.2318  1.2124
   19MOL   H281 8237   5.614   0.078   5.936 -0.1268 -2.0143  0.7921
   19MOL   H282 8238   5.449   0.245   6.036 -0.0614  0.7394 -0.1929
   19MOL   H283 8239   5.580   0.334   5.996 -3.7158  1.6648  0.2376
   19MOL   H284 8240   5.489   0.384   6.235 -0.6303 -0.9566 -0.9152
   19MOL   H285 8241   5.662   0.366   6.213 -1.4692  2.5599  1.1321
   19MOL   H286 8242   5.716   0.409   6.419  0.7377 -1.8142 -1.4370
   19MOL   H287 8243   5.781   0.254   6.447  0.7215 -0.1036  0.7868
   19MOL   C288 8244   5.736   0.375   6.630  0.2859 -0.3082 -0.3561
   19MOL   C289 8245   5.860   0.467   6.626 -0.6174  0.3956  0.5655
   19MOL   C290 8246   5.982   0.395   6.561  0.0379  0.1267  0.7915
   19MOL   C291 8247   6.111   0.480   6.580  0.9085 -0.3735  0.0001
   19MOL   C292 8248   6.093   0.612   6.514  0.0456  0.0739  0.0580
   19MOL   C293 8249   5.974   0.692   6.563  0.3566 -0.8111 -0.5825
   19MOL   C294 8250   5.842   0.608   6.560 -0.3782  0.3857  0.1811
   19MOL   C295 8251   5.766   0.263   6.727  0.4258  0.5461  0.5038
   19MOL   H296 8252   5.656   0.442   6.663 -0.2900 -1.2732  0.2278
   19MOL   H297 8253   5.884   0.482   6.731  0.5703 -0.4748  0.4253
   19MOL   H298 8254   6.004   0.300   6.609  0.3863 -0.3208 -0.2440
   19MOL   H299 8255   5.970   0.380   6.453  1.5399 -2.0483  0.8886
   19MOL   H300 8256   6.121   0.500   6.686  0.7017  0.2381 -0.0943
   19MOL   H301 8257   6.206   0.434   6.552  0.2462 -1.3866 -0.6268
   19MOL   H302 8258   6.076   0.591   6.409 -1.2037 -1.3503  0.5332
   19MOL   H303 8259   6.185   0.671   6.520  0.4808 -0.2781 -2.5903
   19MOL   H304 8260   5.977   0.793   6.522  1.3551 -0.5678  0.0734
   19MOL   H305 8261   5.993   0.710   6.669 -1.0556 -1.3059 -0.2397
   19MOL   H306 8262   5.800   0.604   6.459 -1.1870  0.8379  0.5011
   19MOL   H307 8263   5.761   0.652   6.617 -0.3985  0.9701 -0.2977
   19MOL   H308 8264   5.767   0.170   6.670  0.0823  1.6383 -1.3189
   19MOL   H309 8265   5.867   0.272   6.767  0.0089  0.0469  1.6823
   19MOL   C310 8266   5.663   0.256   6.847 -0.0934 -0.1892 -0.9804
   19MOL   C311 8267   5.652   0.118   6.913 -0.6528  0.1312 -0.1365
   19MOL   C312 8268   5.603   0.006   6.815 -0.9577 -0.2696  0.8108
   19MOL   C313 8269   5.549   7.663   6.897  0.1290  0.0549  0.0524
   19MOL   C314 8270   5.650   7.603   7.003  0.1577 -0.4698 -0.5499
   19MOL   C315 8271   5.715   7.716   7.083  0.5056  0.3502 -0.3335
   19MOL   C316 8272   5.759   0.068   7.003 -0.3592  0.3396 -0.7669
   19MOL   C317 8273   5.690   0.370   6.952 -0.3595 -0.4449  0.9627
   19MOL   H318 8274   5.569   0.285   6.799 -1.3565 -1.2954  0.7655
   19MOL   H319 8275   5.559   0.140   6.967 -0.5471 -0.3437  0.2372
   19MOL   H320 8276   5.520   0.041   6.754 -1.4929  0.7343  2.0930
   19MOL   H321 8277   5.680   7.741   6.748 -0.5278 -1.6256  2.0059
   19MOL   H322 8278   5.514   7.584   6.831  0.1519 -0.3378  0.5107
   19MOL   H323 8279   5.460   7.695   6.950 -1.0405 -1.6040 -0.8648
   19MOL   H324 8280   5.606   7.527   7.066 -0.3288  0.4798  0.2728
   19MOL   H325 8281   5.728   7.548   6.949  0.7376 -2.5023  2.2517
   19MOL   H326 8282   5.632   7.737   7.150 -0.0580 -1.4851 -0.4330
   19MOL   H327 8283   5.799   7.683   7.145 -1.1870  0.6680  2.1928
   19MOL   H328 8284   5.845   0.042   6.941  1.3630 -1.4438  2.2734
   19MOL   H329 8285   5.793   0.143   7.075 -0.3887 -0.9329  0.5829
   19MOL   H330 8286   5.694   0.457   6.886  0.6699 -2.1894 -1.3610
   19MOL   H331 8287   5.790   0.341   6.982 -0.4855 -0.2667  1.5495
   19MOL   C332 8288   5.602   0.393   7.078 -0.0872 -0.3514 -0.8288
   19MOL   C333 8289   5.450   0.427   7.043 -0.4535 -0.0704 -0.5099
   19MOL   C334 8290   5.424   0.573   6.997 -0.1361 -0.2343 -0.4043
   19MOL   C335 8291   5.270   0.592   6.988 -0.2259 -0.4179  0.2978
   19MOL   C336 8292   5.190   0.556   7.114  0.2508  0.4899 -0.1938
   19MOL   C337 8293   5.214   0.408   7.140  0.6062 -0.3413 -0.5427
   19MOL   C338 8294   5.364   0.385   7.165 -0.0436 -0.4588 -0.3735
   19MOL   C339 8295   5.663   0.498   7.174  0.4326  0.2649  0.3322
   19MOL   H340 8296   5.614   0.306   7.142 -0.7311  1.6253  2.1044
   19MOL   H341 8297   5.415   0.359   6.964  0.8305  0.1720 -1.2968
   19MOL   H342 8298   5.471   0.640   7.069  0.0223  1.3829 -1.9827
   19MOL   H343 8299   5.482   0.591   6.906  1.5217  0.7602  0.8076
   19MOL   H344 8300   5.253   0.699   6.973  0.7639 -0.4761 -1.3624
   19MOL   H345 8301   5.221   0.548   6.901  0.5125  1.3539 -1.0567
   19MOL   H346 8302   5.211   0.621   7.198  2.1637  1.7337 -1.5798
   19MOL   H347 8303   5.084   0.561   7.087  0.9259  3.2115 -2.6042
   19MOL   H348 8304   5.183   0.347   7.055  0.5993  0.6113 -1.2331
   19MOL   H349 8305   5.153   0.387   7.228 -0.8935  1.2611 -1.1873
   19MOL   H350 8306   5.385   0.279   7.177  1.4024 -0.0444  0.8165
   19MOL   H351 8307   5.400   0.419   7.262 -1.9403 -0.1202  0.2404
   19MOL   H352 8308   5.593   0.530   7.251  0.9125  0.0335  0.8804
   19MOL   H353 8309   5.680   0.588   7.115 -0.6474  0.8535  0.9048
   19MOL   C354 8310   5.792   0.451   7.256  0.1935  0.1675 -0.3217
   19MOL   C355 8311   5.759   0.382   7.396 -0.0685  0.3181  0.4702
   19MOL   C356 8312   5.702   0.239   7.393  0.0609  0.5741 -0.5873
   19MOL   C357 8313   5.700   0.167   7.533 -0.3701 -0.9239  0.2183
   19MOL   C358 8314   5.624   0.258   7.638  0.5287  0.1729  0.8445
   19MOL   C359 8315   5.677   0.404   7.645  1.2629  0.9810  0.1163
   19MOL   C360 8316   5.672   0.458   7.502 -0.1408 -0.1420  0.1309
   19MOL   C361 8317   5.893   0.563   7.268  0.4597 -0.3320  0.4330
   19MOL   H362 8318   5.835   0.366   7.202 -2.4058 -1.2134 -0.3096
   19MOL   H363 8319   5.857   0.368   7.441 -0.9490 -0.9452  2.0218
   19MOL   H364 8320   5.759   0.171   7.329 -3.2644  0.5737 -3.7576
   19MOL   H365 8321   5.600   0.242   7.355 -0.1318  1.5898  0.0034
   19MOL   H366 8322   5.643   0.074   7.546 -0.7494 -0.7414 -0.1367
   19MOL   H367 8323   5.800   0.143   7.567  0.3888  0.1406 -1.2243
   19MOL   H368 8324   5.517   0.254   7.617  0.9142  0.3704 -1.3525
   19MOL   H369 8325   5.634   0.214   7.737  0.8664 -2.0595 -0.1437
   19MOL   H370 8326   5.630   0.464   7.723  1.9504 -0.2454  1.5026
   19MOL   H371 8327   5.782   0.388   7.671  0.7861  0.2190  1.6529
   19MOL   H372 8328   5.693   0.564   7.515  0.7702 -0.2092 -0.7088
   19MOL   H373 8329   5.568   0.459   7.468 -0.6940 -0.3321  1.7733
   19MOL   H374 8330   5.936   0.550   7.367  3.0085 -1.0419 -0.7273
   19MOL   H375 8331   5.854   0.665   7.261  0.0073 -0.7421 -4.5520
   19MOL   C376 8332   6.014   0.553   7.172  0.7396 -1.0716  0.0762
   19MOL   C377 8333   6.044   0.674   7.077  0.2532 -0.7583 -1.0487
   19MOL   C378 8334   6.097   0.794   7.162  0.1275  0.6446 -0.6011
   19MOL   C379 8335   6.120   0.916   7.076 -0.2479  0.8618 -0.0541
   19MOL   C380 8336   5.985   0.955   7.011 -0.7754  0.3125  0.2939
   19MOL   C381 8337   5.938   0.848   6.921 -0.2716  0.1950  0.3395
   19MOL   C382 8338   5.914   0.721   7.004 -0.5005 -0.0300 -0.7157
   19MOL   C383 8339   6.142   0.499   7.240  0.0823  0.2058  0.4604
   19MOL   H384 8340   5.993   0.485   7.089  0.7724  0.5742 -1.3038
   19MOL   H385 8341   6.121   0.641   7.008  0.5895 -1.2645 -0.4359
   19MOL   H386 8342   6.024   0.807   7.242 -1.2322  1.3024 -1.9067
   19MOL   H387 8343   6.188   0.769   7.215 -0.1459  1.6398  0.3594
   19MOL   H388 8344   6.194   0.882   7.004  0.1638 -1.2991  1.3480
   19MOL   H389 8345   6.164   0.997   7.133 -0.3876  0.7632  0.1950
   19MOL   H390 8346   5.896   0.972   7.071 -0.2546  0.4086  1.0465
   19MOL   H391 8347   6.001   1.048   6.957  0.4719  0.0112  0.1380
   19MOL   H392 8348   5.845   0.870   6.867 -0.1782 -2.0349 -0.7870
   19MOL   H393 8349   6.012   0.831   6.843  0.2108 -1.1482  1.0751
   19MOL   H394 8350   5.827   0.749   7.063 -0.1434  2.9272 -1.4760
   19MOL   H395 8351   5.883   0.640   6.938 -0.7470 -1.0959  0.6877
   19MOL   H396 8352   6.171   0.564   7.322 -0.6188 -1.0428  1.7130
   19MOL   H397 8353   6.223   0.516   7.170  1.0122 -0.7878  1.2950
   19MOL   C398 8354   6.143   0.354   7.291 -0.3760  0.1416 -0.4913
   19MOL   C399 8355   6.197   0.252   7.179 -0.6291 -0.0084 -0.2432
   19MOL   C400 8356   6.351   0.268   7.167  0.3583  0.2921 -0.0138
   19MOL   C401 8357   6.412   0.187   7.058  0.2598 -0.6883  0.3544
   19MOL   C402 8358   6.375   0.035   7.063  0.1977  0.1260 -0.2057
   19MOL   C403 8359   6.226   0.025   7.074 -0.1145 -0.8453  0.7682
   19MOL   C404 8360   6.163   0.104   7.192  0.2610 -0.1925  0.5451
   19MOL   C405 8361   6.225   0.332   7.425  0.2670  0.4910 -0.0733
   19MOL   H406 8362   6.036   0.346   7.311 -0.4700  0.9318 -0.6559
   19MOL   H407 8363   6.162   0.287   7.082 -0.5593 -0.4868 -0.4427
   19MOL   H408 8364   6.408   0.227   7.251 -0.3023  2.4091  1.5295
   19MOL   H409 8365   6.390   0.370   7.165  1.1654 -0.0286 -0.6425
   19MOL   H410 8366   6.520   0.197   7.063  0.0631  2.2278  0.0187
   19MOL   H411 8367   6.381   0.219   6.958  0.9440 -0.4351  0.2228
   19MOL   H412 8368   6.417   7.762   7.152  2.0567 -0.6346 -1.4326
   19MOL   H413 8369   6.423   7.749   6.984  2.2110 -0.1512  1.2103
   19MOL   H414 8370   6.183   0.046   6.976 -0.3510 -1.9762  0.6227
   19MOL   H415 8371   6.205   7.692   7.095 -0.5374 -0.5429  1.8627
   19MOL   H416 8372   6.059   0.073   7.202 -0.4483  1.9919  0.1691
   19MOL   H417 8373   6.205   0.069   7.287 -0.8915  2.7389  2.2309
   19MOL   H418 8374   6.244   0.225   7.440 -2.0765 -0.2474 -1.9787
   19MOL   H419 8375   6.314   0.390   7.403 -0.0358  0.5366 -1.2464
   19MOL   C420 8376   6.148   0.386   7.550  0.3966 -0.7292 -0.2588
   19MOL   C421 8377   6.238   0.483   7.638 -0.1440 -0.1326 -1.0514
   19MOL   C422 8378   6.253   0.628   7.583 -0.1939 -0.2559  0.4231
   19MOL   C423 8379   6.320   0.714   7.690  0.0293 -0.3126 -0.0781
   19MOL   C424 8380   6.451   0.664   7.736  0.7895 -0.6577 -0.3250
   19MOL   C425 8381   6.452   0.518   0.005 -0.8027  0.3444 -0.8457
   19MOL   C426 8382   6.385   0.434   7.676  0.0664  0.5686 -0.1352
   19MOL   C427 8383   6.090   0.266   7.633  0.3743  0.4080  0.6302
   19MOL   H428 8384   6.056   0.432   7.513 -0.1533  0.3553  2.3547
   19MOL   H429 8385   6.188   0.498   7.733  0.2978  0.7131 -0.9423
   19MOL   H430 8386   6.326   0.613   7.503 -1.8527  0.6875 -1.3205
   19MOL   H431 8387   6.157   0.667   7.549 -0.8516 -1.3810  0.9707
   19MOL   H432 8388   6.340   0.813   7.649  0.8892 -0.4639 -0.0217
   19MOL   H433 8389   6.261   0.717   0.009 -0.1465 -0.0958 -0.1976
   19MOL   H434 8390   6.475   0.717   0.056  0.0177 -0.8879  0.0174
   19MOL   H435 8391   6.528   0.691   7.663 -0.6938 -0.3126 -1.8024
   19MOL   H436 8392   6.412   0.506   0.106  0.2234  0.8356 -0.3719
   19MOL   H437 8393   6.554   0.490   0.031 -0.3015  1.9823 -0.9767
   19MOL   H438 8394   6.447   0.417   7.588 -0.4557  2.2799 -0.8621
   19MOL   H439 8395   6.360   0.340   7.726  0.6292  1.0130  0.9904
   19MOL   H440 8396   6.169   0.215   7.689  1.1542  2.1526  1.1510
   19MOL   H441 8397   6.022   0.312   7.704 -0.4801 -0.6078  0.4725
   19MOL   H442 8398   6.032   0.189   7.582 -1.1381  1.2533  1.0494
   20MOL     C1 8399   0.249   5.526   5.002  0.2699 -0.1841  0.2991
   20MOL     C2 8400   0.105   5.477   5.008 -0.0891 -0.2779 -0.0471
   20MOL     C3 8401   0.091   5.325   5.013 -0.1217  0.0449 -0.3071
   20MOL     C4 8402   7.723   5.265   4.972 -0.1291  0.4647 -0.3434
   20MOL     C5 8403   7.674   5.331   4.845 -0.7447 -0.3640  0.1053
   20MOL     C6 8404   7.664   5.484   4.866 -0.5925  0.6436  0.2703
   20MOL     C7 8405   0.033   5.545   4.896  0.7304 -0.6780  0.3269
   20MOL     C8 8406   0.327   5.488   5.127  0.9369 -0.2552 -0.2271
   20MOL     H9 8407   0.290   5.471   4.917 -1.4095 -1.4346  0.2830
   20MOL    H10 8408   0.071   5.534   5.095 -2.6492 -0.4824 -0.8590
   20MOL    H11 8409   0.151   5.289   4.929  0.5229  1.1672 -0.3404
   20MOL    H12 8410   0.111   5.277   5.109 -2.0658 -1.7433 -0.7773
   20MOL    H13 8411   7.647   5.290   5.047 -1.3159 -1.4955 -0.8491
   20MOL    H14 8412   7.723   5.156   4.964 -0.6157  0.3722  0.7740
   20MOL    H15 8413   7.571   5.296   4.837 -0.7803 -0.3484  0.4888
   20MOL    H16 8414   7.724   5.310   4.750  1.4710 -0.0255  1.1885
   20MOL    H17 8415   7.620   5.532   4.779  0.9148  1.3780 -0.1175
   20MOL    H18 8416   7.594   5.500   4.948 -4.2507  1.8960 -2.9741
   20MOL    H19 8417   0.025   5.650   4.922  0.8875 -0.8355  1.0317
   20MOL    H20 8418   0.088   5.557   4.803 -0.4346  2.0889 -0.0407
   20MOL    H21 8419   0.334   5.380   5.138  1.3624 -0.4844 -2.5842
   20MOL    H22 8420   0.268   5.520   5.213 -1.2522  0.2089 -1.8470
   20MOL    H23 8421   0.249   5.632   4.977  0.3590 -0.1106  0.6088
   20MOL    C24 8422   0.471   5.547   5.137  0.5299  0.7539 -0.0125
   20MOL    C25 8423   0.468   5.701   5.157  0.6366  0.1069  0.0898
   20MOL    C26 8424   0.610   5.757   5.125 -0.0360  0.5426 -0.1052
   20MOL    C27 8425   0.607   5.916   5.123 -0.4919  0.2577  0.5641
   20MOL    C28 8426   0.561   5.974   5.260 -0.4347  0.0756 -0.1772
   20MOL    C29 8427   0.434   5.908   5.308  0.5999  0.1796  0.1128
   20MOL    C30 8428   0.430   5.754   5.302  0.0673 -0.0481  0.4115
   20MOL    C31 8429   0.539   5.478   5.251 -1.3757  0.2350 -0.1230
   20MOL    H32 8430   0.521   5.539   5.041  0.5878  2.2843 -0.1177
   20MOL    H33 8431   0.404   5.747   5.082 -2.8371 -3.1637  0.8818
   20MOL    H34 8432   0.647   5.722   5.029 -0.0143 -1.6133  0.6679
   20MOL    H35 8433   0.691   5.720   5.188 -1.1950  2.4003  2.5810
   20MOL    H36 8434   0.708   5.951   5.104 -1.0663  2.4098  1.3521
   20MOL    H37 8435   0.541   5.932   5.037  1.5519  1.0890 -0.9011
   20MOL    H38 8436   0.558   6.083   5.257 -2.7421  0.0903  1.4498
   20MOL    H39 8437   0.647   5.957   5.326 -0.6076  0.2008  0.0806
   20MOL    H40 8438   0.402   5.940   5.408  0.1297  1.0382 -0.3101
   20MOL    H41 8439   0.352   5.949   5.249  0.1722  0.5150  0.9157
   20MOL    H42 8440   0.494   5.717   5.381  0.0690  0.2880  0.5681
   20MOL    H43 8441   0.325   5.731   5.319 -0.6345  3.1155  0.7502
   20MOL    H44 8442   0.482   5.497   5.342 -0.2908  2.1532  0.1730
   20MOL    H45 8443   0.631   5.530   5.277 -1.0065  1.2575 -3.3376
   20MOL    C46 8444   0.575   5.328   5.211 -0.3910 -0.8072 -0.2144
   20MOL    C47 8445   0.545   5.230   5.330  0.8543  0.2442 -0.1397
   20MOL    C48 8446   0.398   5.214   5.365  0.3051  0.0354 -0.3759
   20MOL    C49 8447   0.381   5.108   5.471 -0.1115 -0.5656 -0.3985
   20MOL    C50 8448   0.462   5.146   5.597 -0.5443  0.7263 -0.4199
   20MOL    C51 8449   0.617   5.163   5.570  0.5217  0.6910 -0.0027
   20MOL    C52 8450   0.635   5.267   5.451  0.5969 -0.2306 -0.2705
   20MOL    C53 8451   0.724   5.314   5.166 -0.1397 -0.2160  0.3524
   20MOL    H54 8452   0.519   5.288   5.127 -0.6222 -3.0752  1.0100
   20MOL    H55 8453   0.569   5.131   5.292  2.2694  1.3581 -2.2609
   20MOL    H56 8454   0.362   5.307   5.409 -0.6626 -0.4295 -0.1565
   20MOL    H57 8455   0.339   5.192   5.276 -0.3483 -0.5354  0.1866
   20MOL    H58 8456   0.416   5.013   5.432  1.9746 -0.7181  1.7389
   20MOL    H59 8457   0.275   5.100   5.494 -0.3386 -1.5158 -1.7522
   20MOL    H60 8458   0.426   5.239   5.640  0.1101  0.7058  0.2079
   20MOL    H61 8459   0.440   5.071   5.673 -1.0725  2.0189  0.7269
   20MOL    H62 8460   0.655   5.067   5.536  2.3587  0.0586  3.6514
   20MOL    H63 8461   0.681   5.191   5.653  1.1534 -2.8951  0.7748
   20MOL    H64 8462   0.611   5.368   5.486 -1.6846  0.2850 -3.0837
   20MOL    H65 8463   0.736   5.277   5.411 -0.1321  0.8776 -1.8698
   20MOL    H66 8464   0.740   5.208   5.181 -0.8376 -0.3106  0.4580
   20MOL    H67 8465   0.789   5.371   5.232 -2.1280  1.4709  0.9197
   20MOL    C68 8466   0.744   5.345   5.010 -0.3438 -0.5757  0.2880
   20MOL    C69 8467   0.832   5.467   4.989 -0.3766  0.3747 -0.4381
   20MOL    C70 8468   0.983   5.441   5.025 -0.2405  0.0497 -0.1356
   20MOL    C71 8469   1.070   5.566   5.006  0.9109  0.0297  1.1181
   20MOL    C72 8470   1.053   5.612   4.859 -0.1993  0.1780 -0.5273
   20MOL    C73 8471   0.909   5.638   4.822  0.1283  0.0796  0.6212
   20MOL    C74 8472   0.823   5.515   4.838 -0.0287 -0.1314  0.5749
   20MOL    C75 8473   0.782   5.219   4.930  0.1630 -0.1461  0.4641
   20MOL    H76 8474   0.649   5.384   4.974 -0.6240 -2.1113 -0.6968
   20MOL    H77 8475   0.805   5.547   5.058  0.1678 -0.8811  1.2735
   20MOL    H78 8476   1.016   5.362   4.957 -0.5606  0.7509 -1.1174
   20MOL    H79 8477   0.986   5.405   5.128 -0.5261 -0.2587 -0.2336
   20MOL    H80 8478   1.037   5.644   5.074 -1.5568 -0.8290  0.9616
   20MOL    H81 8479   1.176   5.559   5.031  0.9733  2.6406  1.7080
   20MOL    H82 8480   1.092   5.536   4.791  3.6268  0.5971  1.1046
   20MOL    H83 8481   1.106   5.706   4.844 -2.1445  1.3928  0.0112
   20MOL    H84 8482   0.911   5.677   4.721  1.3388 -1.9991 -0.1875
   20MOL    H85 8483   0.862   5.714   4.885 -0.7232 -1.7114  2.1923
   20MOL    H86 8484   0.869   5.446   4.768 -0.4483  0.6082 -0.4414
   20MOL    H87 8485   0.721   5.534   4.806  0.8452  1.2409 -1.5406
   20MOL    H88 8486   0.850   5.230   4.846  0.8523  1.5256  1.2263
   20MOL    H89 8487   0.839   5.151   4.994  0.0495 -0.9321 -0.2472
   20MOL    C90 8488   0.669   5.132   4.873 -0.0721 -0.1504  0.3830
   20MOL    C91 8489   0.570   5.202   4.770  0.3315 -0.1983 -0.3334
   20MOL    C92 8490   0.641   5.225   4.634 -0.3397 -0.6213 -0.3976
   20MOL    C93 8491   0.546   5.308   4.546 -0.1056 -0.3529  0.0873
   20MOL    C94 8492   0.399   5.250   4.538 -0.0139  0.0288 -0.2915
   20MOL    C95 8493   0.341   5.227   4.679 -0.1218  0.9674  0.2764
   20MOL    C96 8494   0.434   5.134   4.757 -0.0856  0.2237  0.0380
   20MOL    C97 8495   0.723   4.992   4.831 -0.0891  0.7151  0.1558
   20MOL    H98 8496   0.598   5.102   4.950 -0.1238 -0.8010  0.0895
   20MOL    H99 8497   0.556   5.304   4.805 -1.2091 -0.4889 -0.0824
   20MOL   H100 8498   0.658   5.134   4.576 -1.7931 -0.7279 -0.6899
   20MOL   H101 8499   0.729   5.286   4.650 -0.6515 -0.1722 -0.3841
   20MOL   H102 8500   0.598   5.311   4.451  0.9207  3.3574  0.6995
   20MOL   H103 8501   0.554   5.408   4.588 -1.0510 -0.1681 -0.1660
   20MOL   H104 8502   0.405   5.156   4.483  2.1755  0.8273 -1.5021
   20MOL   H105 8503   0.338   5.309   4.470 -0.1973 -1.0790 -1.1103
   20MOL   H106 8504   0.333   5.325   4.726  1.1626 -0.1905  3.0008
   20MOL   H107 8505   0.244   5.179   4.669 -0.4776  1.8263 -0.5166
   20MOL   H108 8506   0.388   5.099   4.850  0.3394 -1.6683 -0.4478
   20MOL   H109 8507   0.434   5.039   4.704  0.8626  0.5917 -0.6312
   20MOL   H110 8508   0.639   4.926   4.808 -0.0829  0.6646  0.2799
   20MOL   H111 8509   0.780   5.019   4.742  0.3006  0.1379  0.2298
   20MOL   C112 8510   0.809   4.907   4.928  0.0037 -0.0553 -0.0631
   20MOL   C113 8511   0.867   4.781   4.862 -0.5815  0.6355 -0.4421
   20MOL   C114 8512   0.779   4.658   4.866  0.5993 -0.2279  0.1571
   20MOL   C115 8513   0.831   4.547   4.769  0.1654 -0.4367 -0.7239
   20MOL   C116 8514   0.973   4.504   4.812  0.1150 -0.3179  0.4764
   20MOL   C117 8515   1.063   4.630   4.812  0.0270  0.7177  0.1897
   20MOL   C118 8516   1.007   4.737   4.906 -0.1944 -0.9181 -0.3320
   20MOL   C119 8517   0.735   4.886   5.064  1.1515  0.8987 -0.0889
   20MOL   H120 8518   0.900   4.963   4.951  0.6084 -1.0796  0.0958
   20MOL   H121 8519   0.881   4.812   4.758 -1.9562 -1.7061 -1.3864
   20MOL   H122 8520   0.676   4.685   4.846  0.8238 -1.2850 -2.8316
   20MOL   H123 8521   0.784   4.617   4.967  1.1873 -2.5529 -0.7624
   20MOL   H124 8522   0.774   4.455   4.782 -0.4171  0.0802  0.5195
   20MOL   H125 8523   0.834   4.572   4.663  3.3157 -1.3263 -0.9050
   20MOL   H126 8524   0.962   4.457   4.910  0.6063 -0.7444  0.3315
   20MOL   H127 8525   0.998   4.423   4.743 -1.8144 -1.0080  0.5767
   20MOL   H128 8526   1.166   4.608   4.838 -0.6070 -1.1301  1.2181
   20MOL   H129 8527   1.065   4.670   4.711 -0.3227 -1.2585 -0.6208
   20MOL   H130 8528   1.069   4.824   4.924 -4.2088  1.8874  0.6101
   20MOL   H131 8529   1.004   4.684   5.002  1.4267  2.1604  1.4725
   20MOL   H132 8530   0.654   4.814   5.049  1.3221  0.6248  0.3050
   20MOL   H133 8531   0.694   4.982   5.097  1.3625  0.7474  0.6230
   20MOL   C134 8532   0.815   4.828   5.186 -0.7080 -0.2644 -0.3730
   20MOL   C135 8533   0.735   4.750   5.301 -0.3162 -0.4325  0.0984
   20MOL   C136 8534   0.686   4.607   5.268  0.1053  0.0270  0.3359
   20MOL   C137 8535   0.645   4.532   5.395 -0.1095 -0.0711 -0.1350
   20MOL   C138 8536   0.548   4.624   5.478 -0.1504  0.2556 -0.5145
   20MOL   C139 8537   0.583   4.773   5.496  0.9470 -0.2613  0.1565
   20MOL   C140 8538   0.631   4.838   5.366  0.0465 -0.1070  0.2070
   20MOL   C141 8539   0.903   4.945   5.245 -0.0130 -0.5240 -0.2850
   20MOL   H142 8540   0.888   4.760   5.143  2.2393  2.3661  0.1998
   20MOL   H143 8541   0.813   4.736   5.376 -0.5691  1.6526  0.7784
   20MOL   H144 8542   0.608   4.619   5.192  1.8284  0.8782 -1.3593
   20MOL   H145 8543   0.766   4.561   5.208 -0.3284  1.1126 -1.1141
   20MOL   H146 8544   0.733   4.493   5.445 -2.1830 -2.0847  2.1285
   20MOL   H147 8545   0.594   4.442   5.361  0.4134 -0.9092  1.2712
   20MOL   H148 8546   0.453   4.618   5.426  0.7317 -0.5819 -2.0614
   20MOL   H149 8547   0.537   4.584   5.579  0.3371  1.3189 -0.0259
   20MOL   H150 8548   0.653   4.783   5.579  2.1901  2.6371 -1.1862
   20MOL   H151 8549   0.496   4.832   5.521  1.5366  0.8091 -0.2923
   20MOL   H152 8550   0.546   4.859   5.301 -0.7571  1.2323  1.6355
   20MOL   H153 8551   0.684   4.931   5.383 -1.1962  0.8553 -1.0687
   20MOL   H154 8552   0.842   5.029   5.280 -0.4407  0.1903 -2.6890
   20MOL   H155 8553   0.943   5.002   5.162 -0.5517 -2.4625 -1.9111
   20MOL   C156 8554   1.013   4.921   5.341 -0.2144 -0.0948 -0.7754
   20MOL   C157 8555   1.062   5.050   5.413  0.6787  0.4442  0.1491
   20MOL   C158 8556   1.079   5.174   5.319 -0.0200  0.1189 -0.0103
   20MOL   C159 8557   1.147   5.296   5.392 -0.1847 -0.5411  0.1585
   20MOL   C160 8558   1.069   5.329   5.520 -0.1956  0.0321  0.2727
   20MOL   C161 8559   1.040   5.205   5.606 -0.2855 -0.8408 -0.1649
   20MOL   C162 8560   0.972   5.090   5.525  0.6845  0.3408  1.0212
   20MOL   C163 8561   1.128   4.849   5.274 -0.5363 -0.3122  0.5547
   20MOL   H164 8562   0.972   4.845   5.408  2.2902 -2.0296 -1.3731
   20MOL   H165 8563   1.160   5.031   5.458  1.2575  0.4337 -1.0755
   20MOL   H166 8564   1.136   5.143   5.231 -1.4926  0.1754 -0.9940
   20MOL   H167 8565   0.978   5.210   5.298 -0.4137 -0.8493  0.2297
   20MOL   H168 8566   1.252   5.272   5.411  0.0851 -0.5561 -1.2949
   20MOL   H169 8567   1.144   5.390   5.337 -2.4947  0.1344  1.3762
   20MOL   H170 8568   0.975   5.379   5.497 -0.6320 -0.5846  0.7094
   20MOL   H171 8569   1.126   5.407   5.571  0.0466 -0.4469  0.7473
   20MOL   H172 8570   0.998   5.224   5.704  0.7442  0.0623  0.1120
   20MOL   H173 8571   1.136   5.162   5.635  0.1953  0.2975 -0.0739
   20MOL   H174 8572   0.954   5.003   5.587 -0.6483 -0.2997 -0.2299
   20MOL   H175 8573   0.876   5.134   5.497 -0.0805 -0.1113  2.8338
   20MOL   H176 8574   1.185   4.900   5.196  1.2109 -1.3383  1.1121
   20MOL   H177 8575   1.088   4.782   5.198 -0.8435  0.3252  0.1611
   20MOL   C178 8576   1.222   4.776   5.385  0.0427 -0.8284 -0.3275
   20MOL   C179 8577   1.187   4.622   5.394  0.5117 -0.3022  0.2356
   20MOL   C180 8578   1.260   4.549   5.508 -0.3936 -0.4981 -0.8571
   20MOL   C181 8579   1.195   4.411   5.517 -0.0699  0.2868  0.4271
   20MOL   C182 8580   1.212   4.327   5.392  0.2290 -0.0917 -0.2183
   20MOL   C183 8581   1.156   4.403   5.275  0.2944  0.2884  0.0681
   20MOL   C184 8582   1.212   4.544   5.267  0.3155 -0.3188 -0.1902
   20MOL   C185 8583   1.372   4.802   5.362 -0.2064 -0.5896 -0.2830
   20MOL   H186 8584   1.205   4.811   5.487  1.7572  0.4920 -0.4773
   20MOL   H187 8585   1.082   4.617   5.420  0.2418  2.4786 -0.1684
   20MOL   H188 8586   1.366   4.522   5.496 -0.7744 -1.4540 -2.2366
   20MOL   H189 8587   1.232   4.593   5.603  0.7609 -1.0950 -0.2238
   20MOL   H190 8588   1.087   4.421   5.531 -0.1883 -0.2576 -0.0733
   20MOL   H191 8589   1.238   4.349   5.596 -0.0863  0.7055  0.7649
   20MOL   H192 8590   1.319   4.311   5.374  0.4662  1.5913 -0.3600
   20MOL   H193 8591   1.156   4.233   5.387 -1.2129  0.8455 -2.1333
   20MOL   H194 8592   1.047   4.409   5.276  0.3480  1.3068  1.3720
   20MOL   H195 8593   1.186   4.354   5.182 -0.4376  0.1311 -0.0870
   20MOL   H196 8594   1.319   4.534   5.250  0.0022 -1.7511 -1.3892
   20MOL   H197 8595   1.162   4.604   5.191 -1.9154 -0.0309  1.4546
   20MOL   H198 8596   1.438   4.724   5.400  1.2044  0.6694 -0.1398
   20MOL   H199 8597   1.386   4.781   5.256 -1.2057 -0.2681 -0.4848
   20MOL   C200 8598   1.425   4.940   5.386 -0.3282  0.2316  0.6999
   20MOL   C201 8599   1.471   4.959   5.531  0.6579 -0.5851  0.8366
   20MOL   C202 8600   1.376   4.914   5.644  0.6367  0.3065 -0.3965
   20MOL   C203 8601   1.432   4.961   5.774  0.1080 -0.4330 -0.3291
   20MOL   C204 8602   1.580   4.895   5.804 -0.0415 -0.9090 -0.4513
   20MOL   C205 8603   1.672   4.932   5.691 -0.3298  0.0790  0.2345
   20MOL   C206 8604   1.610   4.891   5.553 -0.0806 -0.2836  0.0101
   20MOL   C207 8605   1.534   4.982   5.277  0.8134 -0.1070  1.4981
   20MOL   H208 8606   1.335   5.000   5.379 -0.5703  0.2326  3.4447
   20MOL   H209 8607   1.478   5.066   5.546  0.0722 -0.4951  0.4807
   20MOL   H210 8608   1.358   4.807   5.634  0.7445  0.1242  1.2374
   20MOL   H211 8609   1.274   4.954   5.645 -0.0908 -1.4337 -1.9681
   20MOL   H212 8610   1.445   5.068   5.759 -1.0427 -0.3805 -1.0086
   20MOL   H213 8611   1.367   4.958   5.861 -0.4595 -1.5715 -0.7697
   20MOL   H214 8612   1.636   4.935   5.888  0.2939 -1.4111 -0.4312
   20MOL   H215 8613   1.581   4.786   5.811  1.2958 -0.8794 -0.1043
   20MOL   H216 8614   1.706   5.035   5.687  1.4699 -0.5725 -2.6499
   20MOL   H217 8615   1.763   4.876   5.712 -1.2311 -0.6996  2.1767
   20MOL   H218 8616   1.692   4.902   5.482  0.3805  1.7958  0.8527
   20MOL   H219 8617   1.597   4.783   5.557  0.3144 -0.3957 -1.6127
   20MOL   H220 8618   1.583   5.074   5.309 -0.8775  2.0032 -1.6316
   20MOL   H221 8619   1.605   4.899   5.275  0.0271 -0.7577  0.2145
   20MOL   C222 8620   1.491   4.998   5.128  0.1790 -0.8825 -0.5779
   20MOL   C223 8621   1.497   5.150   5.070  0.2715  0.4762  0.8260
   20MOL   C224 8622   1.640   5.208   5.065  0.6456  1.5447  0.0107
   20MOL   C225 8623   1.647   5.366   5.072  0.3755  0.5553  0.1530
   20MOL   C226 8624   1.553   5.429   5.177 -0.4637 -0.2418  0.4406
   20MOL   C227 8625   1.410   5.390   5.137  0.8672  0.4903 -0.1651
   20MOL   C228 8626   1.391   5.231   5.142 -0.1101 -0.8895  0.0648
   20MOL   C229 8627   1.566   4.887   5.042 -0.3361 -0.7530  0.7265
   20MOL   H230 8628   1.385   4.973   5.137  0.2544 -1.8861 -2.3043
   20MOL   H231 8629   1.459   5.143   4.969 -0.5727 -0.4165  1.2019
   20MOL   H232 8630   1.692   5.181   5.157  0.0713  2.3115  0.5664
   20MOL   H233 8631   1.688   5.167   4.976 -0.6436  1.0818 -0.4746
   20MOL   H234 8632   1.621   5.414   4.977 -1.2522  0.2580  0.4271
   20MOL   H235 8633   1.751   5.393   5.085  1.3738 -2.0359 -1.8374
   20MOL   H236 8634   1.564   5.392   5.279 -0.1392  1.5554  1.0865
   20MOL   H237 8635   1.564   5.537   5.181  0.6412 -0.3790  1.3619
   20MOL   H238 8636   1.386   5.428   5.038 -1.0289  3.8133  1.4524
   20MOL   H239 8637   1.346   5.436   5.212 -0.6130 -0.5300 -0.7962
   20MOL   H240 8638   1.387   5.204   5.248 -1.6072 -2.1403 -0.2892
   20MOL   H241 8639   1.296   5.209   5.094 -0.1703  1.1897 -0.8461
   20MOL   H242 8640   1.585   4.796   5.099 -0.6336 -1.1967  0.1156
   20MOL   H243 8641   1.656   4.933   5.002 -0.1181  0.1541  2.2048
   20MOL   C244 8642   1.478   4.834   4.922  0.1369  0.2743 -0.2353
   20MOL   C245 8643   1.486   4.677   4.906  0.5059  0.3956  0.0312
   20MOL   C246 8644   1.405   4.605   5.012 -0.3327  0.5089  0.2058
   20MOL   C247 8645   1.403   4.454   4.981 -0.1812 -0.0098  0.1812
   20MOL   C248 8646   1.540   4.396   4.962 -0.3691  0.4933  0.2449
   20MOL   C249 8647   1.617   4.471   4.858 -0.2975 -0.9962  0.4568
   20MOL   C250 8648   1.629   4.622   4.884  0.8059  0.0083  0.6766
   20MOL   C251 8649   1.510   4.907   4.792 -0.3779 -0.3246  0.0754
   20MOL   H252 8650   1.378   4.870   4.944  0.4510  1.4752 -0.6890
   20MOL   H253 8651   1.426   4.651   4.819 -0.5385  1.9368  0.2805
   20MOL   H254 8652   1.304   4.647   5.021  0.2148  1.7451  0.6801
   20MOL   H255 8653   1.456   4.634   5.104 -0.1981  0.9569 -0.0047
   20MOL   H256 8654   1.365   4.400   5.067 -0.0111 -2.9790 -1.5543
   20MOL   H257 8655   1.330   4.430   4.903  0.1365 -1.9923  0.4720
   20MOL   H258 8656   1.589   4.397   5.059  2.1962 -2.2736 -0.9482
   20MOL   H259 8657   1.530   4.288   4.950  0.0022  0.6370 -1.5137
   20MOL   H260 8658   1.575   4.461   4.758 -0.8529  1.1084  0.4474
   20MOL   H261 8659   1.716   4.432   4.837 -1.2192 -3.1426 -0.0582
   20MOL   H262 8660   1.697   4.647   4.966  0.4431  1.3530  0.5659
   20MOL   H263 8661   1.669   4.668   4.795 -4.8591 -0.7740 -2.5417
   20MOL   H264 8662   1.610   4.874   4.765  0.0656  1.5663 -0.7027
   20MOL   H265 8663   1.522   5.014   4.812  0.5373 -0.6826  1.5584
   20MOL   C266 8664   1.412   4.894   4.672  0.3951 -0.9099  0.3036
   20MOL   C267 8665   1.322   5.020   4.641 -0.5097 -0.4677 -0.5063
   20MOL   C268 8666   1.396   5.154   4.604 -0.4019 -0.6694 -0.1104
   20MOL   C269 8667   1.298   5.258   4.567  0.3907  0.3219  0.5561
   20MOL   C270 8668   1.189   5.291   4.674  0.2273 -0.2518  0.8552
   20MOL   C271 8669   1.120   5.168   4.705  0.3778 -0.0005 -0.1791
   20MOL   C272 8670   1.213   5.051   4.744  0.2318 -0.0786  0.2293
   20MOL   C273 8671   1.479   4.858   4.539  0.0641  0.1067 -0.3904
   20MOL   H274 8672   1.335   4.819   4.692 -1.8887  2.0961  3.3589
   20MOL   H275 8673   1.253   4.999   4.559 -0.2195 -0.8717 -0.6446
   20MOL   H276 8674   1.453   5.191   4.688 -0.4880  3.6581 -1.8572
   20MOL   H277 8675   1.454   5.143   4.513 -1.3455 -0.2678 -0.7731
   20MOL   H278 8676   1.242   5.221   4.481 -0.6786 -1.7475  2.1039
   20MOL   H279 8677   1.342   5.349   4.527  1.9913 -0.3015  0.8501
   20MOL   H280 8678   1.224   5.333   4.768 -0.7591  0.1290  1.0650
   20MOL   H281 8679   1.119   5.366   4.636 -0.6859 -1.2204  0.5868
   20MOL   H282 8680   1.069   5.132   4.615  3.0524 -2.4118 -0.7715
   20MOL   H283 8681   1.049   5.196   4.782 -0.9842  0.8253 -1.6968
   20MOL   H284 8682   1.168   4.953   4.755 -0.3529  0.3305  1.5507
   20MOL   H285 8683   1.271   5.077   4.833 -0.5780  2.4687  0.0746
   20MOL   H286 8684   1.559   4.787   4.560  1.1360  1.1840 -0.7602
   20MOL   H287 8685   1.545   4.937   4.501  0.9435 -0.5760 -0.3138
   20MOL   C288 8686   1.395   4.795   4.425 -0.0945 -0.0055  0.1591
   20MOL   C289 8687   1.312   4.672   4.462  0.0080 -0.2982 -0.1658
   20MOL   C290 8688   1.214   4.632   4.347 -0.4277  0.2307 -0.3358
   20MOL   C291 8689   1.116   4.516   4.384 -0.1856 -0.0362  0.8526
   20MOL   C292 8690   1.200   4.395   4.415  0.1919 -0.5729  0.4684
   20MOL   C293 8691   1.298   4.428   4.528  0.1312 -0.7061  0.3675
   20MOL   C294 8692   1.389   4.548   4.507 -0.3290 -0.2616  0.4758
   20MOL   C295 8693   1.480   4.777   4.297  0.4984 -0.4040 -0.1966
   20MOL   H296 8694   1.323   4.874   4.404 -1.0974 -1.3539 -1.6502
   20MOL   H297 8695   1.247   4.694   4.546  0.6340 -0.4712  0.3636
   20MOL   H298 8696   1.163   4.725   4.322  1.6071  1.3021 -0.6043
   20MOL   H299 8697   1.265   4.611   4.253 -2.5622 -1.0230 -1.2613
   20MOL   H300 8698   1.053   4.544   4.468 -0.2194 -1.8078  1.4384
   20MOL   H301 8699   1.048   4.495   4.302  1.6612 -0.8121 -0.5269
   20MOL   H302 8700   1.263   4.366   4.331 -1.2108 -3.0607  0.1868
   20MOL   H303 8701   1.134   4.312   4.442 -2.2470  1.3127  0.4647
   20MOL   H304 8702   1.364   4.348   4.559 -0.1718 -0.7848  0.8203
   20MOL   H305 8703   1.238   4.440   4.618 -0.1497 -2.3711  0.4067
   20MOL   H306 8704   1.468   4.523   4.436  0.1776  1.1982  0.4913
   20MOL   H307 8705   1.438   4.567   4.602  1.1831  2.7095 -0.7916
   20MOL   H308 8706   1.584   4.779   4.332  0.3872 -1.6094  0.1908
   20MOL   H309 8707   1.478   4.672   4.268  1.0338 -0.2837 -0.6879
   20MOL   C310 8708   1.457   4.872   4.179 -0.2734  0.8639 -0.8186
   20MOL   C311 8709   1.474   5.028   4.209 -0.1804  0.5027  0.5510
   20MOL   C312 8710   1.621   5.075   4.225  0.3710  0.1357  0.3745
   20MOL   C313 8711   1.632   5.220   4.253  0.3500 -0.1908  0.5204
   20MOL   C314 8712   1.551   5.302   4.151 -0.5260  0.7211 -0.0565
   20MOL   C315 8713   1.399   5.262   4.140 -0.9359 -0.1478  0.0428
   20MOL   C316 8714   1.395   5.109   4.101 -0.0032 -0.1856 -0.4901
   20MOL   C317 8715   1.528   4.832   4.055 -0.6099  0.0016  0.4607
   20MOL   H318 8716   1.348   4.865   4.169 -0.1770 -1.0070 -0.7634
   20MOL   H319 8717   1.423   5.040   4.305 -1.1884  0.8517 -0.0235
   20MOL   H320 8718   1.672   5.018   4.303  0.0055 -2.1800 -1.0246
   20MOL   H321 8719   1.677   5.075   4.131  0.5018  0.8751  0.4491
   20MOL   H322 8720   1.739   5.243   4.256  0.5400 -0.9812 -0.0304
   20MOL   H323 8721   1.603   5.230   4.358 -1.9195 -0.4844 -0.0702
   20MOL   H324 8722   1.566   5.405   4.184  0.8082  0.2210  0.9177
   20MOL   H325 8723   1.591   5.293   4.050 -0.2604  0.0281  0.1148
   20MOL   H326 8724   1.358   5.280   4.239 -2.0678  0.4798 -0.5187
   20MOL   H327 8725   1.342   5.322   4.068 -1.0787  1.8203  1.7596
   20MOL   H328 8726   1.416   5.087   3.997  2.2314  0.2247 -0.1515
   20MOL   H329 8727   1.291   5.083   4.121 -0.5500  0.7703 -2.0385
   20MOL   H330 8728   1.634   4.823   4.078 -0.5709 -0.3680  0.1378
   20MOL   H331 8729   1.535   4.917   3.987  1.0677 -0.8271 -0.4275
   20MOL   C332 8730   1.471   4.701   3.983 -0.4342  0.4963  0.4374
   20MOL   C333 8731   1.578   4.590   3.947 -0.4285  0.1845 -0.2289
   20MOL   C334 8732   1.637   4.511   4.073 -0.1960 -0.0227 -0.2919
   20MOL   C335 8733   1.728   4.396   4.030 -0.4771 -0.3818  0.4221
   20MOL   C336 8734   1.830   4.438   3.928 -0.1857 -0.5217 -0.3532
   20MOL   C337 8735   1.772   4.507   3.808 -0.5591  0.3805  0.1535
   20MOL   C338 8736   1.689   4.628   3.850 -0.0276  0.5911 -0.4456
   20MOL   C339 8737   1.390   4.758   3.860 -0.2420  0.3664  0.3800
   20MOL   H340 8738   1.412   4.640   4.052  0.0697 -0.1093  0.3348
   20MOL   H341 8739   1.520   4.516   3.892 -0.4750  0.3748 -0.4336
   20MOL   H342 8740   1.693   4.576   4.141 -0.9354 -0.1470  0.4534
   20MOL   H343 8741   1.562   4.484   4.148  0.4534 -0.2192  0.2882
   20MOL   H344 8742   1.798   4.361   4.106  0.1553  0.5480  0.2731
   20MOL   H345 8743   1.665   4.315   3.992 -0.5046  0.2521 -0.9073
   20MOL   H346 8744   1.901   4.498   3.985 -1.1594  1.0200 -0.7383
   20MOL   H347 8745   1.888   4.349   3.901 -0.6316 -0.7766 -0.4684
   20MOL   H348 8746   1.711   4.433   3.757  1.1076  1.3978 -3.4431
   20MOL   H349 8747   1.845   4.532   3.731 -1.6352 -1.3307 -1.4763
   20MOL   H350 8748   1.632   4.673   3.768 -1.5831 -0.3663  0.0686
   20MOL   H351 8749   1.757   4.701   3.892 -0.0917  1.3708 -1.6627
   20MOL   H352 8750   1.460   4.820   3.804 -1.2088  0.5970 -0.5954
   20MOL   H353 8751   1.305   4.815   3.898 -0.8477 -1.4874  1.9559
   20MOL   C354 8752   1.330   4.662   3.753 -0.9703  0.2494  0.4598
   20MOL   C355 8753   1.275   4.741   3.627 -0.1107  0.3561 -0.3518
   20MOL   C356 8754   1.378   4.813   3.553 -0.1546 -0.5823  0.5675
   20MOL   C357 8755   1.322   4.873   3.416 -0.4341  0.1222 -0.9269
   20MOL   C358 8756   1.199   4.960   3.433  0.2697 -0.1948  0.4201
   20MOL   C359 8757   1.095   4.904   3.535 -0.0952  0.2078  0.2138
   20MOL   C360 8758   1.164   4.850   3.662  0.9466 -0.2431 -0.6555
   20MOL   C361 8759   1.239   4.557   3.822  0.3687  0.5977  0.0537
   20MOL   H362 8760   1.416   4.605   3.717 -0.2187  1.2236  0.6986
   20MOL   H363 8761   1.229   4.669   3.559  0.8317 -0.9579  0.3990
   20MOL   H364 8762   1.469   4.755   3.536  1.1631  1.4154  0.5206
   20MOL   H365 8763   1.411   4.901   3.609  1.1609 -0.2239 -0.7396
   20MOL   H366 8764   1.402   4.930   3.369 -0.3949  0.2126 -0.7517
   20MOL   H367 8765   1.301   4.786   3.354 -1.3669  0.2096 -0.7364
   20MOL   H368 8766   1.238   5.055   3.469 -0.3002  0.6739 -1.2139
   20MOL   H369 8767   1.151   4.978   3.336  1.0991 -0.1084  0.0189
   20MOL   H370 8768   1.034   4.990   3.561 -0.1079 -0.7036  3.5037
   20MOL   H371 8769   1.041   4.825   3.483 -1.4620  0.2968  1.4670
   20MOL   H372 8770   1.087   4.812   3.730 -2.6447  1.8403 -3.4233
   20MOL   H373 8771   1.211   4.934   3.712  0.6776 -0.2094 -0.4629
   20MOL   H374 8772   1.156   4.604   3.875 -0.6879 -1.0071 -0.1581
   20MOL   H375 8773   1.296   4.510   3.901  3.4941 -0.2922 -2.6310
   20MOL   C376 8774   1.195   4.437   3.723  0.1586  0.6095 -0.3729
   20MOL   C377 8775   1.313   4.331   3.696 -0.1083  0.5133  0.3048
   20MOL   C378 8776   1.294   4.245   3.569 -0.3234 -0.4100 -0.6010
   20MOL   C379 8777   1.427   4.157   3.546 -0.5596 -0.5508 -0.2106
   20MOL   C380 8778   1.463   4.076   3.671 -0.0833  0.3930 -0.5837
   20MOL   C381 8779   1.475   4.163   3.792 -0.2806  0.2863  0.4787
   20MOL   C382 8780   1.350   4.243   3.824  0.2004 -0.7636 -0.1289
   20MOL   C383 8781   1.069   4.373   3.782 -0.0233 -0.1228  0.2927
   20MOL   H384 8782   1.168   4.490   3.631 -1.6962  0.6524  0.1952
   20MOL   H385 8783   1.396   4.394   3.663 -1.3627  1.6501 -0.7102
   20MOL   H386 8784   1.212   4.173   3.569 -1.7623  1.1871  0.3568
   20MOL   H387 8785   1.281   4.314   3.486 -2.6099  0.1175  0.1415
   20MOL   H388 8786   1.505   4.230   3.524  0.0504 -0.8104  1.0304
   20MOL   H389 8787   1.425   4.085   3.464  0.6932 -1.2894  0.3875
   20MOL   H390 8788   1.387   4.002   3.696 -0.0844  0.3702 -0.6526
   20MOL   H391 8789   1.557   4.028   3.642 -0.2771  0.6087 -1.6013
   20MOL   H392 8790   1.496   4.112   3.886 -2.0589 -2.1410 -0.3890
   20MOL   H393 8791   1.561   4.230   3.779 -0.3970  0.9115  2.7157
   20MOL   H394 8792   1.267   4.178   3.849 -2.2388  2.4422  0.4001
   20MOL   H395 8793   1.362   4.308   3.910  1.5027  0.2141 -1.0286
   20MOL   H396 8794   1.086   4.362   3.889  1.8631  1.2413  0.1587
   20MOL   H397 8795   1.054   4.270   3.750  1.3701 -0.6759  1.3693
   20MOL   C398 8796   0.942   4.472   3.761  0.2599 -0.0028 -0.1534
   20MOL   C399 8797   0.869   4.428   3.635 -0.2176  0.7302 -0.1882
   20MOL   C400 8798   0.791   4.297   3.636  0.6737  0.7151  0.2443
   20MOL   C401 8799   0.759   4.254   3.491  0.9012 -0.2252 -0.2325
   20MOL   C402 8800   0.666   4.358   3.420 -0.0160  0.4961  0.7446
   20MOL   C403 8801   0.736   4.495   3.421  0.0196 -0.0114 -0.1354
   20MOL   C404 8802   0.776   4.532   3.570  0.1674 -0.6111  0.4560
   20MOL   C405 8803   0.855   4.486   3.888 -0.1294  0.2434  0.3707
   20MOL   H406 8804   0.976   4.573   3.736  1.7909 -0.4235  0.1714
   20MOL   H407 8805   0.955   4.411   3.569  0.4450  0.0525  0.8457
   20MOL   H408 8806   0.699   4.304   3.694  1.1674  0.6557  1.0423
   20MOL   H409 8807   0.846   4.219   3.688  1.7306  0.0339 -1.8559
   20MOL   H410 8808   0.720   4.153   3.477  0.5647 -0.0221 -0.7585
   20MOL   H411 8809   0.851   4.244   3.434  0.9862  0.9022 -0.3022
   20MOL   H412 8810   0.569   4.364   3.470  0.2236 -3.3740  1.8457
   20MOL   H413 8811   0.645   4.323   3.319  2.6536 -0.8965  0.6298
   20MOL   H414 8812   0.828   4.490   3.363 -0.2296  1.7152 -0.7228
   20MOL   H415 8813   0.686   4.578   3.371 -0.5527  0.0309  0.4974
   20MOL   H416 8814   0.829   4.628   3.568  0.7759 -0.9626 -0.6981
   20MOL   H417 8815   0.683   4.546   3.624  0.6318 -1.4635  1.4867
   20MOL   H418 8816   0.790   4.398   3.890  0.9007 -0.5523 -0.8168
   20MOL   H419 8817   0.921   4.482   3.975 -0.7974  2.0855  0.9812
   20MOL   C420 8818   0.777   4.617   3.902 -0.2645 -0.1410 -0.5374
   20MOL   C421 8819   0.849   4.751   3.921  0.2924  0.1419  0.1224
   20MOL   C422 8820   0.936   4.770   4.046  0.1255 -0.2136 -0.3228
   20MOL   C423 8821   1.007   4.903   4.036  0.0896 -0.8862  0.6998
   20MOL   C424 8822   0.914   5.024   4.031 -0.5398  0.1613  0.6252
   20MOL   C425 8823   0.822   5.016   3.910  0.2859 -0.4608 -0.1122
   20MOL   C426 8824   0.753   4.876   3.902 -0.3966  0.4118  0.3836
   20MOL   C427 8825   0.678   4.606   4.017 -0.0944 -0.2400 -0.0903
   20MOL   H428 8826   0.714   4.620   3.814  0.9687 -0.3616 -1.4511
   20MOL   H429 8827   0.926   4.747   3.844 -0.6614  0.1260 -0.8541
   20MOL   H430 8828   0.881   4.764   4.140 -0.6081  1.3722 -0.6298
   20MOL   H431 8829   0.997   4.682   4.067  1.7749  0.8654 -0.4010
   20MOL   H432 8830   1.064   4.915   4.129  1.4332 -1.2708 -0.0601
   20MOL   H433 8831   1.092   4.898   3.967 -0.4622  1.4697 -0.2016
   20MOL   H434 8832   0.968   5.118   4.042  0.9711 -0.5403 -0.6000
   20MOL   H435 8833   0.851   5.023   4.120 -1.4501 -2.4577 -0.0038
   20MOL   H436 8834   0.873   5.041   3.818 -0.2376  0.5397 -0.1459
   20MOL   H437 8835   0.743   5.091   3.919  0.3787 -0.3602 -0.1394
   20MOL   H438 8836   0.684   4.877   3.986 -2.6287  2.3859 -1.3858
   20MOL   H439 8837   0.700   4.859   3.808 -0.2948 -0.4824  0.4865
   20MOL   H440 8838   0.609   4.521   4.014 -1.4495  0.8517  0.0815
   20MOL   H441 8839   0.731   4.602   4.112 -0.9509  0.8551  0.4348
   20MOL   H442 8840   0.603   4.683   4.003 -2.1953 -1.7888  2.0575
   21MOL     C1 8841   4.040   4.456   5.504  0.1060  0.5414 -0.2121
   21MOL     C2 8842   4.055   4.563   5.392 -0.4836 -0.8169  0.5576
   21MOL     C3 8843   3.973   4.529   5.265 -0.3537  0.2889 -0.5157
   21MOL     C4 8844   3.983   4.640   5.157 -0.2795  0.4841  0.0226
   21MOL     C5 8845   4.123   4.674   5.108 -0.1089 -0.1714  0.1735
   21MOL     C6 8846   4.212   4.686   5.229 -0.6226  0.1121  0.1567
   21MOL     C7 8847   4.201   4.586   5.350  1.0019 -0.2231 -0.2800
   21MOL     C8 8848   4.036   4.503   5.653 -0.5509 -0.8479  0.0950
   21MOL     H9 8849   3.941   4.411   5.492  0.5836 -0.6623  0.2188
   21MOL    H10 8850   4.014   4.655   5.433  3.6448 -0.0243  3.2426
   21MOL    H11 8851   4.010   4.438   5.218  0.4815  0.0312  0.6259
   21MOL    H12 8852   3.870   4.507   5.293  0.2682  0.6429  2.1663
   21MOL    H13 8853   3.934   4.724   5.206 -0.1380 -0.1739  1.3261
   21MOL    H14 8854   3.935   4.611   5.063 -0.2235 -0.0546  0.1604
   21MOL    H15 8855   4.124   4.769   5.053 -0.5070  0.4409  1.2180
   21MOL    H16 8856   4.147   4.590   5.043 -1.0564 -0.1260 -0.2452
   21MOL    H17 8857   4.318   4.697   5.211 -0.8277  0.4714 -0.8378
   21MOL    H18 8858   4.182   4.780   5.275 -1.9269  0.8056 -2.0352
   21MOL    H19 8859   4.260   4.625   5.433  0.9035 -2.0207  0.6658
   21MOL    H20 8860   4.262   4.496   5.343  1.6757  0.2529 -0.5742
   21MOL    H21 8861   3.956   4.573   5.679  0.0640 -0.0213 -0.2012
   21MOL    H22 8862   4.124   4.564   5.674 -1.8962  0.6403  1.5252
   21MOL    H23 8863   4.120   4.383   5.493  0.1295  0.7168 -1.1885
   21MOL    C24 8864   4.038   4.390   5.758 -0.1009 -0.1374  0.7261
   21MOL    C25 8865   4.078   4.446   5.899  0.0829  0.1569  0.0360
   21MOL    C26 8866   3.994   4.567   5.953  0.5125  0.2357 -0.8058
   21MOL    C27 8867   4.033   4.594   6.105 -0.5222  0.2825 -0.2481
   21MOL    C28 8868   4.185   4.619   6.113 -0.0107  0.6376 -0.1091
   21MOL    C29 8869   4.274   4.514   6.055  0.1081 -1.4506  0.0576
   21MOL    C30 8870   4.228   4.473   5.914  0.0047  1.1625  0.5107
   21MOL    C31 8871   3.907   4.315   5.763  0.0525 -0.1346 -0.2873
   21MOL    H32 8872   4.109   4.315   5.723 -0.7524  0.7924 -2.7486
   21MOL    H33 8873   4.055   4.367   5.970 -1.2638 -0.3450 -0.9479
   21MOL    H34 8874   3.887   4.546   5.966  0.5477  0.3684 -0.2765
   21MOL    H35 8875   4.005   4.661   5.898  0.5926  1.1566  0.7473
   21MOL    H36 8876   3.976   4.676   6.149 -1.2125 -0.3707  0.1016
   21MOL    H37 8877   4.011   4.503   6.162  1.0768  1.1000  1.7172
   21MOL    H38 8878   4.210   4.640   6.218 -2.8410 -1.1407  0.9867
   21MOL    H39 8879   4.203   4.717   6.069 -1.4217  1.3060  0.7632
   21MOL    H40 8880   4.378   4.545   6.045 -0.5418  0.8899  0.1847
   21MOL    H41 8881   4.280   4.422   6.114  1.3947 -0.5355  1.4243
   21MOL    H42 8882   4.266   4.537   5.835 -3.3409 -0.0987 -2.2409
   21MOL    H43 8883   4.268   4.372   5.906 -2.0423  0.2562  1.2369
   21MOL    H44 8884   3.837   4.375   5.704 -0.8220 -2.3430 -1.5211
   21MOL    H45 8885   3.880   4.331   5.868  1.9423 -0.3837  0.2437
   21MOL    C46 8886   3.899   4.164   5.725  0.2481 -0.3360 -0.2591
   21MOL    C47 8887   3.752   4.124   5.672  0.7770 -0.1173 -0.7625
   21MOL    C48 8888   3.712   4.180   5.533 -0.7179  0.3288 -0.4571
   21MOL    C49 8889   3.589   4.114   5.483 -0.1516  0.1288 -0.0238
   21MOL    C50 8890   3.467   4.136   5.582 -0.2121  0.3610 -0.0082
   21MOL    C51 8891   3.509   4.086   5.720  0.3475 -0.8212  0.0781
   21MOL    C52 8892   3.637   4.145   5.773 -0.7073  0.4731  0.5690
   21MOL    C53 8893   3.958   4.098   5.861 -0.0333 -0.5777 -0.1207
   21MOL    H54 8894   3.964   4.147   5.640 -1.1229  1.5263 -1.7075
   21MOL    H55 8895   3.753   4.018   5.648  1.3871  0.3299 -2.8739
   21MOL    H56 8896   3.713   4.289   5.531  3.8414  0.3733 -1.7445
   21MOL    H57 8897   3.794   4.161   5.463  0.8648 -0.0612  1.4553
   21MOL    H58 8898   3.611   4.007   5.489 -0.3105  0.0609 -0.6373
   21MOL    H59 8899   3.564   4.150   5.383 -0.9245  1.5795  0.6863
   21MOL    H60 8900   3.433   4.240   5.585  1.0616  0.8244 -1.2775
   21MOL    H61 8901   3.382   4.080   5.542 -0.4963  0.6558  0.1751
   21MOL    H62 8902   3.527   3.979   5.705 -1.7283 -1.2233  0.2829
   21MOL    H63 8903   3.428   4.090   5.793  1.2344 -0.9464  1.0649
   21MOL    H64 8904   3.626   4.253   5.786  1.5047  0.9122 -0.8142
   21MOL    H65 8905   3.666   4.097   5.867 -0.0412 -0.2187  0.0252
   21MOL    H66 8906   3.894   4.109   5.948 -0.9032  2.1367 -1.0679
   21MOL    H67 8907   4.053   4.148   5.879  0.7413 -1.6519 -1.1216
   21MOL    C68 8908   4.000   3.948   5.849  0.0382  0.0339  0.1224
   21MOL    C69 8909   4.141   3.925   5.923 -0.0024  1.2176 -0.1160
   21MOL    C70 8910   4.267   3.986   5.851  0.4161  0.5025  0.6003
   21MOL    C71 8911   4.405   3.953   5.914  0.3103  0.0783  0.2484
   21MOL    C72 8912   4.406   3.981   6.070 -0.3794  0.6433  0.0789
   21MOL    C73 8913   4.281   3.924   6.145 -0.3132  0.0625 -1.1684
   21MOL    C74 8914   4.157   3.961   6.067  0.0460 -0.2760  0.2206
   21MOL    C75 8915   3.895   3.845   5.884  0.0779  0.3540  0.4315
   21MOL    H76 8916   4.025   3.938   5.743  1.1019  1.0305  0.2735
   21MOL    H77 8917   4.146   3.817   5.917  1.5593  1.3224 -1.3456
   21MOL    H78 8918   4.247   4.089   5.824 -1.5859  0.1514  0.6973
   21MOL    H79 8919   4.270   3.943   5.750  0.3186  2.9056 -0.4470
   21MOL    H80 8920   4.446   3.854   5.894  0.5093 -0.2760  2.3273
   21MOL    H81 8921   4.484   4.018   5.877 -0.3208 -0.2689 -1.7715
   21MOL    H82 8922   4.390   4.088   6.084 -0.7500  0.4847  0.9040
   21MOL    H83 8923   4.504   3.954   6.107  0.4393  2.0412 -0.9755
   21MOL    H84 8924   4.282   3.958   6.248  3.0170  0.9889 -1.4302
   21MOL    H85 8925   4.307   3.819   6.141  0.8665  0.3702 -1.9758
   21MOL    H86 8926   4.153   4.069   6.078  0.2498 -0.3011  0.5380
   21MOL    H87 8927   4.074   3.918   6.122  0.9666 -1.7630  0.4808
   21MOL    H88 8928   3.913   3.820   5.989 -2.4855  0.3987  0.9322
   21MOL    H89 8929   3.792   3.880   5.873  0.3622  0.4446 -2.1615
   21MOL    C90 8930   3.896   3.719   5.798 -0.1879  0.1272 -0.0767
   21MOL    C91 8931   3.818   3.606   5.877  0.1308  0.0174 -0.0441
   21MOL    C92 8932   3.662   3.618   5.900  0.1816 -0.5408 -0.0587
   21MOL    C93 8933   3.605   3.507   5.984 -0.1424 -0.3000 -0.4352
   21MOL    C94 8934   3.661   3.373   5.948  0.3133 -0.3155 -0.0970
   21MOL    C95 8935   3.805   3.367   5.928  0.2079  0.1141  0.1144
   21MOL    C96 8936   3.843   3.462   5.822  0.2252 -0.6571  0.4242
   21MOL    C97 8937   3.837   3.763   5.663  0.3034  0.3382  0.5067
   21MOL    H98 8938   3.996   3.675   5.788 -0.5269 -0.9381  1.2510
   21MOL    H99 8939   3.862   3.607   5.977 -0.5644 -0.0648  0.2592
   21MOL   H100 8940   3.608   3.632   5.806 -0.2349 -2.5750 -0.1437
   21MOL   H101 8941   3.636   3.720   5.929  1.4047  0.1700 -1.4452
   21MOL   H102 8942   3.497   3.507   5.970  0.0065  2.2026 -1.8710
   21MOL   H103 8943   3.629   3.527   6.089 -1.0825 -0.0644 -0.2562
   21MOL   H104 8944   3.618   3.328   5.859  1.2458  0.3816 -0.9121
   21MOL   H105 8945   3.631   3.307   6.029  2.3932  0.3804  1.3017
   21MOL   H106 8946   3.856   3.392   6.021  1.8063  1.2787 -1.0412
   21MOL   H107 8947   3.819   3.260   5.912 -0.9511 -0.2211  1.3018
   21MOL   H108 8948   3.949   3.458   5.800 -0.1160 -0.1794 -1.4058
   21MOL   H109 8949   3.781   3.443   5.735 -0.2787  1.1152  0.3701
   21MOL   H110 8950   3.732   3.792   5.664 -0.3491 -1.8950  0.0976
   21MOL   H111 8951   3.881   3.858   5.633 -2.0694  1.0378 -0.8639
   21MOL   C112 8952   3.862   3.671   5.540 -0.1890 -0.4334  0.5710
   21MOL   C113 8953   3.988   3.714   5.454 -0.0020  0.0623  0.3296
   21MOL   C114 8954   4.111   3.727   5.538 -0.3878  0.5653 -0.2962
   21MOL   C115 8955   4.233   3.767   5.452  0.4728  0.1597 -0.4747
   21MOL   C116 8956   4.207   3.903   5.380  0.6486 -0.2533 -0.4498
   21MOL   C117 8957   4.085   3.891   5.292  0.7573 -0.1740 -0.1533
   21MOL   C118 8958   3.963   3.843   5.373  0.1121 -0.1546  0.0841
   21MOL   C119 8959   3.732   3.659   5.462 -0.5834 -0.0333 -0.4953
   21MOL   H120 8960   3.893   3.574   5.579 -0.5186 -0.2098  1.3848
   21MOL   H121 8961   4.007   3.643   5.374 -1.6583  3.6196 -3.3783
   21MOL   H122 8962   4.130   3.646   5.609 -1.9784  0.8244  0.4426
   21MOL   H123 8963   4.098   3.809   5.608  0.9568  0.3384  0.2365
   21MOL   H124 8964   4.325   3.777   5.509  1.0053 -0.6370 -1.1742
   21MOL   H125 8965   4.256   3.690   5.378  1.3531  0.7966 -0.8658
   21MOL   H126 8966   4.186   3.987   5.446  1.3005 -1.4189  1.2657
   21MOL   H127 8967   4.294   3.933   5.322  0.6173  2.1799  0.7073
   21MOL   H128 8968   4.064   3.990   5.251  1.3032  0.1251  0.2846
   21MOL   H129 8969   4.090   3.836   5.198  0.7570  2.4610 -1.7395
   21MOL   H130 8970   3.880   3.816   5.307 -1.7457 -0.0376  2.2977
   21MOL   H131 8971   3.916   3.919   5.436 -1.1351  0.6668 -1.7999
   21MOL   H132 8972   3.700   3.758   5.431 -1.6826 -0.0126  0.6513
   21MOL   H133 8973   3.652   3.638   5.533 -0.6239 -0.8918 -0.7823
   21MOL   C134 8974   3.735   3.565   5.341  0.5176  0.5620  0.2351
   21MOL   C135 8975   3.620   3.584   5.235  0.5491 -1.1693  0.3987
   21MOL   C136 8976   3.616   3.719   5.161 -0.1912 -1.1401  0.0209
   21MOL   C137 8977   3.516   3.715   5.046  0.5961 -0.2838 -0.5851
   21MOL   C138 8978   3.375   3.690   5.104  0.0247  0.4696  0.1721
   21MOL   C139 8979   3.365   3.564   5.191 -0.8308 -1.2653  0.4666
   21MOL   C140 8980   3.477   3.563   5.292  0.3718  0.0597  0.1827
   21MOL   C141 8981   3.738   3.415   5.389  0.3072 -0.1698 -0.8503
   21MOL   H142 8982   3.821   3.582   5.277 -0.2923  0.6824 -0.8478
   21MOL   H143 8983   3.645   3.514   5.155  0.7791  0.0405 -0.6237
   21MOL   H144 8984   3.608   3.804   5.229 -1.2956 -0.1860 -1.2499
   21MOL   H145 8985   3.714   3.727   5.115  0.4780 -0.9396  1.4563
   21MOL   H146 8986   3.553   3.640   4.976  0.8369  0.5728 -1.3799
   21MOL   H147 8987   3.512   3.814   5.000  1.4627  0.2986  0.5670
   21MOL   H148 8988   3.357   3.775   5.170 -2.2158  0.4093 -0.3448
   21MOL   H149 8989   3.296   3.682   5.030 -0.5610 -1.6505  0.9820
   21MOL   H150 8990   3.368   3.471   5.134  2.6251 -1.1316  0.3236
   21MOL   H151 8991   3.269   3.574   5.241 -1.7848  2.3846 -1.8463
   21MOL   H152 8992   3.459   3.639   5.367 -2.0308 -1.0817  0.8342
   21MOL   H153 8993   3.461   3.466   5.341  2.7517 -1.5522 -2.0997
   21MOL   H154 8994   3.698   3.346   5.314 -0.7064  0.1229 -0.5919
   21MOL   H155 8995   3.686   3.406   5.484  0.7448 -0.6322 -0.6510
   21MOL   C156 8996   3.879   3.340   5.410 -0.0197  0.3252  0.3610
   21MOL   C157 8997   3.972   3.364   5.287 -0.2333 -0.0773 -0.3748
   21MOL   C158 8998   4.131   3.353   5.316  0.4880  0.4538 -0.4865
   21MOL   C159 8999   4.209   3.393   5.190  0.3262 -0.2031  0.1022
   21MOL   C160 9000   4.162   3.310   5.056  0.2233  0.1556 -0.0148
   21MOL   C161 9001   4.007   3.321   5.044  0.1712 -0.2904  0.0587
   21MOL   C162 9002   3.936   3.276   5.169 -0.2030 -0.7866  0.0817
   21MOL   C163 9003   3.864   3.194   5.446 -0.8711 -0.1436 -0.6377
   21MOL   H164 9004   3.925   3.390   5.495 -1.9723  3.9713 -0.5988
   21MOL   H165 9005   3.973   3.468   5.255  0.5189 -0.2935 -1.0446
   21MOL   H166 9006   4.169   3.421   5.392 -1.2820  1.9752 -0.9201
   21MOL   H167 9007   4.157   3.251   5.343 -0.2778  0.3345 -0.2027
   21MOL   H168 9008   4.181   3.497   5.175 -0.7267 -0.6285 -0.9779
   21MOL   H169 9009   4.316   3.376   5.204  0.7728  0.9648 -1.7629
   21MOL   H170 9010   4.181   3.205   5.078 -1.1982  0.2334  1.7187
   21MOL   H171 9011   4.204   3.338   4.959  1.1942  0.1140  0.3886
   21MOL   H172 9012   3.982   3.250   4.966  0.9870 -0.0295 -0.4518
   21MOL   H173 9013   3.969   3.418   5.012  0.0622 -0.1416  0.6248
   21MOL   H174 9014   3.831   3.282   5.142 -1.0823 -2.2755  2.9187
   21MOL   H175 9015   3.972   3.174   5.183  2.6325 -0.0304 -1.3501
   21MOL   H176 9016   3.971   3.177   5.458 -1.0548 -0.1891  1.1542
   21MOL   H177 9017   3.839   3.127   5.364 -1.8511 -1.7976  0.9642
   21MOL   C178 9018   3.793   3.155   5.573  0.7664 -0.0236 -0.8695
   21MOL   C179 9019   3.660   3.069   5.543 -1.3068  0.3851  0.0677
   21MOL   C180 9020   3.560   3.133   5.443 -0.2142 -0.3376  0.2388
   21MOL   C181 9021   3.428   3.053   5.419 -0.2654  0.1870 -0.5157
   21MOL   C182 9022   3.361   3.004   5.547  0.6371  0.0523 -0.2591
   21MOL   C183 9023   3.464   2.930   5.634 -0.4037  0.4642  0.4794
   21MOL   C184 9024   3.579   3.025   5.666 -0.7270  0.6007  0.1978
   21MOL   C185 9025   3.893   3.083   5.670  0.3114 -0.1876  0.4478
   21MOL   H186 9026   3.767   3.246   5.629  0.6357 -0.1347 -0.7498
   21MOL   H187 9027   3.694   2.971   5.510  1.2718  0.4323  2.4438
   21MOL   H188 9028   3.544   3.239   5.466  2.8992  0.5374 -1.4138
   21MOL   H189 9029   3.605   3.148   5.345  1.9270  2.5596  1.5848
   21MOL   H190 9030   3.459   2.964   5.364 -0.2185  1.5994 -2.8342
   21MOL   H191 9031   3.361   3.103   5.350 -1.2261 -0.2247  0.1049
   21MOL   H192 9032   3.324   3.090   5.602 -2.2888 -0.7418 -0.9382
   21MOL   H193 9033   3.281   2.937   5.516  0.8847  0.0316 -0.8545
   21MOL   H194 9034   3.496   2.839   5.583  1.1434  2.0263 -1.3741
   21MOL   H195 9035   3.415   2.892   5.724  1.7480  0.1631  1.5567
   21MOL   H196 9036   3.538   3.114   5.713  0.8705  2.1012 -1.1836
   21MOL   H197 9037   3.643   2.978   5.740  0.2119  0.8651 -0.4325
   21MOL   H198 9038   3.973   3.152   5.695  0.9914 -1.1399  0.9231
   21MOL   H199 9039   3.836   3.070   5.762  1.6259 -1.4650  1.0977
   21MOL   C200 9040   3.943   2.944   5.617 -0.0368 -0.3456  0.7337
   21MOL   C201 9041   4.105   2.930   5.646  0.0373 -0.4224 -0.0802
   21MOL   C202 9042   4.198   3.029   5.570  0.6681  0.1448 -0.2561
   21MOL   C203 9043   4.351   3.012   5.600 -0.1234  0.3534 -0.1230
   21MOL   C204 9044   4.380   3.008   5.750  0.5517  0.2180 -0.0723
   21MOL   C205 9045   4.291   2.904   5.819  0.1954 -0.3258  0.0420
   21MOL   C206 9046   4.143   2.940   5.797  0.4597 -0.1502 -0.1378
   21MOL   C207 9047   3.874   2.831   5.683 -0.0077  0.1375  0.1314
   21MOL   H208 9048   3.950   2.957   5.509 -0.5100  1.7134  0.9256
   21MOL   H209 9049   4.128   2.829   5.610  0.2838 -0.5126  0.3218
   21MOL   H210 9050   4.175   3.132   5.596  3.0043  0.0900  2.3122
   21MOL   H211 9051   4.183   3.019   5.462  1.7904 -1.2334 -0.3087
   21MOL   H212 9052   4.386   2.917   5.559 -0.2962  1.1815 -2.2588
   21MOL   H213 9053   4.396   3.096   5.548  1.4895 -0.0367  0.6165
   21MOL   H214 9054   4.486   2.981   5.754  0.8707  1.0689 -1.8879
   21MOL   H215 9055   4.366   3.102   5.804  1.1393  1.2571 -1.6795
   21MOL   H216 9056   4.316   2.813   5.764  0.8436  0.9243 -1.8124
   21MOL   H217 9057   4.310   2.896   5.926 -1.9487  2.7480  0.7097
   21MOL   H218 9058   4.085   2.864   5.850  0.5356 -0.2918 -0.2581
   21MOL   H219 9059   4.115   3.035   5.841  1.5910 -0.8695  2.2012
   21MOL   H220 9060   3.868   2.821   5.792 -0.5693 -0.7673  0.0284
   21MOL   H221 9061   3.769   2.848   5.659 -0.3926 -0.2088  1.5311
   21MOL   C222 9062   3.900   2.681   5.642 -0.2029 -0.4797  0.8427
   21MOL   C223 9063   3.815   2.581   5.719 -0.4519 -0.5833 -0.1229
   21MOL   C224 9064   3.853   2.437   5.684 -0.3302 -0.3273 -0.1642
   21MOL   C225 9065   3.791   2.334   5.789 -0.8188 -0.2647  0.1777
   21MOL   C226 9066   3.637   2.338   5.776  0.4542  0.0708  0.1811
   21MOL   C227 9067   3.594   2.485   5.799 -0.0948  0.9916  0.5180
   21MOL   C228 9068   3.662   2.586   5.703  0.0203 -0.4049  0.2669
   21MOL   C229 9069   3.887   2.669   5.487  0.1865 -0.6278  0.4277
   21MOL   H230 9070   4.004   2.662   5.668 -0.4572 -2.1272  0.7029
   21MOL   H231 9071   3.831   2.599   5.825  1.8760  1.0103 -0.6948
   21MOL   H232 9072   3.824   2.410   5.582  0.2225  1.9347 -0.9506
   21MOL   H233 9073   3.961   2.421   5.684 -0.3777 -0.7605 -1.7356
   21MOL   H234 9074   3.813   2.362   5.892 -2.8876 -0.0533  0.5839
   21MOL   H235 9075   3.833   2.234   5.775 -0.0897  0.3591 -2.4376
   21MOL   H236 9076   3.610   2.313   5.674 -0.3260  1.5042  0.0295
   21MOL   H237 9077   3.568   2.282   5.839  0.9300 -0.6754  0.0564
   21MOL   H238 9078   3.623   2.508   5.902 -0.5091 -1.4462  1.2094
   21MOL   H239 9079   3.487   2.501   5.794 -0.3444 -0.5115  0.9865
   21MOL   H240 9080   3.640   2.560   5.599  1.7194 -3.0867  0.5436
   21MOL   H241 9081   3.627   2.688   5.717 -2.0133 -1.3658  2.4238
   21MOL   H242 9082   3.866   2.769   5.448 -0.2966 -1.8474 -2.6084
   21MOL   H243 9083   3.803   2.610   5.452  0.2852  0.5426 -1.9012
   21MOL   C244 9084   4.009   2.627   5.397 -0.5744  0.4959  0.7849
   21MOL   C245 9085   4.039   2.735   5.295  0.3719 -0.0182 -0.3341
   21MOL   C246 9086   3.944   2.736   5.177  0.2773 -0.0774  0.3075
   21MOL   C247 9087   3.974   2.845   5.076 -0.4356  0.1528  0.2233
   21MOL   C248 9088   4.122   2.858   5.034  0.3282 -0.4770 -0.5461
   21MOL   C249 9089   4.206   2.866   5.157  0.9246 -0.2184  0.2686
   21MOL   C250 9090   4.187   2.741   5.250  0.5119  0.3593 -0.0571
   21MOL   C251 9091   3.996   2.483   5.336 -0.1683  0.5445  0.3687
   21MOL   H252 9092   4.098   2.631   5.459  2.0349 -1.8222 -2.6055
   21MOL   H253 9093   4.023   2.837   5.330 -1.1416 -0.4054  0.1565
   21MOL   H254 9094   3.839   2.746   5.207 -0.5169  1.0762 -2.7451
   21MOL   H255 9095   3.955   2.645   5.119 -1.4709  0.6507 -1.2187
   21MOL   H256 9096   3.907   2.823   4.992 -0.9728 -0.5314  0.8342
   21MOL   H257 9097   3.937   2.944   5.104 -0.4981  0.6171 -1.4236
   21MOL   H258 9098   4.152   2.761   4.995  4.4287 -0.9249  3.2590
   21MOL   H259 9099   4.145   2.945   4.973 -2.5637 -1.3268 -2.9869
   21MOL   H260 9100   4.187   2.967   5.196  0.2633 -0.5863  0.9122
   21MOL   H261 9101   4.312   2.865   5.129  1.1044 -1.0017  0.9622
   21MOL   H262 9102   4.213   2.659   5.183 -1.1212  0.2606 -0.5834
   21MOL   H263 9103   4.260   2.737   5.331  0.4282 -2.3896 -0.0503
   21MOL   H264 9104   4.038   2.493   5.236  1.0136  1.7560  0.9838
   21MOL   H265 9105   3.889   2.470   5.317 -0.2508  1.4624  0.1822
   21MOL   C266 9106   4.060   2.357   5.398  0.6465  0.1159 -0.4984
   21MOL   C267 9107   3.991   2.234   5.336  0.3067 -0.3065 -0.1532
   21MOL   C268 9108   4.027   2.211   5.190  0.0216 -0.2624  0.2080
   21MOL   C269 9109   3.967   2.093   5.134 -0.5080  0.5298  0.0393
   21MOL   C270 9110   3.818   2.074   5.174 -0.0558 -0.5486  0.2672
   21MOL   C271 9111   3.805   2.071   5.328 -0.0176  0.3919  0.3506
   21MOL   C272 9112   3.849   2.210   5.381 -0.0811 -0.2194  0.2415
   21MOL   C273 9113   4.217   2.355   5.411  0.2003  0.2159  0.1586
   21MOL   H274 9114   4.033   2.371   5.503 -1.7571 -0.9706 -0.9536
   21MOL   H275 9115   4.035   2.144   5.381 -1.0361 -1.4410 -1.0677
   21MOL   H276 9116   3.991   2.289   5.122 -1.3441 -1.0472  0.0038
   21MOL   H277 9117   4.133   2.234   5.190  0.4091 -1.9980 -1.1926
   21MOL   H278 9118   4.030   2.011   5.168 -1.7113 -0.4784 -0.1068
   21MOL   H279 9119   3.978   2.103   5.026 -2.9101  0.8316 -0.2077
   21MOL   H280 9120   3.764   2.161   5.137  0.0959 -0.6055 -0.0916
   21MOL   H281 9121   3.771   1.987   5.130 -0.8618 -0.2667  0.5646
   21MOL   H282 9122   3.868   1.996   5.374 -0.3297 -0.8846 -1.2673
   21MOL   H283 9123   3.701   2.051   5.357 -0.0728  0.7006  0.3713
   21MOL   H284 9124   3.836   2.200   5.489  0.8514  0.2796  0.3994
   21MOL   H285 9125   3.788   2.287   5.334 -0.2314  0.1762  1.0717
   21MOL   H286 9126   4.246   2.440   5.472  0.7235 -0.3284  0.6698
   21MOL   H287 9127   4.254   2.366   5.309 -1.8912  0.2125 -0.6428
   21MOL   C288 9128   4.280   2.233   5.473 -0.0158  0.8143 -0.3948
   21MOL   C289 9129   4.222   2.190   5.613 -1.3624 -0.2379  0.1841
   21MOL   C290 9130   4.257   2.036   5.634 -0.3813  0.4681 -0.3388
   21MOL   C291 9131   4.197   1.979   5.763  0.0683 -0.5792 -0.4379
   21MOL   C292 9132   4.250   2.072   5.876  1.2021  0.3872  0.9092
   21MOL   C293 9133   4.204   2.217   5.864 -0.6498  0.2540  0.0736
   21MOL   C294 9134   4.267   2.272   5.738  0.0953  0.7261 -0.1667
   21MOL   C295 9135   4.437   2.232   5.472 -0.1813  0.0906  0.6925
   21MOL   H296 9136   4.248   2.150   5.409 -2.0237  0.8708  0.4978
   21MOL   H297 9137   4.114   2.193   5.622 -1.2654  0.9181  1.0201
   21MOL   H298 9138   4.220   1.974   5.552  3.2651  0.9783 -2.4685
   21MOL   H299 9139   4.363   2.012   5.643 -0.7301 -0.4984  1.3659
   21MOL   H300 9140   4.089   1.993   5.759  0.2139  0.1821 -1.7936
   21MOL   H301 9141   4.223   1.875   5.785 -0.1196 -0.0623  2.4946
   21MOL   H302 9142   4.359   2.068   5.884  1.2043 -0.3329  0.6010
   21MOL   H303 9143   4.222   2.030   5.973 -2.5205 -2.0161 -1.1052
   21MOL   H304 9144   4.223   2.273   5.956 -0.4710 -0.6268  0.5839
   21MOL   H305 9145   4.096   2.234   5.861 -0.8167 -0.6532  0.6891
   21MOL   H306 9146   4.374   2.250   5.740 -0.0693 -0.0451  1.7751
   21MOL   H307 9147   4.256   2.379   5.720  1.3780  0.9014  0.0008
   21MOL   H308 9148   4.463   2.325   5.523 -0.9618 -0.4096  2.0525
   21MOL   H309 9149   4.473   2.148   5.531 -1.2027 -1.5281 -0.9557
   21MOL   C310 9150   4.512   2.230   5.332  0.4398  0.2152 -0.1139
   21MOL   C311 9151   4.474   2.107   5.249  0.2479 -0.0908 -0.9618
   21MOL   C312 9152   4.556   2.092   5.119  0.3819 -0.6204 -0.0177
   21MOL   C313 9153   4.476   1.997   5.026 -0.0066 -0.6697  0.2634
   21MOL   C314 9154   4.451   1.853   5.089 -0.1525  0.0867 -0.8356
   21MOL   C315 9155   4.394   1.860   5.236 -0.4790 -0.5310 -0.3818
   21MOL   C316 9156   4.464   1.960   5.317  0.1998  0.1860  0.3575
   21MOL   C317 9157   4.523   2.367   5.255  0.1162  0.5757  0.1138
   21MOL   H318 9158   4.614   2.210   5.364 -0.1568 -1.8216  0.5955
   21MOL   H319 9159   4.370   2.130   5.227 -0.1990 -0.2351  0.9767
   21MOL   H320 9160   4.557   2.182   5.057  1.3388 -1.7816 -1.7340
   21MOL   H321 9161   4.661   2.070   5.136  1.4544  2.5269 -2.0599
   21MOL   H322 9162   4.539   2.000   4.938 -0.4889 -0.3711 -0.0757
   21MOL   H323 9163   4.385   2.042   4.986  1.5640  1.2596 -1.2588
   21MOL   H324 9164   4.376   1.799   5.032 -0.0799  0.4135 -1.2442
   21MOL   H325 9165   4.547   1.801   5.089 -0.8719 -1.2646 -1.2763
   21MOL   H326 9166   4.292   1.900   5.232 -1.1625 -2.1116  0.4724
   21MOL   H327 9167   4.402   1.761   5.282 -0.1021 -0.9365 -1.3252
   21MOL   H328 9168   4.563   1.923   5.341 -0.1341 -0.5510  0.5892
   21MOL   H329 9169   4.411   1.965   5.412  1.1081  3.2691  0.7637
   21MOL   H330 9170   4.449   2.440   5.289 -2.1806 -0.3590 -2.7206
   21MOL   H331 9171   4.479   2.353   5.157  0.2582  1.5915 -0.1060
   21MOL   C332 9172   4.660   2.435   5.245 -0.5756  0.0079  0.1388
   21MOL   C333 9173   4.686   2.528   5.370 -0.4245  0.2070 -0.7030
   21MOL   C334 9174   4.614   2.666   5.387 -0.1128 -0.4098 -0.3152
   21MOL   C335 9175   4.642   2.732   5.521 -0.5753 -0.3549 -0.0462
   21MOL   C336 9176   4.792   2.755   5.540 -0.0106 -0.2456  0.2699
   21MOL   C337 9177   4.859   2.609   5.543 -0.1474 -0.1266 -0.8070
   21MOL   C338 9178   4.838   2.541   5.408 -0.3484  0.3704 -0.3836
   21MOL   C339 9179   4.670   2.530   5.125  0.0622 -0.0912  0.8098
   21MOL   H340 9180   4.737   2.358   5.253 -1.0791 -0.3694  1.6101
   21MOL   H341 9181   4.650   2.471   5.456 -0.7762  0.3875 -0.7316
   21MOL   H342 9182   4.642   2.740   5.312  2.0171  0.2339  1.0721
   21MOL   H343 9183   4.506   2.654   5.381 -0.0305 -1.4847  0.1862
   21MOL   H344 9184   4.593   2.830   5.522 -1.0260 -0.5752 -0.4197
   21MOL   H345 9185   4.605   2.675   5.606  0.4200  0.2478  0.7998
   21MOL   H346 9186   4.818   2.823   5.458  0.6196  0.3860  0.9812
   21MOL   H347 9187   4.810   2.820   5.626 -0.8582  0.9241 -0.4251
   21MOL   H348 9188   4.819   2.551   5.626  2.3670  0.4563  0.8493
   21MOL   H349 9189   4.966   2.611   5.561  0.0954 -0.1454 -2.1463
   21MOL   H350 9190   4.896   2.449   5.422  1.5829  1.4996 -0.7575
   21MOL   H351 9191   4.887   2.590   5.324 -0.2374 -0.4567 -0.8074
   21MOL   H352 9192   4.747   2.605   5.145  0.7656 -0.9362  1.3094
   21MOL   H353 9193   4.571   2.574   5.137 -0.6625 -1.6462  0.7067
   21MOL   C354 9194   4.705   2.456   4.988 -0.5102 -0.2164 -0.1542
   21MOL   C355 9195   4.858   2.429   4.969 -0.1173  0.1761 -0.5911
   21MOL   C356 9196   4.885   2.360   4.832  0.1082 -0.7249  0.4205
   21MOL   C357 9197   5.027   2.322   4.803 -0.1833 -0.9361 -0.0765
   21MOL   C358 9198   5.099   2.250   4.914 -0.1165  0.1907  0.1103
   21MOL   C359 9199   5.081   2.316   5.047  0.1333 -0.0534 -0.1273
   21MOL   C360 9200   4.932   2.348   5.078  1.0086 -0.2596 -0.3111
   21MOL   C361 9201   4.641   2.540   4.874 -0.4615  0.2000  0.2753
   21MOL   H362 9202   4.655   2.359   4.992 -2.1433  0.5992 -0.4611
   21MOL   H363 9203   4.910   2.525   4.969 -1.6025  1.0254  1.6202
   21MOL   H364 9204   4.845   2.419   4.750  1.4187  1.3446  1.2511
   21MOL   H365 9205   4.821   2.272   4.825 -0.8249 -0.0070 -0.1713
   21MOL   H366 9206   5.037   2.262   4.713  1.3074  1.6378 -1.6736
   21MOL   H367 9207   5.084   2.410   4.775 -0.8782 -0.4189  0.1124
   21MOL   H368 9208   5.057   2.149   4.910  0.4555 -0.1765  2.4262
   21MOL   H369 9209   5.206   2.244   4.894 -0.3589 -0.0796 -1.1327
   21MOL   H370 9210   5.127   2.269   5.134 -0.2796  2.7381  1.6612
   21MOL   H371 9211   5.129   2.413   5.032 -1.0571  0.7151  0.9510
   21MOL   H372 9212   4.929   2.398   5.175 -0.8925 -0.6984 -0.1324
   21MOL   H373 9213   4.874   2.256   5.072  0.1412  0.2928 -0.4470
   21MOL   H374 9214   4.712   2.611   4.831  1.3203 -0.9640  1.1949
   21MOL   H375 9215   4.590   2.618   4.931  1.7313 -0.6563  3.5902
   21MOL   C376 9216   4.547   2.471   4.773  0.3100  0.0733 -0.0690
   21MOL   C377 9217   4.407   2.429   4.844 -0.4132 -0.9308  0.1107
   21MOL   C378 9218   4.350   2.296   4.804 -0.3681 -0.3474  0.4104
   21MOL   C379 9219   4.231   2.262   4.886 -0.0681  0.2659  0.1479
   21MOL   C380 9220   4.120   2.366   4.860 -0.1900 -0.4289 -0.4066
   21MOL   C381 9221   4.171   2.503   4.916 -0.0812  0.8377 -0.1979
   21MOL   C382 9222   4.301   2.541   4.849  0.6857  0.3765  0.2002
   21MOL   C383 9223   4.538   2.570   4.647 -0.1285 -0.0671  0.3943
   21MOL   H384 9224   4.598   2.379   4.743  1.4755  1.4954 -2.6024
   21MOL   H385 9225   4.443   2.402   4.944 -0.2605 -0.9697  0.0463
   21MOL   H386 9226   4.313   2.299   4.701  0.5012 -0.4140  0.0966
   21MOL   H387 9227   4.425   2.220   4.826  0.4347  0.0536 -0.8474
   21MOL   H388 9228   4.249   2.268   4.993  1.1995  2.4586 -0.1707
   21MOL   H389 9229   4.201   2.162   4.853  0.0931  0.8141 -1.7339
   21MOL   H390 9230   4.095   2.384   4.755 -2.3391  1.1132  0.3534
   21MOL   H391 9231   4.024   2.324   4.890 -0.9709  0.3465 -1.7472
   21MOL   H392 9232   4.084   2.562   4.886 -0.0025  0.6367 -0.8210
   21MOL   H393 9233   4.176   2.502   5.025  0.3782  0.4118 -0.2180
   21MOL   H394 9234   4.279   2.570   4.746 -2.7072 -0.5592  0.6095
   21MOL   H395 9235   4.342   2.630   4.898  1.1197  1.3689 -1.8850
   21MOL   H396 9236   4.638   2.575   4.604  0.9210  0.9209  2.8890
   21MOL   H397 9237   4.509   2.673   4.663 -0.6112  0.2077 -2.0698
   21MOL   C398 9238   4.455   2.518   4.526 -0.4100 -1.0197  0.3263
   21MOL   C399 9239   4.404   2.649   4.442  0.2077 -0.1084 -0.3160
   21MOL   C400 9240   4.529   2.715   4.368  0.1572  0.9154 -0.2684
   21MOL   C401 9241   4.489   2.846   4.298  0.1672 -0.2373  0.5208
   21MOL   C402 9242   4.367   2.831   4.209 -0.2742 -0.1141  0.0871
   21MOL   C403 9243   4.248   2.756   4.283 -0.2109  0.5509  0.4183
   21MOL   C404 9244   4.292   2.619   4.340  0.7124 -0.0679 -0.0224
   21MOL   C405 9245   4.525   2.412   4.434 -0.3549  0.0912 -0.5077
   21MOL   H406 9246   4.355   2.487   4.553 -1.1178  1.7419  0.9447
   21MOL   H407 9247   4.377   2.734   4.504  0.8829  1.1329 -1.7172
   21MOL   H408 9248   4.553   2.653   4.281 -1.2387 -1.5871  1.0651
   21MOL   H409 9249   4.619   2.712   4.428 -0.7532 -1.1945  1.0654
   21MOL   H410 9250   4.576   2.878   4.240  1.2214 -0.6275  1.8764
   21MOL   H411 9251   4.473   2.930   4.366 -1.7778 -0.0287 -0.1747
   21MOL   H412 9252   4.401   2.781   4.118 -0.5715 -1.2414  0.5800
   21MOL   H413 9253   4.340   2.927   4.164 -2.1050  0.8067  3.0394
   21MOL   H414 9254   4.198   2.819   4.356 -1.6481 -2.1433  1.7899
   21MOL   H415 9255   4.175   2.730   4.206  2.1157 -0.0641 -1.6704
   21MOL   H416 9256   4.194   2.579   4.365  0.2673  0.3311 -1.1165
   21MOL   H417 9257   4.332   2.554   4.263 -0.3754 -0.6459 -0.0993
   21MOL   H418 9258   4.487   2.406   4.332 -1.9127  0.7087  0.0082
   21MOL   H419 9259   4.630   2.440   4.425 -0.5535  1.0982  0.1848
   21MOL   C420 9260   4.496   2.262   4.476  0.1083 -0.8376 -0.1496
   21MOL   C421 9261   4.615   2.165   4.437 -0.1074 -0.4528 -0.4879
   21MOL   C422 9262   4.734   2.179   4.529 -0.6592  0.2833  0.9291
   21MOL   C423 9263   4.833   2.064   4.495 -0.2327  0.1940 -0.6858
   21MOL   C424 9264   4.878   2.087   4.352 -0.4663  0.6446  0.1239
   21MOL   C425 9265   4.760   2.071   4.253  0.1975 -0.8679 -0.1233
   21MOL   C426 9266   4.653   2.180   4.289  0.9925  0.2180  0.1760
   21MOL   C427 9267   4.353   2.225   4.413 -0.1132  0.2298 -0.4653
   21MOL   H428 9268   4.489   2.261   4.585 -0.8120  0.4100 -0.1886
   21MOL   H429 9269   4.578   2.067   4.467  0.3962 -1.0377 -1.7655
   21MOL   H430 9270   4.789   2.271   4.516  0.8473 -0.8999 -1.3048
   21MOL   H431 9271   4.707   2.182   4.635 -0.8556 -0.1777  0.8974
   21MOL   H432 9272   4.918   2.071   4.562 -0.7981  0.8280 -0.0256
   21MOL   H433 9273   4.791   1.964   4.509  0.4037 -0.5563 -3.7721
   21MOL   H434 9274   4.933   1.996   4.329 -3.1708 -1.0949  0.3342
   21MOL   H435 9275   4.937   2.178   4.337  0.5955  0.0793  0.8466
   21MOL   H436 9276   4.720   1.970   4.246  0.4415 -1.0549  0.9526
   21MOL   H437 9277   4.806   2.102   4.159  1.3486  1.0358  1.0325
   21MOL   H438 9278   4.677   2.284   4.264 -0.4202  0.6176  0.4466
   21MOL   H439 9279   4.562   2.157   4.234  0.3767  0.5905  1.0336
   21MOL   H440 9280   4.307   2.136   4.457 -1.2388  2.6429  3.4557
   21MOL   H441 9281   4.280   2.305   4.426 -1.6127 -0.7555 -2.4926
   21MOL   H442 9282   4.374   2.218   4.306  1.1375  2.2590 -0.3684
   22MOL     C1 9283   5.820   2.682   4.185  0.7855 -0.2035  0.2839
   22MOL     C2 9284   5.859   2.826   4.232 -0.0760 -0.3620  0.1020
   22MOL     C3 9285   5.927   2.811   4.367  0.1461  0.6759 -0.0762
   22MOL     C4 9286   5.944   2.947   4.441 -0.2800 -0.1018  0.2131
   22MOL     C5 9287   5.803   3.012   4.441 -0.1040  0.1425 -0.4197
   22MOL     C6 9288   5.760   3.045   4.303 -0.1519 -0.3676 -0.1448
   22MOL     C7 9289   5.734   2.913   4.231 -0.4621 -0.2164 -1.1159
   22MOL     C8 9290   5.943   2.597   4.147  0.6394 -0.3467  0.3550
   22MOL     H9 9291   5.749   2.634   4.252  0.3368  0.9850  0.6924
   22MOL    H10 9292   5.928   2.856   4.154  2.4276  0.3452  2.5127
   22MOL    H11 9293   5.870   2.734   4.419 -0.3314 -0.0569 -1.6489
   22MOL    H12 9294   6.028   2.774   4.351 -0.1763  0.7015 -2.2546
   22MOL    H13 9295   6.009   3.003   4.373 -0.8337 -1.7030 -1.7097
   22MOL    H14 9296   5.986   2.929   4.540  1.6366  2.2451 -0.1176
   22MOL    H15 9297   5.817   3.100   4.504 -0.7662 -0.2144  0.2355
   22MOL    H16 9298   5.734   2.946   4.494  0.8321  0.0101  0.6516
   22MOL    H17 9299   5.669   3.104   4.291 -0.1324 -0.3888 -0.4090
   22MOL    H18 9300   5.843   3.107   4.268 -0.5342 -0.8495 -2.0002
   22MOL    H19 9301   5.699   2.929   4.129 -1.8481  2.4143 -0.2904
   22MOL    H20 9302   5.648   2.868   4.281  1.7072 -0.3693  2.6540
   22MOL    H21 9303   6.032   2.618   4.207 -0.5132  0.4530  1.8035
   22MOL    H22 9304   5.990   2.643   4.060  0.4368  1.2635  1.0797
   22MOL    H23 9305   5.757   2.686   4.096 -1.3366  1.0946  1.7830
   22MOL    C24 9306   5.917   2.440   4.139  0.0403  0.6030 -1.1365
   22MOL    C25 9307   5.855   2.399   4.006  0.3246 -0.1670  0.0859
   22MOL    C26 9308   5.770   2.269   4.013 -0.0937 -0.1498  0.1774
   22MOL    C27 9309   5.679   2.266   3.889  0.1443  0.3331  0.0837
   22MOL    C28 9310   5.764   2.273   3.760 -0.5248 -0.4297 -0.1143
   22MOL    C29 9311   5.879   2.371   3.754 -0.3336 -0.1854  0.5425
   22MOL    C30 9312   5.951   2.396   3.890  0.0450 -0.0445 -0.9649
   22MOL    C31 9313   6.032   2.350   4.192  0.7293  0.3972  0.0179
   22MOL    H32 9314   5.831   2.430   4.206  0.2506  1.3286 -0.7478
   22MOL    H33 9315   5.772   2.466   3.982  0.3047 -0.2148  0.0202
   22MOL    H34 9316   5.712   2.253   4.104 -0.5641  0.3769 -0.0195
   22MOL    H35 9317   5.836   2.183   4.015  0.0653 -0.0140  0.7264
   22MOL    H36 9318   5.620   2.174   3.891 -0.2516  0.5978  0.7877
   22MOL    H37 9319   5.597   2.337   3.898 -0.1722  0.2525 -2.0117
   22MOL    H38 9320   5.696   2.292   3.678  1.6921 -1.5326 -2.2542
   22MOL    H39 9321   5.801   2.178   3.723  1.6433  1.4916 -3.0491
   22MOL    H40 9322   5.945   2.346   3.670 -0.0207  2.2685  0.0067
   22MOL    H41 9323   5.838   2.465   3.717 -0.0789 -0.7262 -1.1698
   22MOL    H42 9324   6.024   2.319   3.914 -0.9020 -1.1393 -1.5671
   22MOL    H43 9325   6.001   2.493   3.885 -2.8205  1.4491 -1.7404
   22MOL    H44 9326   6.125   2.406   4.184 -0.2262  1.9781 -0.1941
   22MOL    H45 9327   6.064   2.271   4.124 -0.4047 -1.2351  1.3458
   22MOL    C46 9328   6.006   2.296   4.336 -0.0490  0.3962 -0.1021
   22MOL    C47 9329   6.011   2.409   4.445 -0.1208 -0.0580 -1.0252
   22MOL    C48 9330   6.151   2.481   4.469  0.0192  0.3264 -0.0449
   22MOL    C49 9331   6.122   2.590   4.580 -0.1174  0.8144  0.5615
   22MOL    C50 9332   6.056   2.539   4.707 -0.3897  0.2578  0.4452
   22MOL    C51 9333   5.920   2.481   4.678 -0.1397 -0.2789  0.1445
   22MOL    C52 9334   5.945   2.366   4.577  0.5851 -0.4551 -0.5060
   22MOL    C53 9335   6.115   2.191   4.381  0.2447 -0.3802 -0.5040
   22MOL    H54 9336   5.910   2.244   4.334 -0.6525  1.5462 -1.7025
   22MOL    H55 9337   5.945   2.485   4.401  0.9057  0.3303 -1.9146
   22MOL    H56 9338   6.231   2.419   4.510 -1.5811 -2.1056 -0.5306
   22MOL    H57 9339   6.183   2.507   4.368  0.8739  1.2007  0.4465
   22MOL    H58 9340   6.066   2.676   4.544 -0.8260 -0.4281 -1.4017
   22MOL    H59 9341   6.220   2.630   4.608  0.6092 -0.5630  0.0833
   22MOL    H60 9342   6.116   2.459   4.751 -0.9228 -0.0890  0.5496
   22MOL    H61 9343   6.043   2.614   4.784  1.3176 -2.1499  3.2109
   22MOL    H62 9344   5.860   2.566   4.646 -1.6680 -1.3302  0.1824
   22MOL    H63 9345   5.876   2.444   4.771  0.3196 -0.7649  0.1766
   22MOL    H64 9346   5.996   2.283   4.628  2.0487  0.8800  0.2540
   22MOL    H65 9347   5.845   2.330   4.553  0.1768  0.4198 -0.1068
   22MOL    H66 9348   6.114   2.178   4.489  1.0081  2.2985 -0.1361
   22MOL    H67 9349   6.215   2.225   4.351 -0.1763  0.7460 -0.6764
   22MOL    C68 9350   6.110   2.048   4.321  0.0567  0.2390  0.6588
   22MOL    C69 9351   6.248   1.982   4.301 -0.0282  0.6296  0.1946
   22MOL    C70 9352   6.335   2.050   4.188  0.1576  0.1946  0.8058
   22MOL    C71 9353   6.464   1.975   4.166  0.7245 -0.1750  0.3404
   22MOL    C72 9354   6.539   1.960   4.296 -0.0318  0.7086  0.4767
   22MOL    C73 9355   6.458   1.887   4.404  0.5789  0.2768 -0.1108
   22MOL    C74 9356   6.333   1.974   4.432 -0.0224 -0.4715 -0.0793
   22MOL    C75 9357   5.995   1.958   4.390 -0.4069  0.4574 -0.2183
   22MOL    H76 9358   6.077   2.062   4.218 -0.7112  0.6996  0.9652
   22MOL    H77 9359   6.238   1.879   4.266  1.8314  0.6822 -0.5239
   22MOL    H78 9360   6.369   2.152   4.207  1.6197 -0.0226 -0.5525
   22MOL    H79 9361   6.279   2.061   4.095  2.4354 -0.4312 -0.6662
   22MOL    H80 9362   6.450   1.875   4.125 -0.5683 -0.4434  1.3939
   22MOL    H81 9363   6.523   2.039   4.100 -0.1804  1.4757  1.1154
   22MOL    H82 9364   6.569   2.051   4.347  2.3958  0.2392 -0.0351
   22MOL    H83 9365   6.630   1.901   4.281 -0.4802  0.0061  0.4761
   22MOL    H84 9366   6.528   1.883   4.488  0.4672  2.2131  0.0892
   22MOL    H85 9367   6.431   1.785   4.375  0.0330  0.8410 -1.6161
   22MOL    H86 9368   6.363   2.076   4.458  0.0592 -0.1864 -1.2270
   22MOL    H87 9369   6.276   1.934   4.515 -0.6450  0.0184 -0.2618
   22MOL    H88 9370   6.027   1.915   4.485 -1.0218  0.1527 -0.1475
   22MOL    H89 9371   5.926   2.033   4.426  0.0227  1.0930 -0.7165
   22MOL    C90 9372   5.938   1.834   4.315 -0.8636  0.0155 -0.1587
   22MOL    C91 9373   5.883   1.719   4.398  0.3754  0.3940  0.3521
   22MOL    C92 9374   5.992   1.638   4.472 -0.2335 -0.3245 -0.0204
   22MOL    C93 9375   5.926   1.505   4.513  0.4072  0.0435  0.0042
   22MOL    C94 9376   5.817   1.531   4.616 -0.4030 -0.2793  0.0369
   22MOL    C95 9377   5.712   1.635   4.570 -0.6334  0.0504  0.0123
   22MOL    C96 9378   5.767   1.761   4.498 -0.1786  0.7494  0.0253
   22MOL    C97 9379   5.840   1.893   4.215 -0.2765  0.0248 -0.7040
   22MOL    H98 9380   6.025   1.796   4.264 -0.2317  2.3632 -0.9047
   22MOL    H99 9381   5.842   1.655   4.320  2.4644 -1.3749  0.6268
   22MOL   H100 9382   6.028   1.691   4.560  0.8411  1.7540 -1.6576
   22MOL   H101 9383   6.070   1.616   4.398  0.6725  0.4984  0.6833
   22MOL   H102 9384   5.995   1.442   4.569  0.5001  0.7029  0.6274
   22MOL   H103 9385   5.897   1.457   4.419  1.8219  1.8732 -1.3992
   22MOL   H104 9386   5.867   1.563   4.707 -0.6561  0.6018 -0.1226
   22MOL   H105 9387   5.760   1.445   4.654  3.7951 -2.2826  2.0801
   22MOL   H106 9388   5.646   1.577   4.505 -1.8795  0.9417  0.4757
   22MOL   H107 9389   5.648   1.663   4.653  0.0897 -1.5165  1.1290
   22MOL   H108 9390   5.692   1.824   4.449 -1.3633 -1.9208 -1.7480
   22MOL   H109 9391   5.813   1.821   4.576  0.3898  2.0666 -1.2897
   22MOL   H110 9392   5.743   1.904   4.263  0.0934 -0.0825  0.0876
   22MOL   H111 9393   5.862   1.998   4.199  2.0312 -0.3438 -0.0976
   22MOL   C112 9394   5.829   1.814   4.081  0.3017 -0.3940  0.7109
   22MOL   C113 9395   5.954   1.827   3.985 -0.4592 -1.2254 -0.8928
   22MOL   C114 9396   5.987   1.969   3.929 -0.3694  0.6483 -0.2804
   22MOL   C115 9397   6.123   1.964   3.856 -0.5764 -0.0708 -0.4239
   22MOL   C116 9398   6.108   1.863   3.729  0.0244  0.0023  0.1344
   22MOL   C117 9399   6.078   1.721   3.786  0.4787  0.3929 -0.1030
   22MOL   C118 9400   5.952   1.726   3.872  0.0128  0.2995  0.4588
   22MOL   C119 9401   5.706   1.852   3.997  0.4784  0.1904 -0.1194
   22MOL   H120 9402   5.815   1.711   4.114 -1.2717  0.2067  2.0326
   22MOL   H121 9403   6.044   1.798   4.040 -0.8571  1.1181  1.0701
   22MOL   H122 9404   5.990   2.039   4.013  4.5862 -1.1975  1.2347
   22MOL   H123 9405   5.918   1.998   3.850  0.5732  0.5156 -1.1686
   22MOL   H124 9406   6.138   2.066   3.821 -0.0338 -0.5520 -1.6345
   22MOL   H125 9407   6.213   1.942   3.913 -0.6945  0.9376  0.1535
   22MOL   H126 9408   6.029   1.896   3.661 -2.0482 -0.9196  2.0142
   22MOL   H127 9409   6.199   1.852   3.670 -1.1855 -1.3886 -1.5472
   22MOL   H128 9410   6.066   1.654   3.701  0.2156  0.2711  0.0310
   22MOL   H129 9411   6.160   1.686   3.849 -2.0407  1.5373  3.9823
   22MOL   H130 9412   5.938   1.630   3.923 -0.8609 -0.0934 -0.4866
   22MOL   H131 9413   5.881   1.740   3.790  2.5362 -2.0629 -2.2824
   22MOL   H132 9414   5.729   1.839   3.891  2.3629 -2.4089  0.5444
   22MOL   H133 9415   5.686   1.958   4.010 -2.5593 -0.1369 -1.6342
   22MOL   C134 9416   5.572   1.776   4.021  0.3496 -0.2739  0.6711
   22MOL   C135 9417   5.572   1.624   3.977  0.1318  0.5110  0.2677
   22MOL   C136 9418   5.605   1.600   3.823 -0.5312  0.0579 -0.1218
   22MOL   C137 9419   5.634   1.451   3.799 -0.1637  0.0413  0.0937
   22MOL   C138 9420   5.511   1.360   3.836 -0.7173  0.5690 -0.7117
   22MOL   C139 9421   5.455   1.389   3.973  0.1969  0.1955  0.1167
   22MOL   C140 9422   5.451   1.538   4.016 -0.0319 -0.2024  0.3938
   22MOL   C141 9423   5.459   1.857   3.956 -0.1524  0.0061 -0.0620
   22MOL   H142 9424   5.562   1.763   4.129  2.3200  1.7533  1.1270
   22MOL   H143 9425   5.652   1.577   4.035  0.5161 -0.2917 -0.9120
   22MOL   H144 9426   5.516   1.629   3.768 -0.4491  2.2467  0.8596
   22MOL   H145 9427   5.690   1.654   3.782  1.6648 -2.8802  0.3700
   22MOL   H146 9428   5.733   1.421   3.832 -0.2292 -0.3118 -0.0241
   22MOL   H147 9429   5.633   1.444   3.690 -1.6121 -0.1120  0.0997
   22MOL   H148 9430   5.432   1.352   3.762 -1.9599 -0.2271  0.6922
   22MOL   H149 9431   5.560   1.262   3.838  0.6081  1.2084 -0.8435
   22MOL   H150 9432   5.514   1.328   4.042 -0.8259  0.4469  1.2319
   22MOL   H151 9433   5.362   1.335   3.990 -0.3304  0.9528 -0.2968
   22MOL   H152 9434   5.361   1.588   3.980  0.8674  0.7981 -0.4795
   22MOL   H153 9435   5.427   1.537   4.122 -0.0508  2.8065  0.4453
   22MOL   H154 9436   5.406   1.785   3.896 -3.4040  1.9905  0.3256
   22MOL   H155 9437   5.475   1.929   3.876 -0.6467 -1.6021 -1.6244
   22MOL   C156 9438   5.367   1.920   4.068  0.1692  0.0382 -0.1841
   22MOL   C157 9439   5.224   1.953   4.021 -0.1667 -0.2331 -0.5969
   22MOL   C158 9440   5.220   2.064   3.916 -0.9588 -0.5511  0.2603
   22MOL   C159 9441   5.073   2.100   3.866 -0.3088  0.2242 -0.1496
   22MOL   C160 9442   4.987   1.981   3.826  0.4984  0.7060  0.1684
   22MOL   C161 9443   4.994   1.885   3.952 -1.4785 -0.1307  0.0559
   22MOL   C162 9444   5.143   1.837   3.970 -0.2209 -0.3153  0.2824
   22MOL   C163 9445   5.442   2.039   4.147  0.9649 -0.3597 -0.0084
   22MOL   H164 9446   5.354   1.847   4.148  1.1435  0.0653  0.0120
   22MOL   H165 9447   5.170   1.990   4.108 -0.6704 -1.7665 -0.2451
   22MOL   H166 9448   5.265   2.157   3.952 -4.0551  1.4792 -0.8918
   22MOL   H167 9449   5.273   2.036   3.825 -0.3588 -0.5124  0.5904
   22MOL   H168 9450   5.028   2.162   3.944 -1.6402 -0.0947 -0.6407
   22MOL   H169 9451   5.083   2.169   3.782 -0.9540  0.9600  0.3679
   22MOL   H170 9452   5.023   1.924   3.740  0.5631  1.6058 -0.4156
   22MOL   H171 9453   4.889   2.019   3.797 -0.3729 -1.0761  0.7121
   22MOL   H172 9454   4.927   1.800   3.942 -2.1937  0.4318 -0.0174
   22MOL   H173 9455   4.961   1.939   4.040 -0.7422  0.3909  0.0199
   22MOL   H174 9456   5.142   1.752   4.039 -1.1498 -0.5142  0.0333
   22MOL   H175 9457   5.167   1.791   3.875 -0.4525  0.5624 -0.2045
   22MOL   H176 9458   5.466   2.120   4.078 -0.7026 -0.1457 -0.3742
   22MOL   H177 9459   5.541   2.009   4.182  0.2118  0.3129  2.8594
   22MOL   C178 9460   5.367   2.103   4.275 -1.0542  0.7996  0.6168
   22MOL   C179 9461   5.314   2.012   4.390  0.3629  0.2762  0.2826
   22MOL   C180 9462   5.222   2.087   4.492 -0.4109  0.1267 -0.3224
   22MOL   C181 9463   5.175   1.987   4.602 -0.5229 -0.3410 -0.3530
   22MOL   C182 9464   5.290   1.906   4.667  0.4429 -0.1070  0.0036
   22MOL   C183 9465   5.370   1.830   4.555  0.1938  0.0827 -0.4300
   22MOL   C184 9466   5.427   1.931   4.454 -0.0170  0.8618 -0.1791
   22MOL   C185 9467   5.438   2.232   4.332 -0.1250 -0.3975  0.3503
   22MOL   H186 9468   5.272   2.131   4.229 -2.0785 -4.1514 -0.6305
   22MOL   H187 9469   5.260   1.927   4.348  1.2467 -0.2189  0.1493
   22MOL   H188 9470   5.278   2.173   4.528  0.9815 -0.2336 -1.5409
   22MOL   H189 9471   5.140   2.129   4.434 -0.7162  1.0922  0.8118
   22MOL   H190 9472   5.104   1.916   4.560  1.4013 -2.7429  0.3300
   22MOL   H191 9473   5.125   2.051   4.676 -0.1988  2.5093 -2.5233
   22MOL   H192 9474   5.370   1.969   4.706  0.5259 -0.3465  0.2203
   22MOL   H193 9475   5.253   1.836   4.742  1.3126 -0.2490  0.3092
   22MOL   H194 9476   5.307   1.753   4.511  1.3598 -1.1304  0.0127
   22MOL   H195 9477   5.457   1.780   4.597  0.5938  3.0228  2.4423
   22MOL   H196 9478   5.505   1.996   4.495  1.4825 -1.5573  0.8864
   22MOL   H197 9479   5.476   1.869   4.379  0.7368  0.8893  0.2832
   22MOL   H198 9480   5.468   2.226   4.436  1.3011 -1.1562 -0.0873
   22MOL   H199 9481   5.531   2.235   4.275 -1.3267 -1.2663 -1.7147
   22MOL   C200 9482   5.350   2.359   4.314  0.4048 -0.3280 -0.3158
   22MOL   C201 9483   5.399   2.463   4.421  0.4558 -0.3528 -0.6760
   22MOL   C202 9484   5.344   2.424   4.561  0.3146  0.2932 -0.6161
   22MOL   C203 9485   5.373   2.532   4.668  0.2118 -0.3471 -0.5746
   22MOL   C204 9486   5.515   2.589   4.662  0.0749 -0.4548 -0.9678
   22MOL   C205 9487   5.561   2.622   4.522 -0.5412 -0.4872  0.3844
   22MOL   C206 9488   5.548   2.501   4.435 -0.3775 -0.9582 -0.4092
   22MOL   C207 9489   5.361   2.408   4.170 -0.4647 -0.5906  0.7953
   22MOL   H208 9490   5.247   2.331   4.336  0.3039  1.9013  2.3476
   22MOL   H209 9491   5.348   2.556   4.399 -1.6176 -0.8723  1.7674
   22MOL   H210 9492   5.395   2.338   4.604  2.1568  0.2298 -2.8148
   22MOL   H211 9493   5.236   2.406   4.564  0.4964 -0.5179  1.2398
   22MOL   H212 9494   5.310   2.619   4.648 -2.2429 -1.8571  0.3017
   22MOL   H213 9495   5.350   2.500   4.770 -0.7444  1.3021 -0.2557
   22MOL   H214 9496   5.530   2.675   4.727  0.0669 -0.7450 -0.5851
   22MOL   H215 9497   5.582   2.509   4.693 -1.5928 -2.2281 -1.7914
   22MOL   H216 9498   5.500   2.698   4.474  1.9566  1.8660  0.7956
   22MOL   H217 9499   5.660   2.669   4.515 -0.5940 -0.2963  0.8705
   22MOL   H218 9500   5.588   2.518   4.335 -2.4053 -1.0066 -1.2515
   22MOL   H219 9501   5.606   2.422   4.482  1.3114 -0.1665 -1.1400
   22MOL   H220 9502   5.462   2.441   4.146 -0.9807 -0.6336 -1.6148
   22MOL   H221 9503   5.356   2.321   4.103  2.6632  2.1666 -3.2455
   22MOL   C222 9504   5.258   2.513   4.127  0.5276 -0.1271  0.8049
   22MOL   C223 9505   5.306   2.607   4.021 -0.2444 -0.8449  0.7642
   22MOL   C224 9506   5.332   2.536   3.886 -0.2947 -0.2177 -0.1613
   22MOL   C225 9507   5.367   2.638   3.770 -0.3894  0.2325 -0.3146
   22MOL   C226 9508   5.474   2.747   3.806  0.0600  0.8671 -0.2890
   22MOL   C227 9509   5.432   2.814   3.940  0.4673  0.5424 -0.0525
   22MOL   C228 9510   5.411   2.711   4.051 -0.1421 -0.9041  1.2438
   22MOL   C229 9511   5.113   2.455   4.097  0.0345  0.3268  0.1893
   22MOL   H230 9512   5.265   2.578   4.214 -1.1850  1.0741  0.0667
   22MOL   H231 9513   5.223   2.677   4.009 -0.1625 -0.3274  2.9983
   22MOL   H232 9514   5.405   2.455   3.891 -0.2957 -0.3289 -1.5652
   22MOL   H233 9515   5.243   2.486   3.849 -2.3552  0.4920  3.6023
   22MOL   H234 9516   5.269   2.679   3.745  0.8337  1.4689 -3.4496
   22MOL   H235 9517   5.387   2.583   3.678  3.8146  0.7376  0.2172
   22MOL   H236 9518   5.570   2.696   3.814 -1.1006 -1.1061  1.5741
   22MOL   H237 9519   5.486   2.831   3.738  1.4265  0.0031 -1.1596
   22MOL   H238 9520   5.337   2.868   3.938  1.0474  1.5945  0.2847
   22MOL   H239 9521   5.512   2.879   3.977  0.6464 -0.0022  0.5162
   22MOL   H240 9522   5.505   2.661   4.072  0.8054  1.1782  2.1141
   22MOL   H241 9523   5.383   2.756   4.146 -2.3530 -1.0573  0.6872
   22MOL   H242 9524   5.100   2.373   4.168 -0.1754 -0.3407 -0.6059
   22MOL   H243 9525   5.116   2.421   3.994 -0.6107  2.2602 -0.4929
   22MOL   C244 9526   4.992   2.553   4.099 -0.8384  0.3220 -0.5104
   22MOL   C245 9527   4.970   2.628   4.229 -0.3508 -0.1768  0.2417
   22MOL   C246 9528   5.056   2.762   4.246 -0.3168 -0.3883 -0.0673
   22MOL   C247 9529   5.039   2.820   4.387 -0.7446 -0.1225  0.2184
   22MOL   C248 9530   5.037   2.723   4.505 -0.2957  0.7976  0.2001
   22MOL   C249 9531   4.937   2.611   4.478  0.8664  0.1985 -0.1050
   22MOL   C250 9532   4.976   2.536   4.354 -0.7032  0.5677  0.0158
   22MOL   C251 9533   4.862   2.485   4.061  0.2270  0.6714  0.9369
   22MOL   H252 9534   5.010   2.637   4.032 -0.6430  2.2203  1.8618
   22MOL   H253 9535   4.868   2.666   4.231  0.0117  0.7302  2.2015
   22MOL   H254 9536   5.034   2.840   4.173 -2.7732 -0.0310  1.0120
   22MOL   H255 9537   5.162   2.744   4.231 -0.6189 -0.3850 -2.3327
   22MOL   H256 9538   5.114   2.897   4.404  0.1674 -0.9037 -0.2613
   22MOL   H257 9539   4.947   2.878   4.396  0.4377  1.6291  1.1917
   22MOL   H258 9540   5.135   2.681   4.526 -0.7235 -2.0320 -2.9942
   22MOL   H259 9541   5.022   2.769   4.602 -1.2097 -2.3007  1.5802
   22MOL   H260 9542   4.833   2.642   4.479  0.4021 -1.2204 -1.4436
   22MOL   H261 9543   4.950   2.542   4.561 -1.1279 -0.3141 -0.1909
   22MOL   H262 9544   5.080   2.503   4.365 -1.5865 -2.3075 -0.1537
   22MOL   H263 9545   4.914   2.450   4.334  0.7901 -0.3484 -0.8380
   22MOL   H264 9546   4.775   2.528   4.111  0.2177  1.0564  0.5880
   22MOL   H265 9547   4.855   2.382   4.095 -1.2880  0.5840  0.4139
   22MOL   C266 9548   4.819   2.492   3.914 -0.4491 -0.3000  0.3773
   22MOL   C267 9549   4.693   2.406   3.873  0.6204  0.0103  0.3942
   22MOL   C268 9550   4.581   2.403   3.983 -0.8649 -0.5155  0.0806
   22MOL   C269 9551   4.468   2.315   3.929 -0.1074 -0.4051  0.0712
   22MOL   C270 9552   4.516   2.175   3.874 -0.3280  0.2298 -0.1320
   22MOL   C271 9553   4.624   2.188   3.765  0.2273 -0.1125  0.0969
   22MOL   C272 9554   4.736   2.277   3.824 -0.2610  0.3460  0.1148
   22MOL   C273 9555   4.803   2.634   3.860  0.5189  0.2190 -0.1229
   22MOL   H274 9556   4.910   2.469   3.860 -0.0381  0.6463  0.6550
   22MOL   H275 9557   4.652   2.452   3.783  1.2436 -0.4709 -0.1418
   22MOL   H276 9558   4.623   2.361   4.075 -0.6861  1.3440  0.8619
   22MOL   H277 9559   4.543   2.501   4.012  0.9489  0.0385  0.6776
   22MOL   H278 9560   4.423   2.358   3.840 -1.0764 -4.0413 -1.2977
   22MOL   H279 9561   4.398   2.307   4.012  1.1976  0.2163  1.2521
   22MOL   H280 9562   4.554   2.119   3.960 -1.7181  2.3313  1.9026
   22MOL   H281 9563   4.431   2.117   3.838  0.1088  1.1213 -2.6829
   22MOL   H282 9564   4.573   2.229   3.677 -0.1828 -2.0746 -0.5933
   22MOL   H283 9565   4.664   2.095   3.726  0.0828  0.0324 -0.3983
   22MOL   H284 9566   4.807   2.287   3.742  0.8361 -0.8346  0.8970
   22MOL   H285 9567   4.784   2.221   3.904  0.3166  1.5590  0.6195
   22MOL   H286 9568   4.821   2.703   3.943 -1.7370 -1.9710  2.2799
   22MOL   H287 9569   4.696   2.646   3.842  0.4069 -2.5084 -1.6253
   22MOL   C288 9570   4.894   2.667   3.737 -0.1187 -0.4589 -0.1388
   22MOL   C289 9571   4.909   2.824   3.729 -0.7275  0.8071 -0.4189
   22MOL   C290 9572   4.771   2.902   3.747 -0.0749 -0.0601 -0.5967
   22MOL   C291 9573   4.783   3.050   3.767 -0.0728 -0.0333  0.0009
   22MOL   C292 9574   4.882   3.083   3.876 -0.2815 -1.2050 -0.2636
   22MOL   C293 9575   5.019   3.028   3.844 -0.4357  1.0114  0.0862
   22MOL   C294 9576   5.007   2.874   3.837 -0.8640 -0.4101 -1.1779
   22MOL   C295 9577   4.836   2.605   3.608 -0.1858 -0.3808 -0.0306
   22MOL   H296 9578   4.997   2.637   3.756 -0.3168  0.4922  2.5366
   22MOL   H297 9579   4.961   2.851   3.637 -0.0870  2.0355  0.2870
   22MOL   H298 9580   4.719   2.890   3.652  0.8958  0.0555 -1.1473
   22MOL   H299 9581   4.705   2.871   3.828 -0.5540  1.7778 -0.2637
   22MOL   H300 9582   4.811   3.099   3.674 -0.9056  0.3097 -0.0799
   22MOL   H301 9583   4.687   3.096   3.792  0.0017 -0.4035  0.9843
   22MOL   H302 9584   4.845   3.052   3.974  1.3599  1.0336  1.1093
   22MOL   H303 9585   4.882   3.191   3.889 -2.5943 -1.4093  1.7742
   22MOL   H304 9586   5.088   3.050   3.925 -2.1662 -0.0215  1.8934
   22MOL   H305 9587   5.056   3.067   3.749 -2.1497 -0.5419 -1.2585
   22MOL   H306 9588   4.978   2.841   3.937  1.5041 -0.9921 -0.6381
   22MOL   H307 9589   5.104   2.825   3.829  0.6560  2.2906  0.0189
   22MOL   H308 9590   4.792   2.505   3.619  1.6792 -1.2138 -0.0647
   22MOL   H309 9591   4.755   2.673   3.581 -0.2671 -0.6980 -0.5928
   22MOL   C310 9592   4.929   2.607   3.483 -0.1666 -0.0243 -0.1394
   22MOL   C311 9593   4.991   2.462   3.444  0.3657  0.3659 -0.0347
   22MOL   C312 9594   5.097   2.407   3.544 -0.1444 -0.1196 -0.3883
   22MOL   C313 9595   5.163   2.271   3.507  0.0592 -0.3752 -0.7834
   22MOL   C314 9596   5.064   2.160   3.478 -0.1997  0.4056  0.1943
   22MOL   C315 9597   4.946   2.220   3.389  0.0967  0.1870 -0.3734
   22MOL   C316 9598   4.886   2.350   3.434 -0.5737 -0.5239  0.0252
   22MOL   C317 9599   4.866   2.675   3.360  0.1725  0.3891  0.4683
   22MOL   H318 9600   5.010   2.675   3.512 -1.6648  1.7192  0.0072
   22MOL   H319 9601   5.042   2.462   3.348 -0.7809 -1.7411 -0.6677
   22MOL   H320 9602   5.179   2.478   3.557  0.3896 -0.9918  1.0956
   22MOL   H321 9603   5.053   2.388   3.642 -1.2006  1.1674 -0.5937
   22MOL   H322 9604   5.235   2.240   3.583 -1.8555 -2.2232  0.3268
   22MOL   H323 9605   5.227   2.301   3.423  2.1082  0.2027  0.9249
   22MOL   H324 9606   5.120   2.083   3.423  0.8437 -1.0349  3.1568
   22MOL   H325 9607   5.024   2.093   3.555 -2.1491  0.7352 -0.5175
   22MOL   H326 9608   4.975   2.224   3.284  0.6760  1.4013 -0.1854
   22MOL   H327 9609   4.872   2.141   3.391 -0.9691  1.1952  0.5025
   22MOL   H328 9610   4.844   2.324   3.531  0.1610  0.7941  0.7103
   22MOL   H329 9611   4.798   2.372   3.374 -1.1112  1.6167  1.5286
   22MOL   H330 9612   4.767   2.631   3.349  0.2800  0.7194 -2.2448
   22MOL   H331 9613   4.922   2.644   3.271  0.9894 -0.4011  1.2446
   22MOL   C332 9614   4.845   2.826   3.350 -0.3885 -0.2148  0.2964
   22MOL   C333 9615   4.731   2.864   3.254  0.2332 -0.1419  0.0599
   22MOL   C334 9616   4.584   2.844   3.315 -0.1608 -0.3946 -0.2521
   22MOL   C335 9617   4.480   2.882   3.204 -0.1003 -0.1961  0.0521
   22MOL   C336 9618   4.496   2.811   3.072  0.2298 -0.5181  0.0766
   22MOL   C337 9619   4.638   2.842   3.016  0.2886 -0.5334  0.9171
   22MOL   C338 9620   4.745   2.793   3.113  0.0828  0.0419 -0.0080
   22MOL   C339 9621   4.979   2.899   3.315 -0.1462 -0.0981  0.0322
   22MOL   H340 9622   4.818   2.852   3.452  0.2135 -1.6188  0.8208
   22MOL   H341 9623   4.743   2.971   3.234  0.5715 -0.5310 -1.9735
   22MOL   H342 9624   4.569   2.740   3.343  2.7567 -0.1949  2.3480
   22MOL   H343 9625   4.558   2.902   3.404  1.5879 -1.8884  1.2784
   22MOL   H344 9626   4.382   2.868   3.249  1.0427  1.4406  3.2471
   22MOL   H345 9627   4.480   2.990   3.188 -3.7665 -0.0175  0.8840
   22MOL   H346 9628   4.489   2.703   3.084  0.6650 -0.4625  0.9097
   22MOL   H347 9629   4.415   2.841   3.007  0.7771  0.9741  0.0518
   22MOL   H348 9630   4.645   2.951   3.015  0.6947 -0.5608 -1.1645
   22MOL   H349 9631   4.632   2.797   2.917 -0.7861  2.3120 -0.3729
   22MOL   H350 9632   4.845   2.806   3.070 -0.4720  0.9987 -1.0478
   22MOL   H351 9633   4.720   2.688   3.130 -0.6369  0.1356 -0.4535
   22MOL   H352 9634   5.024   2.858   3.225  0.7562  1.3625 -0.1934
   22MOL   H353 9635   5.039   2.873   3.403 -0.6426  0.9819  0.6915
   22MOL   C354 9636   4.977   3.059   3.306  0.0615  0.2576  0.3090
   22MOL   C355 9637   5.118   3.118   3.270  0.1777 -0.0463 -1.3287
   22MOL   C356 9638   5.141   3.108   3.117 -0.3137  0.4609  0.0319
   22MOL   C357 9639   5.267   3.176   3.072  0.5253 -0.2055 -0.1429
   22MOL   C358 9640   5.395   3.131   3.146 -0.2389 -0.5173 -0.2474
   22MOL   C359 9641   5.369   3.127   3.298 -0.1843 -0.0709  0.0128
   22MOL   C360 9642   5.237   3.052   3.335  0.0834  0.5308  0.0464
   22MOL   C361 9643   4.911   3.124   3.435  0.2891  0.1994 -0.0191
   22MOL   H362 9644   4.908   3.085   3.226  0.6495 -0.9274 -0.6004
   22MOL   H363 9645   5.123   3.224   3.292  1.9443 -0.2015 -0.9659
   22MOL   H364 9646   5.054   3.146   3.064 -1.6936 -2.1357  0.3670
   22MOL   H365 9647   5.150   3.001   3.099 -0.0045  0.4000  0.5422
   22MOL   H366 9648   5.278   3.162   2.964 -1.4519 -2.4389 -0.0828
   22MOL   H367 9649   5.254   3.284   3.084  3.7579  0.5087 -2.4194
   22MOL   H368 9650   5.445   3.040   3.113  0.2445 -0.5522  0.5617
   22MOL   H369 9651   5.473   3.204   3.124 -0.0762 -0.8828 -0.8997
   22MOL   H370 9652   5.456   3.087   3.351  0.5405 -0.9000 -1.7905
   22MOL   H371 9653   5.354   3.225   3.343  0.4433 -0.7330  1.7090
   22MOL   H372 9654   5.212   3.060   3.441  0.1330  1.7170 -0.0298
   22MOL   H373 9655   5.242   2.944   3.320 -1.8361  0.5226 -0.7104
   22MOL   H374 9656   4.973   3.099   3.520 -0.3302  0.5329  0.5363
   22MOL   H375 9657   4.814   3.075   3.437  0.7460 -0.6655  0.9836
   22MOL   C376 9658   4.885   3.277   3.422  0.4824 -0.7734 -0.4006
   22MOL   C377 9659   4.737   3.320   3.405 -0.3725 -0.3352 -0.5105
   22MOL   C378 9660   4.638   3.283   3.527 -0.0555  0.5841 -0.2504
   22MOL   C379 9661   4.491   3.330   3.511 -0.1628 -0.4079  0.2817
   22MOL   C380 9662   4.443   3.284   3.366 -0.1899  0.1095 -0.4680
   22MOL   C381 9663   4.534   3.339   3.259  0.4779 -0.4556  1.1237
   22MOL   C382 9664   4.680   3.284   3.272 -0.5653 -0.5353  0.4743
   22MOL   C383 9665   4.955   3.358   3.536  0.2028 -0.1688  0.1392
   22MOL   H384 9666   4.939   3.319   3.337  1.2393  1.0733  0.9663
   22MOL   H385 9667   4.737   3.428   3.395  1.0276 -0.4543 -1.9415
   22MOL   H386 9668   4.636   3.175   3.536  0.9862  0.5722 -0.0206
   22MOL   H387 9669   4.690   3.319   3.616 -0.1663 -1.0744  0.4910
   22MOL   H388 9670   4.484   3.438   3.517  1.8579 -0.2108 -0.2546
   22MOL   H389 9671   4.432   3.289   3.593 -1.7416 -1.0141 -1.1210
   22MOL   H390 9672   4.461   3.176   3.365 -1.0130 -0.0903  2.0167
   22MOL   H391 9673   4.343   3.320   3.343 -0.8443 -0.7400  0.9412
   22MOL   H392 9674   4.487   3.324   3.162 -0.3683 -0.4553  1.5247
   22MOL   H393 9675   4.535   3.446   3.283  1.3690 -0.4769  1.1957
   22MOL   H394 9676   4.691   3.177   3.259  2.8379 -0.2086  0.0772
   22MOL   H395 9677   4.736   3.338   3.195 -0.4108  0.2997  1.1649
   22MOL   H396 9678   5.053   3.316   3.561  0.1215 -1.0636 -1.0241
   22MOL   H397 9679   4.890   3.347   3.623 -0.6593  0.2335 -0.4572
   22MOL   C398 9680   4.992   3.510   3.501  0.5146 -0.3799  0.8609
   22MOL   C399 9681   4.984   3.621   3.606 -0.1295  0.4142 -0.0974
   22MOL   C400 9682   4.838   3.624   3.661  0.7619  0.5937  0.1616
   22MOL   C401 9683   4.817   3.738   3.762  0.1286  0.3835  0.9790
   22MOL   C402 9684   4.916   3.717   3.872  0.3362  0.5336 -0.0879
   22MOL   C403 9685   5.064   3.720   3.818 -0.5611  0.6328 -0.6401
   22MOL   C404 9686   5.083   3.604   3.718 -0.0818  0.2613  0.8259
   22MOL   C405 9687   5.125   3.508   3.409  0.2239  0.7780 -0.7000
   22MOL   H406 9688   4.921   3.550   3.428  2.6115  1.6505 -0.1095
   22MOL   H407 9689   5.001   3.715   3.555 -0.0523  0.9450  0.8959
   22MOL   H408 9690   4.818   3.531   3.715  1.2289  0.5573  0.2743
   22MOL   H409 9691   4.771   3.619   3.576  0.2784 -0.3724  0.5883
   22MOL   H410 9692   4.715   3.735   3.799 -0.5628 -2.1637 -0.9975
   22MOL   H411 9693   4.843   3.828   3.706 -1.3333 -1.5080 -2.9493
   22MOL   H412 9694   4.891   3.615   3.901  0.2164  0.6601  0.2579
   22MOL   H413 9695   4.903   3.775   3.964 -1.0771 -1.0134  0.7059
   22MOL   H414 9696   5.093   3.810   3.763 -2.3565 -0.2350 -3.0533
   22MOL   H415 9697   5.132   3.703   3.902 -0.4977 -0.5402 -0.9193
   22MOL   H416 9698   5.182   3.618   3.675 -0.5634  1.4367  0.0843
   22MOL   H417 9699   5.080   3.502   3.756  3.0922 -0.4331 -0.6757
   22MOL   H418 9700   5.201   3.467   3.475 -0.1046 -1.3212 -1.6138
   22MOL   H419 9701   5.124   3.434   3.330 -0.0009 -0.4114  0.3969
   22MOL   C420 9702   5.170   3.640   3.352  0.0269  0.2022  0.0739
   22MOL   C421 9703   5.070   3.704   3.250 -0.1536  0.2713  1.2338
   22MOL   C422 9704   5.035   3.615   3.132  1.1740 -0.3337  0.4834
   22MOL   C423 9705   4.918   3.666   3.045 -0.7084 -0.1959  0.4231
   22MOL   C424 9706   4.969   3.799   2.986  0.0352  0.1308 -0.7889
   22MOL   C425 9707   5.005   3.894   3.107 -0.2415  0.8985  0.2077
   22MOL   C426 9708   5.117   3.837   3.194 -0.7423  0.3707 -0.0719
   22MOL   C427 9709   5.320   3.626   3.304  0.2774  0.4833  0.1995
   22MOL   H428 9710   5.171   3.716   3.430 -2.3750  0.0571  0.2797
   22MOL   H429 9711   4.979   3.731   3.304 -0.0701  1.5678  0.7551
   22MOL   H430 9712   5.126   3.606   3.072  0.5931  0.1118 -0.4839
   22MOL   H431 9713   5.015   3.516   3.173 -1.6833 -0.2145 -0.5434
   22MOL   H432 9714   4.888   3.609   2.957 -0.2379  0.5479 -0.2300
   22MOL   H433 9715   4.827   3.675   3.105 -0.1492 -2.9278  1.7627
   22MOL   H434 9716   4.884   3.846   2.935 -0.2415  0.5942  0.0859
   22MOL   H435 9717   5.050   3.782   2.915  0.6806  0.4681 -0.1409
   22MOL   H436 9718   4.912   3.916   3.161 -0.3882 -1.5009  0.9739
   22MOL   H437 9719   5.035   3.986   3.056 -0.5146  0.8894  0.0232
   22MOL   H438 9720   5.212   3.840   3.140 -0.1287 -1.8401  0.8620
   22MOL   H439 9721   5.132   3.909   3.275 -1.5922  0.7853 -0.2735
   22MOL   H440 9722   5.336   3.544   3.235 -1.5472 -1.1460  1.6745
   22MOL   H441 9723   5.365   3.712   3.254  0.6683 -1.3722 -2.7461
   22MOL   H442 9724   5.394   3.617   3.384  0.7997  0.1915 -0.3143
   23MOL     C1 9725   6.274   0.790   0.407 -0.5192  0.4074 -0.2692
   23MOL     C2 9726   6.369   0.871   0.506  0.0881 -0.0895 -0.0901
   23MOL     C3 9727   6.442   0.988   0.439 -0.2219  1.0016  0.6296
   23MOL     C4 9728   6.544   1.059   0.526  1.3522  0.2239 -0.3908
   23MOL     C5 9729   6.639   0.958   0.594 -0.0641  0.4097  0.4372
   23MOL     C6 9730   6.561   0.849   0.678  0.3107  0.1279 -0.0448
   23MOL     C7 9731   6.465   0.771   0.579  0.2610 -0.8386 -0.0120
   23MOL     C8 9732   6.154   0.856   0.342  0.4250 -0.8906  0.6655
   23MOL     H9 9733   6.330   0.729   0.335  0.4324 -2.1074  2.4902
   23MOL    H10 9734   6.309   0.913   0.586  0.1725 -0.3225  0.0966
   23MOL    H11 9735   6.488   0.969   0.342  0.5767 -0.0602  1.2023
   23MOL    H12 9736   6.371   1.062   0.403 -3.8636 -2.5138  0.2440
   23MOL    H13 9737   6.485   1.112   0.600  1.1097 -3.3325  2.1024
   23MOL    H14 9738   6.605   1.133   0.474 -1.3731  2.1498 -0.9047
   23MOL    H15 9739   6.707   1.002   0.666  1.5368 -2.1010  0.5163
   23MOL    H16 9740   6.696   0.902   0.520  2.0671  2.9422  0.1129
   23MOL    H17 9741   6.631   0.782   0.727 -0.8700 -1.4452 -0.4714
   23MOL    H18 9742   6.506   0.914   0.746 -0.4097  0.7233 -1.1755
   23MOL    H19 9743   6.410   0.696   0.637 -0.1669 -1.0856 -0.7294
   23MOL    H20 9744   6.524   0.708   0.513  1.9018 -0.6101  1.1978
   23MOL    H21 9745   6.193   0.938   0.281 -1.5372 -0.5396 -0.1610
   23MOL    H22 9746   6.099   0.904   0.423 -0.2702  1.6716 -1.2367
   23MOL    H23 9747   6.240   0.710   0.473  0.9057 -0.5370 -0.6411
   23MOL    C24 9748   6.068   0.759   0.250  0.2479  0.7970  0.1681
   23MOL    C25 9749   5.990   0.652   0.330  0.3980  0.2649  0.1291
   23MOL    C26 9750   5.949   0.528   0.248  0.3236 -0.1067 -0.4258
   23MOL    C27 9751   5.887   0.411   0.328 -0.0163 -0.2131  0.6604
   23MOL    C28 9752   5.764   0.461   0.406 -0.1136 -0.2430  0.2083
   23MOL    C29 9753   5.788   0.588   0.487 -0.0130  0.0239  0.7445
   23MOL    C30 9754   5.864   0.704   0.403  0.4208  0.2854 -0.7965
   23MOL    C31 9755   5.989   0.842   0.143 -0.1031  0.2403  0.2409
   23MOL    H32 9756   6.137   0.696   0.195  0.0204 -0.3423  1.1826
   23MOL    H33 9757   6.057   0.617   0.409 -0.3823 -2.0054 -0.1726
   23MOL    H34 9758   6.040   0.502   0.194  0.3974  0.7893 -0.7491
   23MOL    H35 9759   5.864   0.549   0.183 -1.6617 -1.6198  1.6473
   23MOL    H36 9760   5.862   0.330   0.260  2.1469 -2.3604  2.3414
   23MOL    H37 9761   5.958   0.379   0.404  0.2349  1.1653  1.0247
   23MOL    H38 9762   5.731   0.391   0.483 -1.2337  0.0692  0.0209
   23MOL    H39 9763   5.686   0.466   0.331 -0.2379  0.4565  0.3857
   23MOL    H40 9764   5.693   0.622   0.530 -1.1298  0.8770 -2.3130
   23MOL    H41 9765   5.847   0.569   0.577 -0.5474  0.4790  1.1962
   23MOL    H42 9766   5.788   0.733   0.330  0.1955  0.2279 -0.5862
   23MOL    H43 9767   5.885   0.789   0.466 -0.8715 -0.6643  0.9604
   23MOL    H44 9768   5.937   0.771   0.079 -0.8815  0.7840  0.2711
   23MOL    H45 9769   6.055   0.875   0.062 -1.5849 -0.8752 -1.4545
   23MOL    C46 9770   5.888   0.956   0.180  0.3462 -0.0546  0.1478
   23MOL    C47 9771   5.777   0.978   0.073  0.3568 -0.3823  0.2711
   23MOL    C48 9772   5.682   0.856   0.077 -0.2174  0.1217  0.1149
   23MOL    C49 9773   5.576   0.877   7.739  0.1133  0.1562  0.1794
   23MOL    C50 9774   5.615   0.925   7.603  0.3146 -0.9237  0.3279
   23MOL    C51 9775   5.711   1.044   7.606  0.0326  0.6242  0.4296
   23MOL    C52 9776   5.824   1.010   7.707 -0.3055  0.2548  0.6513
   23MOL    C53 9777   5.952   1.088   0.228 -0.0161 -0.0884  0.6786
   23MOL    H54 9778   5.833   0.914   0.264  1.0660 -1.8224 -0.2474
   23MOL    H55 9779   5.704   1.052   0.104 -0.0693 -0.2155 -1.1292
   23MOL    H56 9780   5.726   0.756   0.075 -1.9624 -0.6396 -1.6789
   23MOL    H57 9781   5.626   0.852   0.170  0.6103  0.5183  0.6307
   23MOL    H58 9782   5.500   0.946   0.003  0.0978  0.6941 -0.8703
   23MOL    H59 9783   5.520   0.784   7.722 -0.1588  0.0609  1.5461
   23MOL    H60 9784   5.654   0.850   7.535 -0.8734 -0.7338 -0.5911
   23MOL    H61 9785   5.526   0.951   7.546  0.7656  3.6968  1.4956
   23MOL    H62 9786   5.645   1.130   7.620 -0.1779  0.3768  0.9893
   23MOL    H63 9787   5.754   1.059   7.507  2.0125 -2.5791  0.7245
   23MOL    H64 9788   5.882   0.926   7.668  0.7167  0.4206  1.8219
   23MOL    H65 9789   5.884   1.101   7.709  0.5095 -0.1206 -2.9398
   23MOL    H66 9790   6.011   1.124   0.144  0.1176  1.1944  1.3133
   23MOL    H67 9791   6.016   1.075   0.315  2.0515  3.2136 -0.2652
   23MOL    C68 9792   5.860   1.204   0.280  0.2517 -0.3832  0.4959
   23MOL    C69 9793   5.776   1.164   0.401  0.6776  0.3774  0.2417
   23MOL    C70 9794   5.862   1.128   0.523 -0.1305 -0.0025 -0.7956
   23MOL    C71 9795   5.778   1.091   0.652 -0.2433 -0.3465 -0.3293
   23MOL    C72 9796   5.670   1.190   0.687  0.6030  0.3185 -0.0483
   23MOL    C73 9797   5.581   1.235   0.566  0.6729 -0.4935 -0.3294
   23MOL    C74 9798   5.678   1.278   0.451  0.0816  0.3673  0.0704
   23MOL    C75 9799   5.936   1.334   0.292 -0.0164  0.1457  0.1708
   23MOL    H76 9800   5.788   1.226   0.202 -0.1848  0.8651  1.2316
   23MOL    H77 9801   5.711   1.080   0.376  0.8711 -0.2296  1.7218
   23MOL    H78 9802   5.938   1.203   0.543 -0.8319  0.0463  1.8593
   23MOL    H79 9803   5.912   1.035   0.496 -0.2170 -0.4505  0.5642
   23MOL    H80 9804   5.720   0.998   0.645  1.1111 -1.3531  1.5744
   23MOL    H81 9805   5.847   1.083   0.736 -0.2259  0.6478 -0.2430
   23MOL    H82 9806   5.720   1.269   0.742 -0.6461  1.4985 -0.5595
   23MOL    H83 9807   5.606   1.152   0.767 -0.5733  1.7664 -0.2853
   23MOL    H84 9808   5.515   1.316   0.599  3.3839  1.3887  0.6989
   23MOL    H85 9809   5.527   1.151   0.525 -2.1233  1.6183 -1.1336
   23MOL    H86 9810   5.731   1.365   0.491 -1.3755  0.9291  0.7880
   23MOL    H87 9811   5.624   1.313   0.363  0.7378 -2.6075 -1.5910
   23MOL    H88 9812   5.875   1.403   0.350  0.2442  1.1830 -0.7866
   23MOL    H89 9813   6.015   1.320   0.366  1.2049 -1.3310 -1.3700
   23MOL    C90 9814   5.989   1.400   0.163  0.2600 -0.0463 -0.1070
   23MOL    C91 9815   5.933   1.540   0.126  0.8925  0.1891  0.5704
   23MOL    C92 9816   5.805   1.530   0.048  0.2924 -0.0637  0.4001
   23MOL    C93 9817   5.757   1.673   7.769 -0.3589  0.4443  0.6221
   23MOL    C94 9818   5.747   1.769   0.115 -0.4056  0.2023 -0.4610
   23MOL    C95 9819   5.883   1.779   0.190  0.6162  0.7422  0.2259
   23MOL    C96 9820   5.924   1.641   0.245 -0.6579 -0.2846 -0.4891
   23MOL    C97 9821   6.144   1.412   0.162  0.5139 -0.2697 -0.3205
   23MOL    H98 9822   5.971   1.327   0.084 -0.2520  0.7210 -0.7051
   23MOL    H99 9823   5.997   1.591   0.054 -0.4360  0.9472 -0.0973
   23MOL   H100 9824   5.727   1.485   0.108  0.4891 -0.2854  0.4905
   23MOL   H101 9825   5.823   1.459   7.740 -0.1378 -1.2234  1.3273
   23MOL   H102 9826   5.662   1.656   7.719 -0.1466  1.4644 -0.1486
   23MOL   H103 9827   5.837   1.712   7.705  1.6651 -3.1750  0.7777
   23MOL   H104 9828   5.667   1.745   0.186 -1.0567  1.9510 -0.5779
   23MOL   H105 9829   5.720   1.866   0.072 -0.7393  0.1565 -0.3552
   23MOL   H106 9830   5.962   1.814   0.124  0.8804  0.6762  0.5072
   23MOL   H107 9831   5.882   1.858   0.265 -2.4318  1.6988 -0.7426
   23MOL   H108 9832   6.023   1.667   0.283 -1.0086  2.5085 -1.3404
   23MOL   H109 9833   5.858   1.605   0.324  0.6656 -1.4918  0.1005
   23MOL   H110 9834   6.177   1.508   0.203  0.3276 -0.6037  0.6277
   23MOL   H111 9835   6.193   1.333   0.219 -1.1146 -0.4797  0.7910
   23MOL   C112 9836   6.199   1.411   0.019 -0.8736  0.2797 -0.2303
   23MOL   C113 9837   6.262   1.274   7.765  0.1504  0.1319  0.1988
   23MOL   C114 9838   6.394   1.248   0.077  0.1265 -0.0377 -0.0115
   23MOL   C115 9839   6.461   1.114   0.041  0.3401  0.7563  0.3856
   23MOL   C116 9840   6.505   1.115   7.667  0.5183 -0.0113 -0.1002
   23MOL   C117 9841   6.391   1.132   7.571 -0.0404  0.5540  0.3460
   23MOL   C118 9842   6.304   1.256   7.619  0.2046  0.1394  0.1872
   23MOL   C119 9843   6.298   1.530   0.007  0.4805  0.2300  0.3357
   23MOL   H120 9844   6.122   1.425   7.716 -0.2832  0.0799 -0.8845
   23MOL   H121 9845   6.196   1.193   0.023  0.3357  0.2237  0.8546
   23MOL   H122 9846   6.371   1.261   0.183  0.6556 -0.9592  0.2212
   23MOL   H123 9847   6.462   1.328   0.049 -0.9973  1.6913  2.1382
   23MOL   H124 9848   6.550   1.111   0.104  1.5235  2.5738 -1.1573
   23MOL   H125 9849   6.397   1.030   0.067  2.6732 -1.6588 -1.3831
   23MOL   H126 9850   6.581   1.191   7.651 -1.3145  1.4313 -2.2258
   23MOL   H127 9851   6.549   1.018   7.644 -0.3410 -0.1043 -1.3718
   23MOL   H128 9852   6.428   1.141   7.469  1.1469 -2.2205  0.5007
   23MOL   H129 9853   6.324   1.046   7.567  1.3693 -0.4583 -2.5570
   23MOL   H130 9854   6.216   1.250   7.555  0.6458 -0.8435 -0.3288
   23MOL   H131 9855   6.358   1.341   7.577  2.4696 -1.3792 -0.0655
   23MOL   H132 9856   6.371   1.520   7.699 -2.2205 -2.0068 -1.9256
   23MOL   H133 9857   6.353   1.544   0.101  1.0558  4.5114 -0.5179
   23MOL   C134 9858   6.238   1.672   7.755 -0.0249 -0.1142  0.1335
   23MOL   C135 9859   6.163   1.695   7.625 -0.0316  0.0099  0.0857
   23MOL   C136 9860   6.251   1.690   7.500 -0.0341 -0.7493 -0.2131
   23MOL   C137 9861   6.169   1.699   7.369 -0.8170 -0.2954  0.0251
   23MOL   C138 9862   6.098   1.835   7.364 -0.0654 -0.1234  0.5391
   23MOL   C139 9863   6.008   1.847   7.487 -0.4345  0.1700 -0.0272
   23MOL   C140 9864   6.088   1.835   7.623 -0.2509 -0.4515 -0.0904
   23MOL   C141 9865   6.358   1.773   7.761 -0.0703  0.2392  0.0818
   23MOL   H142 9866   6.176   1.690   0.070  0.4708 -2.0994  0.9207
   23MOL   H143 9867   6.080   1.625   7.623  1.5450 -1.9145  0.8164
   23MOL   H144 9868   6.325   1.770   7.498  0.8503 -1.5661 -1.1561
   23MOL   H145 9869   6.301   1.593   7.489 -0.8995 -1.2498  0.1771
   23MOL   H146 9870   6.090   1.624   7.377 -0.4064 -0.6127  1.2999
   23MOL   H147 9871   6.234   1.670   7.287 -0.3753 -0.1186  0.3113
   23MOL   H148 9872   6.170   1.916   7.357  2.3293 -2.0954  1.7509
   23MOL   H149 9873   6.037   1.826   7.274  1.0421 -0.9198 -0.1458
   23MOL   H150 9874   5.931   1.771   7.485 -0.1555 -0.1044 -0.4605
   23MOL   H151 9875   5.969   1.949   7.485  0.1526  0.3798 -2.2040
   23MOL   H152 9876   6.163   1.914   7.621 -1.0645  0.3389  0.4429
   23MOL   H153 9877   6.027   1.844   7.712 -1.9090 -0.7014 -1.1884
   23MOL   H154 9878   6.342   1.869   7.711  0.1769  1.4509  2.2658
   23MOL   H155 9879   6.446   1.738   7.707 -0.2429  1.7941 -1.2340
   23MOL   C156 9880   6.416   1.797   0.137  0.5021 -0.5371 -1.1014
   23MOL   C157 9881   6.326   1.873   0.243 -0.1206  0.5326  0.3348
   23MOL   C158 9882   6.381   1.869   0.384 -0.0242  0.0701  0.0610
   23MOL   C159 9883   6.288   1.936   0.489 -0.0430  0.1032 -0.0598
   23MOL   C160 9884   6.252   2.082   0.448 -0.8042 -0.1025  0.3896
   23MOL   C161 9885   6.185   2.079   0.313  0.9100  0.0648 -0.2497
   23MOL   C162 9886   6.279   2.012   0.201 -0.0448  0.1109 -0.1140
   23MOL   C163 9887   6.555   1.853   0.122 -0.5608  0.6632 -0.0792
   23MOL   H164 9888   6.427   1.705   0.195 -0.1044  0.2242  0.2487
   23MOL   H165 9889   6.235   1.814   0.256 -0.6998  1.2914 -0.2249
   23MOL   H166 9890   6.401   1.766   0.412  0.2795 -0.1162 -0.8505
   23MOL   H167 9891   6.471   1.928   0.394  0.2069 -0.3071  0.2083
   23MOL   H168 9892   6.200   1.874   0.506  2.4346 -3.7341 -0.7883
   23MOL   H169 9893   6.338   1.948   0.585  1.5363 -0.2152 -0.8281
   23MOL   H170 9894   6.341   2.145   0.449  0.5995 -2.0524  1.5806
   23MOL   H171 9895   6.171   2.113   0.514 -0.4889 -0.6710  1.0430
   23MOL   H172 9896   6.171   2.180   0.273  0.3721 -0.2303 -0.8140
   23MOL   H173 9897   6.091   2.025   0.322  0.9980 -0.4987 -2.4869
   23MOL   H174 9898   6.215   1.989   0.116 -0.6502  0.8264  0.1380
   23MOL   H175 9899   6.365   2.073   0.173  1.3915 -2.4025 -1.2689
   23MOL   H176 9900   6.559   1.951   0.168  1.6084  0.1999  0.8031
   23MOL   H177 9901   6.595   1.879   0.024  1.5570 -1.6631  0.1009
   23MOL   C178 9902   6.671   1.761   0.181  0.3179  0.2636  0.2085
   23MOL   C179 9903   6.683   1.627   0.105 -0.3151  0.2737  0.8096
   23MOL   C180 9904   6.753   1.521   0.192  0.6032 -0.4004 -0.1672
   23MOL   C181 9905   6.755   1.387   0.116  0.4321  0.4712 -0.5740
   23MOL   C182 9906   6.807   1.400   7.741  0.1111 -0.4496 -0.0401
   23MOL   C183 9907   6.744   1.514   7.657 -0.3736 -1.0407  0.4198
   23MOL   C184 9908   6.741   1.646   7.733 -0.6848 -0.9350 -0.5722
   23MOL   C185 9909   6.796   1.841   0.215 -0.0344 -0.1587 -0.8560
   23MOL   H186 9910   6.644   1.729   0.281  0.0256  0.1503  0.0954
   23MOL   H187 9911   6.582   1.587   0.095 -0.7463  0.4951  3.8106
   23MOL   H188 9912   6.858   1.546   0.209  0.4968 -0.0479 -0.0195
   23MOL   H189 9913   6.702   1.509   0.288 -0.2595 -2.1070 -0.8065
   23MOL   H190 9914   6.660   1.335   0.130  0.0129  0.7716 -2.1463
   23MOL   H191 9915   6.831   1.333   0.173  2.3526  1.8264 -1.8033
   23MOL   H192 9916   6.912   1.428   7.752 -0.5160  2.7307 -1.3254
   23MOL   H193 9917   6.791   1.311   7.680 -2.7926  0.4865 -0.7175
   23MOL   H194 9918   6.638   1.494   7.640 -0.1456 -0.9079 -1.3029
   23MOL   H195 9919   6.795   1.514   7.560  0.0096  4.1838  0.5272
   23MOL   H196 9920   6.842   1.686   7.744 -0.0881 -2.4466 -0.5357
   23MOL   H197 9921   6.685   1.713   7.667 -0.9024 -0.9607 -0.4120
   23MOL   H198 9922   6.881   1.777   0.243 -1.4958 -1.6297  0.3301
   23MOL   H199 9923   6.835   1.886   0.124  0.5423 -0.4059 -0.7353
   23MOL   C200 9924   6.779   1.949   0.328  0.1487  0.1725 -0.8758
   23MOL   C201 9925   6.808   1.881   0.465  0.4227 -0.1907 -0.9009
   23MOL   C202 9926   6.964   1.860   0.508 -1.2155  0.1591  0.3411
   23MOL   C203 9927   6.991   1.803   0.645  0.4079  0.0058  0.0624
   23MOL   C204 9928   6.902   1.872   0.752 -0.5472  0.7186 -0.2012
   23MOL   C205 9929   6.753   1.883   0.718 -0.2468 -0.6875 -0.2503
   23MOL   C206 9930   6.742   1.957   0.582  0.0034 -0.1372 -0.0027
   23MOL   C207 9931   6.867   2.077   0.305 -1.0086 -0.6217 -0.1722
   23MOL   H208 9932   6.673   1.977   0.333 -0.3076 -0.7662 -3.9460
   23MOL   H209 9933   6.751   1.790   0.484 -0.2428  0.5135  0.6005
   23MOL   H210 9934   7.005   1.961   0.500  0.7061 -0.5555  0.7528
   23MOL   H211 9935   7.013   1.787   0.443 -1.6777 -1.3741  1.6906
   23MOL   H212 9936   6.987   1.694   0.653  1.4298 -0.0057  0.5182
   23MOL   H213 9937   7.095   1.822   0.671  0.7479  0.9152 -1.8865
   23MOL   H214 9938   6.929   1.818   0.843  1.1091  1.7810 -0.0302
   23MOL   H215 9939   6.946   1.967   0.781  0.5560 -0.4397  2.1271
   23MOL   H216 9940   6.711   1.783   0.716  1.0742 -1.2666  0.3604
   23MOL   H217 9941   6.707   1.928   0.806 -0.7217 -0.6984 -0.4894
   23MOL   H218 9942   6.635   1.968   0.564  0.2762  0.7019 -1.2325
   23MOL   H219 9943   6.772   2.062   0.580  0.3495 -0.2456 -0.9283
   23MOL   H220 9944   6.889   2.125   0.401  1.1008 -2.4426  0.3008
   23MOL   H221 9945   6.967   2.044   0.276 -0.5701  0.8094 -0.2984
   23MOL   C222 9946   6.816   2.171   0.196 -0.7600 -0.3868  0.2363
   23MOL   C223 9947   6.692   2.245   0.239 -0.5043  0.0564  1.4658
   23MOL   C224 9948   6.613   2.290   0.116 -0.0389  0.2062 -0.3277
   23MOL   C225 9949   6.478   2.341   0.156 -0.3367  0.8514 -0.0230
   23MOL   C226 9950   6.500   2.457   0.251  0.0335  0.2804 -0.0427
   23MOL   C227 9951   6.577   2.416   0.374 -0.0637 -0.2232 -0.3332
   23MOL   C228 9952   6.706   2.354   0.339 -0.1081 -0.0558  0.0631
   23MOL   C229 9953   6.925   2.274   0.150  0.1942 -0.2146  0.0497
   23MOL   H230 9954   6.789   2.101   0.117 -0.8570 -0.3632  0.2486
   23MOL   H231 9955   6.626   2.165   0.273 -2.1038  0.6102 -0.2817
   23MOL   H232 9956   6.670   2.373   0.075  1.1352 -0.7053 -0.5560
   23MOL   H233 9957   6.604   2.208   0.046  1.8322 -0.8617  0.6473
   23MOL   H234 9958   6.421   2.263   0.207  0.5666 -0.3953 -0.8826
   23MOL   H235 9959   6.418   2.376   0.072 -0.1877 -0.7752 -0.8294
   23MOL   H236 9960   6.544   2.541   0.197  1.0542  0.1044  0.5019
   23MOL   H237 9961   6.400   2.487   0.283  0.5106  1.1084  0.6802
   23MOL   H238 9962   6.516   2.342   0.425 -0.5496 -1.2488 -2.3429
   23MOL   H239 9963   6.586   2.503   0.439  0.0889  0.5603 -1.3747
   23MOL   H240 9964   6.769   2.433   0.298  1.1971 -1.4115 -0.5772
   23MOL   H241 9965   6.758   2.322   0.430 -2.1349  0.9569  1.6176
   23MOL   H242 9966   7.003   2.285   0.226  0.1743 -2.0453  0.3556
   23MOL   H243 9967   6.869   2.367   0.141 -0.7654 -0.8703 -0.8215
   23MOL   C244 9968   7.006   2.238   0.020  0.5216 -0.3636 -0.5859
   23MOL   C245 9969   7.144   2.307   0.021 -0.2908  0.7955  0.4645
   23MOL   C246 9970   7.252   2.246   0.104  0.3528 -0.3016 -0.1335
   23MOL   C247 9971   7.387   2.318   0.090  0.5509  0.0437  0.3453
   23MOL   C248 9972   7.375   2.471   0.115  0.0459  0.5986 -0.3589
   23MOL   C249 9973   7.263   2.531   0.028  0.0301  0.2568  0.7222
   23MOL   C250 9974   7.130   2.457   0.044 -0.4135 -0.2501 -0.1042
   23MOL   C251 9975   6.922   2.270   7.665  0.9365 -0.0413 -0.6437
   23MOL   H252 9976   7.017   2.130   0.022  0.5907 -0.3577  2.7055
   23MOL   H253 9977   7.194   2.294   7.697 -1.6991  2.5274 -0.5477
   23MOL   H254 9978   7.270   2.139   0.097 -1.1527 -0.5328 -0.4711
   23MOL   H255 9979   7.214   2.256   0.206  0.1372  1.4043 -0.3574
   23MOL   H256 9980   7.453   2.264   0.158 -0.7006 -1.5966  0.2684
   23MOL   H257 9981   7.429   2.305   7.762 -2.2315  1.3004 -1.0454
   23MOL   H258 9982   7.351   2.487   0.220  0.0231  1.7730 -0.5334
   23MOL   H259 9983   7.467   2.525   0.095 -0.0580  0.8670 -0.1118
   23MOL   H260 9984   7.291   2.536   7.695  0.1162 -0.2682  0.7199
   23MOL   H261 9985   7.264   2.637   0.054  0.6146  0.2629  0.6949
   23MOL   H262 9986   7.093   2.488   0.142 -0.0655  0.7140 -0.2682
   23MOL   H263 9987   7.054   2.495   7.748  0.3218  0.2669 -0.6544
   23MOL   H264 9988   6.890   2.373   7.676  1.3079 -0.0611  0.7355
   23MOL   H265 9989   6.827   2.220   7.684 -0.3308  2.5854  0.1345
   23MOL   C266 9990   6.975   2.242   7.516  0.5366 -0.2924 -0.8845
   23MOL   C267 9991   6.956   2.094   7.470 -0.1310  0.1796  0.1316
   23MOL   C268 9992   6.996   1.985   7.570 -0.0914  0.1868  0.6503
   23MOL   C269 9993   6.989   1.842   7.502 -0.6461 -0.4190  0.3787
   23MOL   C270 9994   7.064   1.834   7.376  0.8309  0.2582 -0.3231
   23MOL   C271 9995   7.010   1.933   7.275  0.1287 -0.4566 -0.3722
   23MOL   C272 9996   7.022   2.077   7.332  0.8301  0.3593  0.2958
   23MOL   C273 9997   6.917   2.354   7.424  0.0663 -0.0286  0.0839
   23MOL   H274 9998   7.079   2.271   7.529  0.2504  0.4642 -0.2372
   23MOL   H275 9999   6.847   2.089   7.469 -0.2117  1.0429  2.0188
   23MOL   H27610000   7.097   2.013   7.600  0.2705 -2.6589  2.2451
   23MOL   H27710001   6.933   1.987   7.658 -2.5104  0.6144 -1.0285
   23MOL   H27810002   6.885   1.809   7.498 -0.5517 -0.5676 -1.1290
   23MOL   H27910003   7.038   1.763   7.559  1.0064 -0.9561 -1.7309
   23MOL   H28010004   7.171   1.852   7.384  1.2243 -3.0523  2.7336
   23MOL   H28110005   7.058   1.737   7.328 -0.6671  1.2316 -2.1967
   23MOL   H28210006   6.905   1.908   7.258  0.6180 -0.8239 -3.0685
   23MOL   H28310007   7.060   1.922   7.179 -0.3968  1.1482 -0.8477
   23MOL   H28410008   6.964   2.142   7.267 -0.2860  1.3769  2.2735
   23MOL   H28510009   7.127   2.104   7.342  1.0762 -0.4123 -0.1983
   23MOL   H28610010   6.987   2.369   7.342 -0.0393  0.4152  0.0767
   23MOL   H28710011   6.927   2.451   7.471 -2.0431  0.9628 -1.4316
   23MOL   C28810012   6.776   2.356   7.357 -0.6530 -0.4358 -0.1280
   23MOL   C28910013   6.753   2.486   7.277  0.5943  0.5669 -0.0647
   23MOL   C29010014   6.745   2.622   7.346 -0.5975 -0.4032  0.0514
   23MOL   C29110015   6.706   2.741   7.257 -0.0396  0.3505  0.6273
   23MOL   C29210016   6.799   2.740   7.130 -0.0288 -0.3006 -0.3161
   23MOL   C29310017   6.804   2.608   7.059 -0.0012 -0.8843  0.2089
   23MOL   C29410018   6.845   2.499   7.150  0.1288 -0.5107 -0.2975
   23MOL   C29510019   6.662   2.328   7.459  0.3490 -0.4840 -0.3447
   23MOL   H29610020   6.785   2.272   7.288  1.0164  1.5225 -2.3499
   23MOL   H29710021   6.653   2.480   7.234 -0.4534 -1.0578  2.4815
   23MOL   H29810022   6.678   2.611   7.432 -2.4467 -0.3123 -1.3315
   23MOL   H29910023   6.846   2.630   7.386 -1.3493  1.5923  1.6416
   23MOL   H30010024   6.605   2.747   7.218 -0.1597 -1.2162  0.6429
   23MOL   H30110025   6.727   2.835   7.309 -1.5513  1.2767 -0.4258
   23MOL   H30210026   6.900   2.770   7.157  0.1037 -0.4066 -0.6881
   23MOL   H30310027   6.768   2.814   7.057 -1.1403  0.9958  1.4352
   23MOL   H30410028   6.862   2.606   6.967 -0.0528 -0.5490  0.1671
   23MOL   H30510029   6.707   2.582   7.015 -1.8116  0.8926  2.9857
   23MOL   H30610030   6.951   2.508   7.173  1.0061 -2.6897 -3.2435
   23MOL   H30710031   6.840   2.400   7.104  3.2496 -0.3945 -1.0247
   23MOL   H30810032   6.671   2.254   7.539 -0.2180 -0.3914 -0.1919
   23MOL   H30910033   6.655   2.421   7.514 -0.8184  0.5185 -2.1446
   23MOL   C31010034   6.516   2.297   7.411 -0.4258  0.1071  0.1098
   23MOL   C31110035   6.495   2.171   7.321  0.4209 -0.1205  0.3732
   23MOL   C31210036   6.516   2.200   7.169 -0.6710 -0.6301 -0.2172
   23MOL   C31310037   6.489   2.080   7.082  0.3275  0.2599 -0.3050
   23MOL   C31410038   6.574   1.956   7.130 -0.3998 -0.2748 -0.0641
   23MOL   C31510039   6.542   1.923   7.279  0.0956 -0.2154 -0.7350
   23MOL   C31610040   6.573   2.048   7.369 -0.1958 -0.1631 -0.1289
   23MOL   C31710041   6.410   2.294   7.530 -0.6485  0.1279  0.3284
   23MOL   H31810042   6.485   2.375   7.342  1.7232  0.9942  0.1234
   23MOL   H31910043   6.391   2.139   7.327  0.0789  0.3115 -2.6308
   23MOL   H32010044   6.461   2.286   7.131  0.7565  0.0378 -0.8048
   23MOL   H32110045   6.622   2.225   7.165  0.1092 -3.3447  1.7143
   23MOL   H32210046   6.502   2.100   6.976  2.6133 -0.2983 -0.1561
   23MOL   H32310047   6.383   2.058   7.091 -0.0988  1.7970 -1.4699
   23MOL   H32410048   6.565   1.873   7.060 -0.9308 -0.8999  0.7337
   23MOL   H32510049   6.680   1.982   7.119 -0.3986 -0.5961 -0.7968
   23MOL   H32610050   6.436   1.898   7.279  0.0989 -0.2856 -1.8246
   23MOL   H32710051   6.588   1.831   7.315 -0.2442  0.1511  0.6363
   23MOL   H32810052   6.681   2.062   7.362 -0.5023  2.3242 -0.3640
   23MOL   H32910053   6.548   2.032   7.474 -1.0015 -0.6555 -0.3851
   23MOL   H33010054   6.465   2.314   7.622  0.9578  2.7855 -1.1413
   23MOL   H33110055   6.380   2.189   7.538 -0.8329  0.1483 -0.1153
   23MOL   C33210056   6.284   2.380   7.515 -0.0491  0.9947 -0.5472
   23MOL   C33310057   6.306   2.532   7.510 -0.5012  0.2387  0.0195
   23MOL   C33410058   6.335   2.594   7.369  0.2327  0.2070  0.1574
   23MOL   C33510059   6.337   2.751   7.366  0.4679  0.0139  0.7607
   23MOL   C33610060   6.432   2.805   7.474  0.2888  1.2830 -0.3100
   23MOL   C33710061   6.403   2.742   7.610 -0.3696  0.2273 -0.0452
   23MOL   C33810062   6.411   2.595   7.607 -0.7523  0.4463 -0.0610
   23MOL   C33910063   6.181   2.340   7.625  0.3111 -0.2406 -0.3730
   23MOL   H34010064   6.233   2.362   7.420  0.3280  0.8216 -0.7199
   23MOL   H34110065   6.216   2.574   7.556 -2.0778  0.2317 -2.9394
   23MOL   H34210066   6.435   2.570   7.332  0.1295 -1.3599  0.8710
   23MOL   H34310067   6.265   2.557   7.294  1.6183 -1.4554 -0.3415
   23MOL   H34410068   6.377   2.783   7.270 -1.2412  2.6863  0.8890
   23MOL   H34510069   6.237   2.792   7.381  0.4058  0.8429 -1.5839
   23MOL   H34610070   6.532   2.786   7.436  1.1060  1.3132  1.7632
   23MOL   H34710071   6.412   2.913   7.473 -1.4840  0.9607 -1.3176
   23MOL   H34810072   6.303   2.770   7.643  0.2581  0.8170  1.4298
   23MOL   H34910073   6.464   2.780   7.692 -0.0404  1.5829 -0.9070
   23MOL   H35010074   6.403   2.554   7.708 -2.3174 -1.8013 -1.0510
   23MOL   H35110075   6.514   2.578   7.575 -0.8453  0.3715 -0.3222
   23MOL   H35210076   6.214   2.393   7.714 -2.9176  0.5141  0.4650
   23MOL   H35310077   6.198   2.233   7.639  0.2061 -0.1545  0.4233
   23MOL   C35410078   6.029   2.369   7.610  0.1811  0.9478 -0.0685
   23MOL   C35510079   5.946   2.330   7.733 -0.3058 -0.2080 -0.4952
   23MOL   C35610080   5.985   2.417   0.080  1.2120  0.1181 -0.1924
   23MOL   C35710081   5.879   2.402   0.193  0.3152 -0.4704  0.0918
   23MOL   C35810082   5.863   2.255   0.229 -0.4650 -0.1005 -0.3594
   23MOL   C35910083   5.836   2.164   0.109 -0.2420  0.2792 -0.8798
   23MOL   C36010084   5.945   2.182   7.770 -0.2144  0.1301 -0.3744
   23MOL   C36110085   5.967   2.298   7.482 -0.6916 -0.7859 -0.6806
   23MOL   H36210086   6.028   2.478   7.601 -0.8608  0.9758  0.3235
   23MOL   H36310087   5.843   2.362   7.720 -0.3462  0.4523  1.2674
   23MOL   H36410088   5.979   2.524   0.057  1.2026  0.1095 -0.2288
   23MOL   H36510089   6.086   2.393   0.114  1.3303  1.5085  0.4746
   23MOL   H36610090   5.911   2.455   0.283  2.9923 -0.4193 -0.8474
   23MOL   H36710091   5.781   2.438   0.161  0.3633  0.1491  0.6365
   23MOL   H36810092   5.960   2.221   0.266 -0.6960 -0.8550 -0.4336
   23MOL   H36910093   5.805   2.227   0.317 -1.2768 -0.0431 -0.8682
   23MOL   H37010094   5.838   2.062   0.146  0.3163  0.0317 -1.5733
   23MOL   H37110095   5.736   2.190   0.076 -0.7119 -0.4586 -0.0458
   23MOL   H37210096   5.935   2.120   7.681  0.0208  1.1001 -1.0901
   23MOL   H37310097   6.043   2.160   0.039 -0.5206 -0.1964  0.1837
   23MOL   H37410098   5.866   2.257   7.487 -1.9249  1.9458 -1.9171
   23MOL   H37510099   6.021   2.206   7.460  2.9112  0.9955  0.4546
   23MOL   C37610100   5.970   2.397   7.355 -0.4539 -0.4512 -0.2867
   23MOL   C37710101   6.009   2.321   7.222  0.0973 -0.0074 -0.2646
   23MOL   C37810102   6.018   2.407   7.097 -0.1208  0.5764 -0.4909
   23MOL   C37910103   6.100   2.323   6.987 -0.6509  0.1160 -0.4211
   23MOL   C38010104   6.011   2.208   6.957 -0.1314  0.1397  0.6470
   23MOL   C38110105   5.987   2.113   7.068  0.1511  0.5595  0.1658
   23MOL   C38210106   5.930   2.193   7.189  0.2658 -0.2249  0.7376
   23MOL   C38310107   5.835   2.475   7.326  0.1529  0.6690 -0.7085
   23MOL   H38410108   6.044   2.477   7.363 -2.5244  1.6978 -1.8085
   23MOL   H38510109   6.112   2.286   7.234 -0.0513 -0.7796 -1.2035
   23MOL   H38610110   5.918   2.407   7.053  0.2293 -0.6357 -1.3013
   23MOL   H38710111   6.057   2.507   7.117  2.5174 -0.0680 -2.1614
   23MOL   H38810112   6.197   2.291   7.024  0.1258  2.2482 -0.5794
   23MOL   H38910113   6.121   2.382   6.899 -0.4897  0.9361  0.1596
   23MOL   H39010114   5.918   2.234   6.906  0.3903  1.8414  0.5588
   23MOL   H39110115   6.073   2.154   6.886 -0.5002  2.1833 -1.2600
   23MOL   H39210116   5.916   2.031   7.052  0.0102  0.7891 -0.4116
   23MOL   H39310117   6.078   2.068   7.108 -0.3533  0.2791  1.0077
   23MOL   H39410118   5.824   2.208   7.169 -0.0466 -1.8117  1.1595
   23MOL   H39510119   5.925   2.123   7.273 -0.9362 -1.2616 -0.1843
   23MOL   H39610120   5.750   2.408   7.326  0.2926  0.4283  1.5949
   23MOL   H39710121   5.842   2.520   7.227 -2.1350  1.6097 -0.4685
   23MOL   C39810122   5.803   2.590   7.429  0.0065  0.1464 -0.0173
   23MOL   C39910123   5.889   2.714   7.422 -0.0182 -0.0570  0.3517
   23MOL   C40010124   5.864   2.819   7.311 -0.4066 -0.6589 -0.0169
   23MOL   C40110125   5.967   2.935   7.319  0.1140  0.0249  0.2412
   23MOL   C40210126   5.983   2.990   7.464  0.0815  0.2166  0.2293
   23MOL   C40310127   6.024   2.884   7.570 -0.6262  0.5882 -0.8234
   23MOL   C40410128   5.920   2.770   7.561  0.7066 -0.2267 -0.3602
   23MOL   C40510129   5.659   2.629   7.423  0.3606 -0.1209  0.1058
   23MOL   H40610130   5.808   2.542   7.526  1.1776 -3.2472 -1.6892
   23MOL   H40710131   5.991   2.686   7.395 -0.7413 -1.2411 -1.2307
   23MOL   H40810132   5.761   2.852   7.326  0.1121  0.2276  1.6890
   23MOL   H40910133   5.859   2.781   7.208 -1.2037  1.3977 -0.7548
   23MOL   H41010134   5.946   3.018   7.251 -1.5956 -0.2960  0.3608
   23MOL   H41110135   6.068   2.905   7.292  0.3065  1.3353 -0.5326
   23MOL   H41210136   5.897   3.043   7.503 -0.5915 -0.6583 -0.0601
   23MOL   H41310137   6.068   3.058   7.456  1.4222 -1.4923 -0.2944
   23MOL   H41410138   6.118   2.836   7.545 -1.6663 -2.1011  0.2528
   23MOL   H41510139   6.035   2.924   7.671  0.2183 -0.4708 -0.4889
   23MOL   H41610140   5.944   2.684   7.624  0.4906 -1.0019 -1.3301
   23MOL   H41710141   5.824   2.812   7.590  0.6741  0.5780 -1.6136
   23MOL   H41810142   5.637   2.720   7.478  0.0757  1.5757 -2.7462
   23MOL   H41910143   5.626   2.633   7.319  3.1674  0.1680 -0.8101
   23MOL   C42010144   5.562   2.518   7.493  0.0590  0.0942  0.3056
   23MOL   C42110145   5.415   2.547   7.456 -0.2376  0.4772  0.3751
   23MOL   C42210146   5.381   2.508   7.308 -0.0300  0.2982  0.2522
   23MOL   C42310147   5.230   2.499   7.285  0.4142  0.2787 -0.4400
   23MOL   C42410148   5.171   2.634   7.315  0.7488  0.0302  1.0371
   23MOL   C42510149   5.211   2.692   7.452  0.5118 -0.1147 -0.0618
   23MOL   C42610150   5.363   2.690   7.481 -0.1312 -0.1019  0.1080
   23MOL   C42710151   5.574   2.517   7.649  0.2001 -0.1338 -0.5837
   23MOL   H42810152   5.591   2.417   7.464 -0.1689  0.4328 -1.1364
   23MOL   H42910153   5.367   2.471   7.518  0.5350 -0.3808 -0.0634
   23MOL   H43010154   5.428   2.578   7.238 -2.3668  0.5010 -1.1551
   23MOL   H43110155   5.434   2.417   7.281 -0.2703 -0.1355  1.2343
   23MOL   H43210156   5.210   2.466   7.183  0.9285 -2.7657  0.3759
   23MOL   H43310157   5.189   2.430   7.358  1.6346  0.0088  0.0056
   23MOL   H43410158   5.064   2.624   7.301  0.9688 -0.6211 -0.3461
   23MOL   H43510159   5.222   2.701   7.246  2.2129 -3.0823 -1.0614
   23MOL   H43610160   5.165   2.641   7.537  0.3474  0.4749  0.2121
   23MOL   H43710161   5.160   2.789   7.454 -0.6250 -0.6421 -2.1241
   23MOL   H43810162   5.404   2.763   7.411 -0.1785  1.2453  1.4648
   23MOL   H43910163   5.383   2.728   7.581 -0.1527 -0.2905  0.1836
   23MOL   H44010164   5.516   2.440   7.700 -2.1740  1.6220 -0.5643
   23MOL   H44110165   5.675   2.510   7.688 -0.5721 -2.1153  1.1453
   23MOL   H44210166   5.535   2.614   7.679 -0.5770 -0.6254  0.0015
   24MOL     C110167   4.601   0.798   1.504  0.6064 -0.7514  0.6900
   24MOL     C210168   4.608   0.709   1.384  0.2079  0.0105  0.2179
   24MOL     C310169   4.649   0.561   1.427  0.8007 -1.0934  0.5411
   24MOL     C410170   4.642   0.473   1.303 -0.5351 -0.0052 -0.3500
   24MOL     C510171   4.730   0.531   1.189  0.4568 -0.7429 -1.1788
   24MOL     C610172   4.698   0.674   1.153  0.0346 -0.4461 -0.1392
   24MOL     C710173   4.707   0.769   1.278  0.0569  0.5465 -0.1616
   24MOL     C810174   4.550   0.941   1.477  0.2606 -0.2921  0.3949
   24MOL     H910175   4.537   0.746   1.576  0.5268  0.2871  1.3905
   24MOL    H1010176   4.506   0.700   1.347 -0.8644  1.4276  2.7239
   24MOL    H1110177   4.752   0.571   1.460  1.7009 -1.4791 -2.0972
   24MOL    H1210178   4.589   0.542   1.516  0.8879 -2.8665  0.2307
   24MOL    H1310179   4.545   0.462   1.254  0.4459  1.7539 -2.7534
   24MOL    H1410180   4.674   0.374   1.335  0.7758  0.7142  0.5984
   24MOL    H1510181   4.711   0.456   1.112  1.1738 -1.5710 -0.5662
   24MOL    H1610182   4.838   0.523   1.203  0.2675 -0.6508  0.4960
   24MOL    H1710183   4.759   0.714   1.073 -0.6786 -2.1261 -1.5588
   24MOL    H1810184   4.599   0.663   1.108  0.1155 -1.6477 -0.0535
   24MOL    H1910185   4.685   0.872   1.249 -0.4085  0.8197  1.1115
   24MOL    H2010186   4.809   0.774   1.316 -0.4529  0.1936  1.2884
   24MOL    H2110187   4.441   0.935   1.484  0.2793  0.6747  1.5956
   24MOL    H2210188   4.572   0.981   1.378  0.4832  1.8862  1.3017
   24MOL    H2310189   4.692   0.806   1.563  0.6795  0.3889  0.4314
   24MOL    C2410190   4.603   1.045   1.579  0.0622  0.3729  0.1984
   24MOL    C2510191   4.568   1.200   1.547  0.3359 -0.0430 -0.3911
   24MOL    C2610192   4.422   1.230   1.497  0.0041  1.2111  0.2097
   24MOL    C2710193   4.397   1.379   1.468 -0.3172 -0.5844 -0.0537
   24MOL    C2810194   4.496   1.437   1.365 -0.3934  0.5520 -0.2906
   24MOL    C2910195   4.638   1.404   1.406  0.2152  0.2086 -0.8388
   24MOL    C3010196   4.664   1.254   1.439 -0.6003  0.1132 -0.4946
   24MOL    C3110197   4.558   1.004   1.719 -0.4173 -0.7650  0.3506
   24MOL    H3210198   4.712   1.042   1.581  0.0073 -0.6713  4.3208
   24MOL    H3310199   4.583   1.262   1.635 -1.7093  1.0221 -0.7491
   24MOL    H3410200   4.340   1.204   1.565  0.9001  1.3416  1.3625
   24MOL    H3510201   4.407   1.172   1.406  0.1948 -0.4939  1.2447
   24MOL    H3610202   4.294   1.395   1.435 -0.7297 -0.6158  1.1986
   24MOL    H3710203   4.408   1.426   1.565  1.4685  1.5485 -1.2421
   24MOL    H3810204   4.489   1.545   1.351  2.9953  0.8481 -0.0499
   24MOL    H3910205   4.469   1.390   1.271 -0.5024  1.2458 -0.6108
   24MOL    H4010206   4.710   1.432   1.330  0.2573 -0.8360 -1.1951
   24MOL    H4110207   4.665   1.486   1.473 -0.9812  0.4313 -0.6179
   24MOL    H4210208   4.642   1.198   1.348  2.4375 -0.2850 -1.0572
   24MOL    H4310209   4.770   1.239   1.463 -1.8370 -0.7473  4.9943
   24MOL    H4410210   4.537   0.898   1.727 -2.8921 -0.2749  0.8681
   24MOL    H4510211   4.460   1.044   1.743  0.5786  2.1381 -0.1584
   24MOL    C4610212   4.657   1.033   1.832  0.7228 -0.3818 -0.3878
   24MOL    C4710213   4.787   0.940   1.837 -0.4809  0.1030 -0.0796
   24MOL    C4810214   4.765   0.806   1.901 -0.3847  0.7212 -0.9229
   24MOL    C4910215   4.892   0.720   1.909  1.2693  0.5504 -0.8491
   24MOL    C5010216   5.002   0.794   1.990  0.4374  0.7082 -0.3079
   24MOL    C5110217   5.033   0.929   1.920  0.3304  0.0908  0.0860
   24MOL    C5210218   4.901   1.010   1.910 -0.4419  0.1525 -0.5953
   24MOL    C5310219   4.586   1.056   1.967  0.5183  0.0877 -0.4498
   24MOL    H5410220   4.694   1.131   1.804 -0.3059  0.3501  0.7584
   24MOL    H5510221   4.829   0.915   1.739  1.0423  1.0724  0.3105
   24MOL    H5610222   4.714   0.801   1.997 -1.4946  0.8687 -1.4922
   24MOL    H5710223   4.691   0.761   1.835 -2.1809  1.1070  0.7826
   24MOL    H5810224   4.926   0.699   1.808  0.5006 -0.0578 -0.9828
   24MOL    H5910225   4.869   0.619   1.943 -3.2243  2.4201  2.2542
   24MOL    H6010226   4.972   0.817   2.092  3.2657  0.2392  0.6685
   24MOL    H6110227   5.095   0.740   2.006 -0.1522 -0.5169 -0.9098
   24MOL    H6210228   5.075   0.907   1.821  0.8528 -0.6508  0.4646
   24MOL    H6310229   5.113   0.985   1.967 -0.0513  0.4395  0.3146
   24MOL    H6410230   4.862   1.033   2.010  0.2271 -2.0643  0.2011
   24MOL    H6510231   4.909   1.103   1.853  0.2561  0.6192  0.2463
   24MOL    H6610232   4.658   1.050   2.049 -0.2289  1.8757  0.3580
   24MOL    H6710233   4.526   0.966   1.979  2.6635 -1.4869 -1.1953
   24MOL    C6810234   4.497   1.186   1.974 -0.1517  0.1776 -0.1617
   24MOL    C6910235   4.348   1.161   2.010  0.8971 -0.3760  0.4383
   24MOL    C7010236   4.331   1.110   2.148  0.2488 -1.0311 -0.4688
   24MOL    C7110237   4.180   1.092   2.177 -0.0752 -0.2347 -0.3716
   24MOL    C7210238   4.095   1.217   2.156  0.1366 -0.4679  0.0240
   24MOL    C7310239   4.099   1.254   2.007 -0.2070 -0.9523 -0.1645
   24MOL    C7410240   4.257   1.281   1.969 -0.0106 -0.1191  0.4580
   24MOL    C7510241   4.552   1.293   2.074 -0.3043 -0.1351 -0.4513
   24MOL    H7610242   4.488   1.228   1.874  3.4829 -1.3461 -1.1899
   24MOL    H7710243   4.315   1.087   1.937 -2.4571  2.8938 -1.5430
   24MOL    H7810244   4.366   1.175   2.228  0.4923 -0.3647 -1.1118
   24MOL    H7910245   4.383   1.015   2.157  4.1669  1.1103  0.2611
   24MOL    H8010246   4.136   1.013   2.117 -0.3992 -0.0603 -0.3632
   24MOL    H8110247   4.167   1.068   2.283 -1.3002  0.9948 -0.2208
   24MOL    H8210248   4.126   1.302   2.217  0.8918 -0.9762  0.3442
   24MOL    H8310249   3.990   1.193   2.173  0.6395 -1.3430  1.9422
   24MOL    H8410250   4.033   1.339   1.992 -0.0585 -0.4980  1.5491
   24MOL    H8510251   4.053   1.169   1.957 -1.5338 -1.2695  1.5245
   24MOL    H8610252   4.273   1.381   2.010  0.3487 -0.6239  1.5386
   24MOL    H8710253   4.263   1.288   1.860  2.2008  0.5290  0.6029
   24MOL    H8810254   4.497   1.387   2.065  2.1756  1.4262  0.2110
   24MOL    H8910255   4.543   1.264   2.179  4.0710 -0.3853 -0.0666
   24MOL    C9010256   4.701   1.335   2.043  0.2530  0.4531  0.3582
   24MOL    C9110257   4.717   1.414   1.912 -0.3507  0.0663  0.0753
   24MOL    C9210258   4.641   1.554   1.910  0.4000  0.0647 -0.0671
   24MOL    C9310259   4.639   1.613   1.770 -0.4029 -0.1880  0.6780
   24MOL    C9410260   4.777   1.626   1.710  0.0598  0.0564  0.4274
   24MOL    C9510261   4.863   1.501   1.713 -0.4842  0.3422  1.0192
   24MOL    C9610262   4.865   1.441   1.857  0.0428  0.0913 -0.2543
   24MOL    C9710263   4.768   1.410   2.159 -0.2867 -0.2328 -0.5408
   24MOL    H9810264   4.756   1.242   2.030 -1.6867 -0.5806 -0.7399
   24MOL    H9910265   4.672   1.355   1.832  1.5324 -0.0357 -0.9436
   24MOL   H10010266   4.675   1.622   1.988 -1.4734 -0.7773  1.5090
   24MOL   H10110267   4.535   1.539   1.930 -0.2304  1.4577 -2.1794
   24MOL   H10210268   4.599   1.714   1.772  0.2829  0.1726 -1.8808
   24MOL   H10310269   4.575   1.545   1.713  1.9313 -1.1526 -0.8766
   24MOL   H10410270   4.823   1.705   1.769 -1.2654  0.7307  0.5596
   24MOL   H10510271   4.770   1.661   1.607  1.4095 -1.3024 -0.1413
   24MOL   H10610272   4.823   1.428   1.643  2.9556 -1.6664  0.9975
   24MOL   H10710273   4.968   1.523   1.690 -0.1145 -1.4998  0.8066
   24MOL   H10810274   4.917   1.346   1.861  1.1723  0.7176  0.1538
   24MOL   H10910275   4.913   1.500   1.935  3.3202 -1.4991 -1.0048
   24MOL   H11010276   4.803   1.507   2.123 -1.7221  1.0929  1.4880
   24MOL   H11110277   4.682   1.431   2.222  1.3754 -0.2451  1.8059
   24MOL   C11210278   4.871   1.331   2.241  0.3715 -0.6136  0.5504
   24MOL   C11310279   4.811   1.208   2.310 -0.4434  0.2981 -0.2312
   24MOL   C11410280   4.726   1.245   2.434 -0.9059 -0.2419 -0.5982
   24MOL   C11510281   4.652   1.120   2.484  0.1402  0.2572  0.2206
   24MOL   C11610282   4.747   1.004   2.520  0.4411 -0.2202  0.7659
   24MOL   C11710283   4.845   0.975   2.415 -0.2869  0.3466 -0.1774
   24MOL   C11810284   4.909   1.097   2.347  0.1988  0.4307  0.2701
   24MOL   C11910285   4.939   1.433   2.339  0.1814 -0.2872  0.6337
   24MOL   H12010286   4.943   1.294   2.168  0.3646 -0.1154  0.2866
   24MOL   H12110287   4.740   1.167   2.239  0.8490  1.4745 -2.2531
   24MOL   H12210288   4.657   1.328   2.419 -1.1230 -0.5380 -1.2559
   24MOL   H12310289   4.783   1.287   2.517 -1.2069  0.3815 -0.7049
   24MOL   H12410290   4.579   1.150   2.558  0.7718  1.4433  0.3634
   24MOL   H12510291   4.594   1.079   2.401 -1.5955  1.0049  1.0475
   24MOL   H12610292   4.783   1.033   2.619 -2.0022  3.7919  0.5912
   24MOL   H12710293   4.685   0.915   2.532  0.7094 -0.4168  0.6950
   24MOL   H12810294   4.919   0.908   2.457 -1.2071 -1.6127 -1.6083
   24MOL   H12910295   4.796   0.919   2.335 -2.3904  2.4528 -0.4176
   24MOL   H13010296   4.955   1.061   2.255 -3.3603  0.2302 -1.5330
   24MOL   H13110297   4.986   1.139   2.411  0.4117 -1.6548  1.4142
   24MOL   H13210298   4.978   1.370   2.420 -0.6143 -1.5172  0.0734
   24MOL   H13310299   4.866   1.489   2.397  0.8040  1.8758 -0.6174
   24MOL   C13410300   5.039   1.531   2.274 -0.2522  0.6802  0.3233
   24MOL   C13510301   5.148   1.471   2.186  0.6446 -0.2122  0.3356
   24MOL   C13610302   5.254   1.377   2.251 -0.5673  0.0905  0.7261
   24MOL   C13710303   5.364   1.326   2.144  0.0808  0.1401  0.4841
   24MOL   C13810304   5.423   1.436   2.056  0.1636 -0.4434 -0.2866
   24MOL   C13910305   5.318   1.526   2.000 -0.6789 -0.8039  0.0790
   24MOL   C14010306   5.229   1.585   2.107  0.6690  0.4518 -0.3952
   24MOL   C14110307   5.088   1.632   2.377  0.2196  0.2061  0.9598
   24MOL   H14210308   4.980   1.589   2.204  0.5844  0.2988 -0.7122
   24MOL   H14310309   5.099   1.416   2.105  0.0500  1.1438 -0.2364
   24MOL   H14410310   5.306   1.436   2.326  0.4286 -0.0040  0.1231
   24MOL   H14510311   5.201   1.288   2.284  1.6308 -1.7521 -0.5111
   24MOL   H14610312   5.310   1.258   2.077  1.6116 -2.6255  1.9480
   24MOL   H14710313   5.451   1.272   2.181  0.6127  1.2240  0.8408
   24MOL   H14810314   5.504   1.486   2.109 -0.6721  0.8953 -0.2546
   24MOL   H14910315   5.467   1.382   1.972 -0.3776  0.2888 -1.0601
   24MOL   H15010316   5.252   1.471   1.934 -3.3138  1.3686  0.8370
   24MOL   H15110317   5.358   1.602   1.933  2.0317 -1.8567  0.4352
   24MOL   H15210318   5.293   1.637   2.178 -0.9342  1.5942  0.2595
   24MOL   H15310319   5.165   1.657   2.055 -0.6502 -0.0095  0.5799
   24MOL   H15410320   5.197   1.635   2.383  0.2856  0.6272 -0.5188
   24MOL   H15510321   5.066   1.604   2.480  1.0763  0.8091  1.3186
   24MOL   C15610322   5.036   1.780   2.356 -0.5463  0.0061 -0.1473
   24MOL   C15710323   5.105   1.886   2.452  0.5566 -0.0758  0.4109
   24MOL   C15810324   5.123   1.838   2.601  0.0359 -0.5760 -0.5210
   24MOL   C15910325   5.166   1.951   2.695 -0.1209  0.6473  0.6363
   24MOL   C16010326   5.289   2.023   2.638 -0.4127  0.0093 -0.6731
   24MOL   C16110327   5.281   2.060   2.490  0.0324  0.4804  0.7478
   24MOL   C16210328   5.231   1.944   2.405  0.4522 -0.1693  0.6104
   24MOL   C16310329   4.889   1.789   2.373 -0.2268  0.0959 -0.3680
   24MOL   H16410330   5.066   1.797   2.253  1.5920  2.3629  0.7967
   24MOL   H16510331   5.041   1.973   2.445 -0.5571 -0.9070  0.1492
   24MOL   H16610332   5.021   1.807   2.622 -0.7178  1.0999 -1.6234
   24MOL   H16710333   5.193   1.754   2.608  2.3195  1.2346 -0.8789
   24MOL   H16810334   5.080   2.016   2.714  0.8427  2.3192 -0.5160
   24MOL   H16910335   5.189   1.922   2.797  0.4601 -0.9998  0.0408
   24MOL   H17010336   5.381   1.965   2.642 -0.0006  0.5989 -1.3207
   24MOL   H17110337   5.303   2.123   2.680 -1.7651 -0.1287  0.1200
   24MOL   H17210338   5.381   2.084   2.452  0.6177 -0.7622  1.4642
   24MOL   H17310339   5.225   2.151   2.470  1.3856  0.8028 -1.7401
   24MOL   H17410340   5.217   1.988   2.306  0.3995 -0.8860  0.2970
   24MOL   H17510341   5.305   1.865   2.392 -1.6250 -1.8620 -1.2744
   24MOL   H17610342   4.868   1.842   2.466  0.1285  1.0123 -0.8001
   24MOL   H17710343   4.842   1.693   2.397 -0.9118  0.3504 -0.6736
   24MOL   C17810344   4.804   1.848   2.253  0.7580  0.1677 -0.7023
   24MOL   C17910345   4.649   1.848   2.290  0.1434  0.0461  0.1299
   24MOL   C18010346   4.602   1.931   2.420 -0.0544  0.0757 -0.6196
   24MOL   C18110347   4.445   1.921   2.426 -0.9354 -0.8516 -0.6402
   24MOL   C18210348   4.396   1.780   2.428 -0.0153 -0.4144  0.1235
   24MOL   C18310349   4.442   1.700   2.307 -0.7931  0.4623  0.5396
   24MOL   C18410350   4.593   1.705   2.305 -0.5426  0.3525  1.1353
   24MOL   C18510351   4.848   1.991   2.217 -0.0216  0.1791  0.4027
   24MOL   H18610352   4.829   1.778   2.173  2.4006 -0.0438 -0.0365
   24MOL   H18710353   4.592   1.888   2.206  0.5842  0.5558  0.0672
   24MOL   H18810354   4.643   1.891   2.513  3.6725  2.9688 -0.8983
   24MOL   H18910355   4.636   2.034   2.419  0.7509 -0.1538  1.2598
   24MOL   H19010356   4.406   1.986   2.347 -1.1890 -1.4899 -1.0485
   24MOL   H19110357   4.420   1.968   2.521 -0.2141 -1.5960 -0.0703
   24MOL   H19210358   4.429   1.729   2.519 -0.7629 -1.7212 -0.3069
   24MOL   H19310359   4.287   1.784   2.426  0.0730  1.4588 -1.8060
   24MOL   H19410360   4.394   1.744   2.220 -1.0282 -0.5211  0.1706
   24MOL   H19510361   4.405   1.599   2.321  1.3821  0.1219  4.7499
   24MOL   H19610362   4.634   1.660   2.395  0.6759  0.0427  0.4378
   24MOL   H19710363   4.613   1.648   2.214 -1.5800 -0.0074  1.1197
   24MOL   H19810364   4.780   2.062   2.265 -0.9565  1.3798 -2.5426
   24MOL   H19910365   4.948   2.011   2.256  0.9589 -1.7549 -1.0362
   24MOL   C20010366   4.852   2.009   2.063 -0.1862  0.5636  0.0437
   24MOL   C20110367   4.707   2.014   1.997  0.0009  0.0060  0.2846
   24MOL   C20210368   4.628   2.136   2.047 -0.4306  0.5795 -0.2468
   24MOL   C20310369   4.480   2.134   1.992 -0.1026  0.5703 -0.1185
   24MOL   C20410370   4.490   2.153   1.847 -0.0271  0.3700 -0.5571
   24MOL   C20510371   4.567   2.032   1.784 -0.0269 -0.4920  1.0142
   24MOL   C20610372   4.705   2.031   1.845 -0.1845  0.8982 -0.8748
   24MOL   C20710373   4.937   2.129   2.025 -0.3824 -0.2737  0.1139
   24MOL   H20810374   4.889   1.921   2.009  0.4269 -0.0124  1.3816
   24MOL   H20910375   4.662   1.916   2.012  0.5450 -0.2035  0.5705
   24MOL   H21010376   4.683   2.229   2.035 -0.4409  0.6246  0.0355
   24MOL   H21110377   4.615   2.120   2.155  0.4984  0.2160 -0.1840
   24MOL   H21210378   4.438   2.038   2.022  2.3332 -0.6942 -0.6189
   24MOL   H21310379   4.424   2.214   2.040  1.1902  2.6209 -1.8823
   24MOL   H21410380   4.390   2.156   1.803  0.6019 -1.5741 -2.1921
   24MOL   H21510381   4.531   2.251   1.823 -0.6177  0.4764 -1.1766
   24MOL   H21610382   4.524   1.936   1.814 -0.5124 -0.3068  0.9106
   24MOL   H21710383   4.564   2.036   1.675  1.6059 -2.1980  0.8935
   24MOL   H21810384   4.766   1.956   1.794  1.3721  0.7283  1.1547
   24MOL   H21910385   4.743   2.131   1.822  3.1899 -0.0177  0.3075
   24MOL   H22010386   4.910   2.155   1.923  0.0845  1.5603  0.4377
   24MOL   H22110387   4.888   2.211   2.077 -0.2592 -0.5849  0.7233
   24MOL   C22210388   5.083   2.124   2.066 -0.1333 -0.6632  0.0172
   24MOL   C22310389   5.193   2.117   1.950  0.0809 -0.4721  0.1420
   24MOL   C22410390   5.180   1.975   1.889  0.7696  0.1957  0.4786
   24MOL   C22510391   5.294   1.951   1.789  0.0502  0.3339  0.2055
   24MOL   C22610392   5.429   1.957   1.855  0.4057  0.0383  0.4887
   24MOL   C22710393   5.446   2.101   1.910 -0.4536 -0.0301  0.5638
   24MOL   C22810394   5.333   2.149   2.001 -0.1849  0.5295 -0.7432
   24MOL   C22910395   5.110   2.239   2.175 -0.2250 -0.6759 -0.4130
   24MOL   H23010396   5.102   2.031   2.119 -1.1914 -1.9646 -1.8103
   24MOL   H23110397   5.179   2.186   1.867  1.5124 -0.9134 -0.4846
   24MOL   H23210398   5.189   1.906   1.973  2.8525  0.0735  0.1825
   24MOL   H23310399   5.090   1.955   1.831  1.6337 -3.9586  0.4052
   24MOL   H23410400   5.284   2.017   1.703  1.1428  1.1918  0.7256
   24MOL   H23510401   5.310   1.852   1.745  2.6658  1.5853 -1.8033
   24MOL   H23610402   5.434   1.891   1.941  2.1089 -0.8755 -0.2942
   24MOL   H23710403   5.499   1.918   1.781 -0.7965 -1.0764 -0.0802
   24MOL   H23810404   5.462   2.173   1.829  0.3755  1.3550  1.9204
   24MOL   H23910405   5.546   2.100   1.954 -0.2356 -0.8313  0.0603
   24MOL   H24010406   5.337   2.097   2.097 -1.2660 -0.6563 -1.3332
   24MOL   H24110407   5.338   2.255   2.023 -1.6005  0.5238 -0.3708
   24MOL   H24210408   5.211   2.229   2.215 -0.2599 -1.0840 -0.4256
   24MOL   H24310409   5.045   2.208   2.257  0.1935 -0.6041 -0.0501
   24MOL   C24410410   5.076   2.384   2.149 -0.2513 -0.1819 -0.4062
   24MOL   C24510411   4.987   2.455   2.255  0.1726 -0.6246  0.1887
   24MOL   C24610412   5.013   2.414   2.405 -0.3062 -0.6582 -0.0558
   24MOL   C24710413   4.937   2.506   2.495  0.1535  0.0498 -0.2202
   24MOL   C24810414   4.786   2.496   2.469  0.5670 -0.1540 -0.0652
   24MOL   C24910415   4.762   2.541   2.322  0.2251 -0.2523 -0.2440
   24MOL   C25010416   4.842   2.448   2.231 -0.5384 -0.0251 -0.2904
   24MOL   C25110417   5.054   2.431   2.004  0.6198 -0.3089 -0.8372
   24MOL   H25210418   5.172   2.433   2.159 -1.1131  1.2264  1.4480
   24MOL   H25310419   5.008   2.562   2.246  4.1997 -1.2986  0.8607
   24MOL   H25410420   5.117   2.393   2.428 -1.1627 -1.1623  3.6202
   24MOL   H25510421   4.970   2.318   2.431 -1.2793  0.2304  1.6928
   24MOL   H25610422   4.954   2.494   2.602  0.1235 -1.0400 -0.3334
   24MOL   H25710423   4.973   2.606   2.472 -0.6083  0.2107 -0.7244
   24MOL   H25810424   4.753   2.393   2.484  1.1874  0.1524  3.9568
   24MOL   H25910425   4.732   2.551   2.546  0.3603  2.1474 -1.7945
   24MOL   H26010426   4.789   2.645   2.302  0.7975 -0.6614 -1.6622
   24MOL   H26110427   4.657   2.530   2.297  0.2305 -0.9504  0.0317
   24MOL   H26210428   4.809   2.351   2.266  2.5731 -1.0635 -0.1140
   24MOL   H26310429   4.813   2.472   2.128 -0.4865 -0.6977 -0.4627
   24MOL   H26410430   4.968   2.375   1.966  0.8206 -0.4941 -1.0239
   24MOL   H26510431   5.126   2.376   1.943 -0.0144 -0.8544 -1.1094
   24MOL   C26610432   5.041   2.582   1.954  0.2834  0.5099  0.6781
   24MOL   C26710433   5.180   2.656   1.951  0.1997  0.5100 -0.7862
   24MOL   C26810434   5.305   2.576   1.899  0.5845 -0.8174  0.3828
   24MOL   C26910435   5.438   2.648   1.917  1.1880 -0.2932 -0.1162
   24MOL   C27010436   5.467   2.684   2.064 -0.7123  0.2011 -0.0288
   24MOL   C27110437   5.352   2.779   2.102 -0.2080  0.2491 -0.4892
   24MOL   C27210438   5.211   2.717   2.089 -0.9854 -0.2649  0.4211
   24MOL   C27310439   4.986   2.584   1.811  0.1987 -0.4148  0.4010
   24MOL   H27410440   4.981   2.631   2.031 -0.4107 -0.4723  0.7629
   24MOL   H27510441   5.165   2.738   1.880 -3.0643  0.3448 -0.3379
   24MOL   H27610442   5.304   2.478   1.948 -0.4197 -1.3530 -0.6801
   24MOL   H27710443   5.279   2.560   1.794 -2.4246 -2.1061  1.2488
   24MOL   H27810444   5.440   2.730   1.845  0.3103 -0.8265 -0.7583
   24MOL   H27910445   5.515   2.577   1.885  0.4817 -0.0706 -2.4188
   24MOL   H28010446   5.447   2.598   2.128  0.7336  0.5848  0.9625
   24MOL   H28110447   5.571   2.717   2.070 -0.9216  1.1576 -1.4610
   24MOL   H28210448   5.358   2.868   2.038 -1.5260 -0.1379 -1.1913
   24MOL   H28310449   5.372   2.828   2.197 -1.2269  1.0081 -0.6534
   24MOL   H28410450   5.137   2.792   2.116 -1.4205 -0.3023 -0.6295
   24MOL   H28510451   5.207   2.633   2.157 -3.6156 -0.3402  0.2088
   24MOL   H28610452   4.920   2.498   1.808 -0.0894 -0.1590 -0.8595
   24MOL   H28710453   5.065   2.554   1.741  0.8662  1.3630  0.3684
   24MOL   C28810454   4.907   2.706   1.746 -0.1226 -0.1163  0.5302
   24MOL   C28910455   4.822   2.653   1.629 -0.1002 -0.9351  0.6124
   24MOL   C29010456   4.894   2.568   1.521  0.2809  0.0274  0.6469
   24MOL   C29110457   4.801   2.532   1.410  0.3964 -0.0829  0.1548
   24MOL   C29210458   4.693   2.434   1.465 -0.3233  0.4839  0.5896
   24MOL   C29310459   4.609   2.512   1.571 -1.0123  0.0627  0.0374
   24MOL   C29410460   4.691   2.585   1.674 -0.0899 -0.2797 -0.1471
   24MOL   C29510461   5.006   2.815   1.680  0.1259  0.4321  0.0127
   24MOL   H29610462   4.851   2.743   1.831  1.3386 -0.1098  1.5115
   24MOL   H29710463   4.789   2.745   1.581 -0.9204 -1.7216 -0.3716
   24MOL   H29810464   4.971   2.635   1.483  1.0294  0.8155  3.4369
   24MOL   H29910465   4.931   2.473   1.560  1.1009  0.1389  0.1385
   24MOL   H30010466   4.760   2.622   1.364 -1.0623 -0.7293  0.1614
   24MOL   H30110467   4.862   2.482   1.335  0.3527  1.1901 -0.7317
   24MOL   H30210468   4.735   2.342   1.505  3.6725  2.3148  0.8616
   24MOL   H30310469   4.628   2.406   1.382 -0.7564  1.8507  0.4509
   24MOL   H30410470   4.532   2.447   1.612  2.0622 -1.2489  4.0582
   24MOL   H30510471   4.553   2.586   1.514 -0.9308  0.6365  0.7091
   24MOL   H30610472   4.726   2.511   1.746  2.4550  1.9286  0.9718
   24MOL   H30710473   4.635   2.664   1.724  0.9409 -0.2884  1.0365
   24MOL   H30810474   5.104   2.771   1.665 -0.0455 -0.0325  0.2241
   24MOL   H30910475   4.978   2.830   1.576 -1.6546  2.1979  0.7145
   24MOL   C31010476   5.011   2.948   1.751 -0.1245 -0.2423 -0.5170
   24MOL   C31110477   5.135   3.043   1.715  0.0931 -0.0302  0.4065
   24MOL   C31210478   5.272   2.973   1.720 -0.3446 -0.5705 -0.1836
   24MOL   C31310479   5.374   3.073   1.682 -1.2875  0.1241 -0.1354
   24MOL   C31410480   5.365   3.129   1.539 -0.0766  0.0570  0.0405
   24MOL   C31510481   5.233   3.203   1.530  0.2543 -0.0979  0.0213
   24MOL   C31610482   5.115   3.124   1.587 -0.0147  0.3246  0.2788
   24MOL   C31710483   4.874   3.019   1.767  0.7406 -0.1357 -0.1013
   24MOL   H31810484   5.026   2.915   1.854 -1.7804 -0.1849 -0.2414
   24MOL   H31910485   5.154   3.119   1.791  1.5265  0.5428 -0.4981
   24MOL   H32010486   5.295   2.936   1.820  0.0962 -1.6660 -0.6722
   24MOL   H32110487   5.296   2.893   1.650 -1.8889  0.4452 -1.9098
   24MOL   H32210488   5.469   3.019   1.688 -1.5049 -0.2394  0.0171
   24MOL   H32310489   5.379   3.154   1.754 -0.6092 -0.3363  0.3304
   24MOL   H32410490   5.452   3.195   1.530 -0.1421  0.3710  1.5881
   24MOL   H32510491   5.362   3.042   1.474 -0.3131 -0.4884  0.7799
   24MOL   H32610492   5.245   3.297   1.583  2.5469  0.2828 -1.1006
   24MOL   H32710493   5.203   3.233   1.429  1.2204 -0.1313 -0.2827
   24MOL   H32810494   5.075   3.063   1.506 -0.8614  1.1584  0.0726
   24MOL   H32910495   5.033   3.194   1.599 -1.0539 -0.2742 -2.8292
   24MOL   H33010496   4.794   2.945   1.770 -0.9187  1.6742  2.3619
   24MOL   H33110497   4.873   3.073   1.673  1.1761  0.9437  0.4980
   24MOL   C33210498   4.865   3.126   1.881  0.4615 -0.0837  0.1263
   24MOL   C33310499   4.896   3.083   2.034 -0.0442 -0.2176 -0.4943
   24MOL   C33410500   4.804   2.967   2.081 -0.0243 -0.0496 -0.2748
   24MOL   C33510501   4.831   2.922   2.225 -0.4142  0.5903 -0.7536
   24MOL   C33610502   4.823   3.044   2.327 -1.3025  0.4360 -0.2425
   24MOL   C33710503   4.919   3.153   2.284  0.8216  0.3648 -0.2793
   24MOL   C33810504   4.886   3.193   2.136 -0.9534 -0.3564 -0.6280
   24MOL   C33910505   4.737   3.214   1.864  0.6616  0.5483 -0.6698
   24MOL   H34010506   4.951   3.190   1.860  1.3928 -1.2111  0.4973
   24MOL   H34110507   4.997   3.042   2.034 -0.2185 -0.7220 -2.9927
   24MOL   H34210508   4.698   2.991   2.075  0.1435  1.1300  1.0895
   24MOL   H34310509   4.820   2.879   2.019 -0.2897  0.7760 -1.5257
   24MOL   H34410510   4.769   2.839   2.259  1.2601 -0.1922  0.4358
   24MOL   H34510511   4.934   2.886   2.226 -0.1010  1.4641 -1.4483
   24MOL   H34610512   4.721   3.079   2.338 -1.8968 -1.8630  2.1632
   24MOL   H34710513   4.836   3.020   2.433 -1.6487 -0.9907 -0.5110
   24MOL   H34810514   5.020   3.112   2.295 -0.1814 -1.8942  0.8338
   24MOL   H34910515   4.913   3.244   2.343 -0.2158  0.1712 -0.0815
   24MOL   H35010516   4.951   3.277   2.113  1.9758 -2.1453  0.7540
   24MOL   H35110517   4.788   3.240   2.131 -0.6705  0.3660  0.5858
   24MOL   H35210518   4.664   3.176   1.936  0.8874  1.0138 -0.1975
   24MOL   H35310519   4.692   3.176   1.772 -0.9712 -2.3101  1.2253
   24MOL   C35410520   4.756   3.373   1.861 -0.8524  0.2721 -1.0316
   24MOL   C35510521   4.614   3.445   1.864  0.1766  0.5348 -0.3711
   24MOL   C35610522   4.541   3.442   2.004  0.3153  0.4106  0.1330
   24MOL   C35710523   4.413   3.534   2.004 -0.4839  0.1855  0.3603
   24MOL   C35810524   4.319   3.499   1.895  0.2950 -0.4645 -0.0314
   24MOL   C35910525   4.391   3.504   1.762  0.5795 -0.4370  0.9292
   24MOL   C36010526   4.513   3.417   1.755  0.0725  0.2608  0.2499
   24MOL   C36110527   4.854   3.418   1.757 -0.3916 -0.2511  0.0801
   24MOL   H36210528   4.794   3.404   1.958 -2.8549 -1.5952  0.4151
   24MOL   H36310529   4.643   3.549   1.854  0.4922  0.7411  2.2828
   24MOL   H36410530   4.618   3.469   2.076  0.6254 -0.8176  0.2791
   24MOL   H36510531   4.508   3.339   2.019 -3.0082  1.3642 -0.1657
   24MOL   H36610532   4.360   3.517   2.098  0.8715 -2.2189  0.7361
   24MOL   H36710533   4.443   3.638   1.992  1.9205 -0.4920  0.2005
   24MOL   H36810534   4.250   3.419   1.920 -2.1089  1.6671  0.3185
   24MOL   H36910535   4.244   3.576   1.883  0.6002 -0.3207 -1.0765
   24MOL   H37010536   4.335   3.470   1.675  1.9880 -0.5877  0.0723
   24MOL   H37110537   4.414   3.607   1.734 -0.6165 -0.2451  0.5919
   24MOL   H37210538   4.553   3.434   1.655  2.3968 -1.4262  0.8433
   24MOL   H37310539   4.479   3.314   1.764 -2.3245  1.1076  1.2480
   24MOL   H37410540   4.801   3.461   1.672  0.1691 -2.8786 -1.6357
   24MOL   H37510541   4.896   3.329   1.711 -1.0146 -1.5750  1.9895
   24MOL   C37610542   4.958   3.533   1.797  0.4517 -0.0270  0.8574
   24MOL   C37710543   4.884   3.674   1.809 -0.1632  0.2374  0.0716
   24MOL   C37810544   4.960   3.803   1.756  0.0102 -0.1031 -0.0998
   24MOL   C37910545   4.867   3.925   1.756  0.3024  0.3082  0.4522
   24MOL   C38010546   4.797   3.946   1.890 -0.1808 -0.0630 -0.1287
   24MOL   C38110547   4.720   3.827   1.947 -0.1998 -0.1294  0.1094
   24MOL   C38210548   4.825   3.710   1.945  0.6126 -0.0529  0.2939
   24MOL   C38310549   5.046   3.487   1.918  0.3976 -0.5497  0.5790
   24MOL   H38410550   5.028   3.544   1.714 -0.6046 -1.7673 -0.2987
   24MOL   H38510551   4.794   3.674   1.747 -1.1256  1.6721  1.4394
   24MOL   H38610552   5.037   3.826   1.830 -1.2479 -2.4868  2.0337
   24MOL   H38710553   4.997   3.794   1.653 -1.1526 -0.8265 -0.4614
   24MOL   H38810554   4.791   3.912   1.679  1.4243 -3.4012 -0.1462
   24MOL   H38910555   4.924   4.017   1.749  0.2626  0.3277  0.3799
   24MOL   H39010556   4.870   3.978   1.964 -1.1796  1.2470  0.3131
   24MOL   H39110557   4.724   4.026   1.880  0.7812  0.7629 -0.6083
   24MOL   H39210558   4.682   3.844   2.048  1.6502  0.3009  0.7518
   24MOL   H39310559   4.635   3.798   1.885 -1.5116  0.9768  1.3666
   24MOL   H39410560   4.911   3.746   2.001  3.0490 -2.8482 -1.4931
   24MOL   H39510561   4.796   3.622   2.003 -0.0239  0.3840  0.6452
   24MOL   H39610562   5.076   3.383   1.903  2.3644  0.0980 -0.1892
   24MOL   H39710563   4.989   3.485   2.011 -1.4214 -1.7845 -0.5295
   24MOL   C39810564   5.177   3.569   1.931 -0.8604 -0.3497  0.4330
   24MOL   C39910565   5.242   3.525   2.071 -0.1115  0.6053 -0.5254
   24MOL   C40010566   5.298   3.379   2.086 -0.0699 -0.0658 -0.4175
   24MOL   C40110567   5.367   3.345   2.218  0.4161 -0.4596 -1.0028
   24MOL   C40210568   5.490   3.434   2.223 -0.2520 -0.2175  0.5014
   24MOL   C40310569   5.447   3.578   2.235 -0.4453  0.1840  0.1710
   24MOL   C40410570   5.360   3.620   2.104 -0.5184  0.4001 -0.0374
   24MOL   C40510571   5.278   3.544   1.810 -0.3589 -0.1508 -0.6532
   24MOL   H40610572   5.139   3.668   1.957  0.4276 -0.2408  1.9697
   24MOL   H40710573   5.164   3.536   2.147 -2.0115 -1.4166 -2.1513
   24MOL   H40810574   5.360   3.348   2.001 -0.1649  0.2778 -0.6134
   24MOL   H40910575   5.207   3.320   2.091  0.3963 -0.5911  2.2521
   24MOL   H41010576   5.414   3.247   2.214 -0.1865 -0.7494 -1.0195
   24MOL   H41110577   5.302   3.349   2.305  1.7568 -2.5636  0.1191
   24MOL   H41210578   5.562   3.417   2.144  0.7820 -0.9686  1.5820
   24MOL   H41310579   5.541   3.415   2.318 -0.5323 -0.1212  0.6712
   24MOL   H41410580   5.389   3.590   2.327 -2.1768  2.1619 -1.1352
   24MOL   H41510581   5.530   3.646   2.256 -0.2217 -0.6916  2.1902
   24MOL   H41610582   5.335   3.726   2.108 -1.6437  0.1614 -0.5323
   24MOL   H41710583   5.433   3.622   2.023 -0.4798 -1.4492 -0.0725
   24MOL   H41810584   5.379   3.518   1.842  0.0858  0.9193 -1.1813
   24MOL   H41910585   5.246   3.456   1.753 -1.0684 -0.6641  0.5183
   24MOL   C42010586   5.298   3.672   1.712  0.4525  0.1648  0.4577
   24MOL   C42110587   5.363   3.642   1.578  0.0221  0.5479  0.4858
   24MOL   C42210588   5.257   3.599   1.475  0.3266  0.4263  0.3559
   24MOL   C42310589   5.325   3.574   1.332  0.5336  0.7389 -0.3778
   24MOL   C42410590   5.436   3.466   1.341 -0.2333  0.2403 -0.3839
   24MOL   C42510591   5.535   3.514   1.451  1.1157  0.5347 -0.0505
   24MOL   C42610592   5.472   3.535   1.590 -0.5424  0.1799  0.6906
   24MOL   C42710593   5.355   3.801   1.769 -0.5148 -0.9970  1.1127
   24MOL   H42810594   5.201   3.713   1.684  0.7249  0.9091  0.5787
   24MOL   H42910595   5.402   3.734   1.535 -0.3495  0.1660 -0.6735
   24MOL   H43010596   5.182   3.525   1.504 -0.5455  1.6619  1.3017
   24MOL   H43110597   5.196   3.689   1.471  1.8359  1.4017 -1.3238
   24MOL   H43210598   5.240   3.547   1.270  0.1108 -0.9777  0.8878
   24MOL   H43310599   5.366   3.674   1.315  1.4670  0.4832  0.2969
   24MOL   H43410600   5.497   3.474   1.251  0.1543 -2.2539 -0.3907
   24MOL   H43510601   5.401   3.365   1.361 -0.2850  0.2055 -0.6440
   24MOL   H43610602   5.578   3.608   1.418  0.6996  1.3249  1.6318
   24MOL   H43710603   5.615   3.439   1.450  0.8466  0.2464 -1.0808
   24MOL   H43810604   5.441   3.437   1.626 -1.3985  0.4308  0.6586
   24MOL   H43910605   5.541   3.575   1.664  0.9270 -1.4636  0.2399
   24MOL   H44010606   5.340   3.889   1.707 -1.3137 -2.7200 -1.2273
   24MOL   H44110607   5.304   3.822   1.863  0.6115  1.9685  1.1315
   24MOL   H44210608   5.462   3.793   1.790 -0.4939 -0.6285  1.1482
   25MOL     C110609   7.085   3.124   0.553 -0.3416 -0.0428  0.5006
   25MOL     C210610   7.187   3.146   0.667  0.3051 -0.4630 -0.1968
   25MOL     C310611   7.132   3.230   0.789  0.2191  0.6365 -0.1972
   25MOL     C410612   7.247   3.257   0.894 -0.5107 -0.3078  0.2584
   25MOL     C510613   7.374   3.310   0.836 -0.1728  0.5948  0.2964
   25MOL     C610614   7.419   3.227   0.712 -0.0242  0.3452 -0.7446
   25MOL     C710615   7.312   3.210   0.608 -0.9038 -0.3774 -0.4879
   25MOL     C810616   6.945   3.092   0.606  0.0684 -0.0049  0.1127
   25MOL     H910617   7.076   3.212   0.490 -0.7530 -0.9513 -0.7239
   25MOL    H1010618   7.216   3.050   0.711 -0.3030 -1.6277 -2.2933
   25MOL    H1110619   7.084   3.321   0.751  2.1294  1.2179 -1.2419
   25MOL    H1210620   7.057   3.170   0.841 -2.2394  2.6270 -1.3147
   25MOL    H1310621   7.272   3.169   0.953 -1.3657 -0.7009  0.0511
   25MOL    H1410622   7.208   3.321   0.973  0.1145  0.9765 -0.4685
   25MOL    H1510623   7.458   3.302   0.904 -0.3874 -0.8463  0.3984
   25MOL    H1610624   7.357   3.415   0.812 -2.9958  0.2733  0.6981
   25MOL    H1710625   7.507   3.275   0.670  2.3612  0.1526  3.7095
   25MOL    H1810626   7.467   3.135   0.746  1.9785  1.5338 -0.2105
   25MOL    H1910627   7.356   3.144   0.533  0.5143  2.0999 -1.8965
   25MOL    H2010628   7.285   3.308   0.568 -2.2214 -0.3673  0.4111
   25MOL    H2110629   6.913   3.192   0.637 -0.6282  0.0883 -0.9009
   25MOL    H2210630   6.954   3.029   0.694 -1.9829  0.5010  0.7020
   25MOL    H2310631   7.123   3.040   0.495  0.2004 -0.7123  1.7920
   25MOL    C2410632   6.838   3.040   0.506 -0.4754 -0.3265  0.0109
   25MOL    C2510633   6.831   2.889   0.521  0.0393  0.2048 -0.7601
   25MOL    C2610634   6.792   2.825   0.657 -0.0377 -0.9322 -0.0853
   25MOL    C2710635   6.756   2.679   0.630 -0.1443 -0.9357 -0.0148
   25MOL    C2810636   6.881   2.602   0.569  0.1174  0.1373  0.3179
   25MOL    C2910637   6.936   2.669   0.448  0.3663  0.6094  0.3769
   25MOL    C3010638   6.958   2.816   0.472  0.7035  0.1190  0.0442
   25MOL    C3110639   6.700   3.113   0.500  0.1154 -0.5404  0.4841
   25MOL    H3210640   6.870   3.049   0.402 -0.4053  0.9395  0.1424
   25MOL    H3310641   6.750   2.854   0.456 -0.6556  1.3574 -0.5293
   25MOL    H3410642   6.706   2.874   0.703  0.7940  0.5975 -0.1038
   25MOL    H3510643   6.880   2.825   0.722  0.9220 -0.2323 -1.3612
   25MOL    H3610644   6.732   2.639   0.729 -3.0037 -2.5891 -1.3078
   25MOL    H3710645   6.672   2.647   0.569  0.3460 -0.8191 -0.7493
   25MOL    H3810646   6.854   2.499   0.548  2.8903 -1.1286  2.6531
   25MOL    H3910647   6.969   2.590   0.631  1.0453  2.7483 -0.4172
   25MOL    H4010648   7.031   2.637   0.404 -1.8332 -1.5657 -2.9408
   25MOL    H4110649   6.864   2.645   0.371 -0.3261  1.6433  0.6813
   25MOL    H4210650   7.040   2.829   0.542  1.4006  0.3588 -0.8061
   25MOL    H4310651   7.000   2.852   0.378  1.5738  0.7761  0.6814
   25MOL    H4410652   6.640   3.091   0.588 -0.4744 -0.9704 -0.0112
   25MOL    H4510653   6.648   3.076   0.411  0.7088  0.1821 -0.1684
   25MOL    C4610654   6.703   3.266   0.472 -0.4975  0.0888 -0.5254
   25MOL    C4710655   6.554   3.333   0.461 -0.3187 -0.3997 -0.5669
   25MOL    C4810656   6.466   3.334   0.588  0.4604  0.4413 -0.9296
   25MOL    C4910657   6.334   3.415   0.560 -0.6927 -0.3012 -0.4104
   25MOL    C5010658   6.252   3.352   0.448 -0.8333 -0.0423  1.3269
   25MOL    C5110659   6.335   3.344   0.324  0.1324 -0.2273 -0.3063
   25MOL    C5210660   6.466   3.263   0.346  0.2277  0.5582 -0.9525
   25MOL    C5310661   6.793   3.313   0.352  0.2518  0.0949 -0.7621
   25MOL    H5410662   6.747   3.308   0.563 -0.4447 -1.6910  0.2824
   25MOL    H5510663   6.580   3.434   0.429 -0.6525 -0.3718 -0.7465
   25MOL    H5610664   6.428   3.237   0.620 -1.6154  1.2782 -0.7243
   25MOL    H5710665   6.521   3.381   0.669  0.5210  0.2765 -0.8753
   25MOL    H5810666   6.355   3.521   0.542 -1.0557 -0.2211 -0.3725
   25MOL    H5910667   6.289   3.415   0.659 -1.5648  0.9065 -0.7815
   25MOL    H6010668   6.236   3.247   0.472 -1.5536  0.1200  1.5544
   25MOL    H6110669   6.159   3.407   0.441 -1.0533 -0.5535  0.0770
   25MOL    H6210670   6.364   3.442   0.286 -0.6788  1.8237  4.0808
   25MOL    H6310671   6.282   3.298   0.240  0.8435  0.6462 -1.2535
   25MOL    H6410672   6.457   3.159   0.376 -1.1515  1.1694  0.8270
   25MOL    H6510673   6.530   3.250   0.259  1.8498 -1.0075  0.4580
   25MOL    H6610674   6.741   3.272   0.266 -0.1727  0.2790 -0.5927
   25MOL    H6710675   6.890   3.265   0.368  0.3734  0.7527  0.5316
   25MOL    C6810676   6.810   3.470   0.330 -0.2761  0.0806 -0.3378
   25MOL    C6910677   6.832   3.546   0.464  0.4915 -0.0234 -0.1628
   25MOL    C7010678   6.965   3.518   0.530  0.2679 -0.3893 -0.2296
   25MOL    C7110679   6.990   3.599   0.658 -0.4406  1.1808 -0.0041
   25MOL    C7210680   6.964   3.751   0.636  0.0391  0.0216 -0.7059
   25MOL    C7310681   6.834   3.779   0.565 -0.5590 -0.3842 -0.4144
   25MOL    C7410682   6.822   3.697   0.440  0.7976  0.1429  0.0953
   25MOL    C7510683   6.910   3.497   0.217  0.6283 -0.6133 -0.3975
   25MOL    H7610684   6.721   3.516   0.288 -0.2021 -1.7563 -2.5320
   25MOL    H7710685   6.754   3.523   0.536 -0.8744 -1.1151 -1.9298
   25MOL    H7810686   7.043   3.537   0.457 -0.6385 -1.3970 -1.4882
   25MOL    H7910687   6.964   3.411   0.553 -0.5361 -0.5754 -1.0799
   25MOL    H8010688   6.930   3.562   0.741  0.5705  0.1079  0.2659
   25MOL    H8110689   7.084   3.562   0.699 -0.9656 -1.5757 -1.1082
   25MOL    H8210690   7.045   3.791   0.576  0.0729  0.4871 -0.3504
   25MOL    H8310691   6.979   3.795   0.735 -2.2133 -1.3592  0.3044
   25MOL    H8410692   6.834   3.886   0.547 -1.5022 -0.1004  1.1664
   25MOL    H8510693   6.751   3.752   0.631 -1.2272  1.1386 -0.6324
   25MOL    H8610694   6.906   3.728   0.378 -1.5758  2.9066 -1.8925
   25MOL    H8710695   6.728   3.721   0.390  0.1576  0.7130  1.5478
   25MOL    H8810696   6.943   3.600   0.230 -0.0273 -0.2630 -1.4773
   25MOL    H8910697   7.000   3.441   0.244  0.3208 -1.7858 -1.7322
   25MOL    C9010698   6.865   3.471   0.069 -0.4117 -0.2139  0.2893
   25MOL    C9110699   6.818   3.591   7.752 -0.2196  0.2242 -0.4920
   25MOL    C9210700   6.695   3.660   0.047  0.1261  1.2048  0.0873
   25MOL    C9310701   6.647   3.781   7.731 -0.3001 -0.2790  0.1892
   25MOL    C9410702   6.757   3.878   7.711  0.0306  0.2955  0.2837
   25MOL    C9510703   6.875   3.813   7.633  0.2795  0.5263  0.3787
   25MOL    C9610704   6.931   3.697   7.721  0.4266  0.3956  0.0772
   25MOL    C9710705   6.978   3.403   7.768  0.0365  0.0320 -0.0337
   25MOL    H9810706   6.788   3.395   0.058  1.0068 -1.2241 -3.2579
   25MOL    H9910707   6.792   3.546   7.657  0.8947 -0.1971 -0.6150
   25MOL   H10010708   6.728   3.692   0.145 -2.0435  1.3432  0.7856
   25MOL   H10110709   6.611   3.593   0.067  0.5566  0.7623  0.4205
   25MOL   H10210710   6.572   3.833   0.017  1.6974  0.6051  2.0164
   25MOL   H10310711   6.605   3.744   7.637  0.1729  0.5274 -0.3516
   25MOL   H10410712   6.797   3.914   0.034 -0.9811  2.3586 -0.0498
   25MOL   H10510713   6.727   3.963   7.650  0.1475  2.7839  3.5387
   25MOL   H10610714   6.833   3.769   7.543  3.8405  0.3493 -1.2676
   25MOL   H10710715   6.953   3.880   7.598  0.4558 -0.2371 -0.7024
   25MOL   H10810716   7.010   3.648   7.664  2.0440  1.2995  1.4710
   25MOL   H10910717   6.969   3.746   0.039 -0.9702  1.7423 -0.0643
   25MOL   H11010718   6.956   3.421   7.663 -0.3049 -0.9309 -0.1304
   25MOL   H11110719   7.068   3.464   0.006 -0.6086  1.0388 -0.3443
   25MOL   C11210720   7.006   3.247   0.018  0.6400  0.2959  0.1095
   25MOL   C11310721   7.152   3.212   0.059  1.3670  0.5671  0.0903
   25MOL   C11410722   7.162   3.066   0.112 -0.7646 -0.1588 -0.0397
   25MOL   C11510723   7.311   3.029   0.124 -0.4889 -0.4397 -0.1195
   25MOL   C11610724   7.381   3.117   0.232  0.1321 -0.9375 -0.0904
   25MOL   C11710725   7.361   3.267   0.204  0.4429  0.0779 -0.1795
   25MOL   C11810726   7.209   3.295   0.176 -0.5740 -0.2087 -0.0140
   25MOL   C11910727   6.953   3.167   7.666 -0.1604  0.5674 -0.4439
   25MOL   H12010728   6.935   3.229   0.099  1.6536 -2.7872  0.3870
   25MOL   H12110729   7.218   3.224   7.746  0.7035  0.6541 -0.4159
   25MOL   H12210730   7.117   2.999   0.038 -0.3690  1.0220 -1.3790
   25MOL   H12310731   7.110   3.058   0.208 -1.6167 -0.5280 -0.5207
   25MOL   H12410732   7.325   2.922   0.135  1.9167  0.0446  1.7998
   25MOL   H12510733   7.360   3.048   0.028  0.4956  0.7207  0.5974
   25MOL   H12610734   7.333   3.111   0.330  1.4466  3.5684  0.9917
   25MOL   H12710735   7.488   3.097   0.242  0.3506  0.2184  0.0138
   25MOL   H12810736   7.394   3.339   0.280 -0.4183  0.3849 -0.0823
   25MOL   H12910737   7.418   3.293   0.115  0.3670 -0.5640 -0.4192
   25MOL   H13010738   7.208   3.401   0.151 -0.3885 -0.5613 -1.5797
   25MOL   H13110739   7.151   3.279   0.267 -0.6370  3.3136  0.6106
   25MOL   H13210740   7.024   3.089   7.642  1.2086  1.9994 -1.1777
   25MOL   H13310741   6.937   3.225   7.575  0.6467  1.1830 -0.2103
   25MOL   C13410742   6.806   3.109   7.690 -0.7004  0.2952 -0.4688
   25MOL   C13510743   6.817   2.968   7.762 -0.4605 -0.5899 -0.4234
   25MOL   C13610744   6.858   2.855   7.668  0.9542  0.4729 -0.2648
   25MOL   C13710745   6.891   2.739   7.752 -0.7130 -0.2187 -0.1321
   25MOL   C13810746   6.780   2.687   0.070  0.9664  0.5138  0.1864
   25MOL   C13910747   6.730   2.810   0.157 -0.2210  0.0526  0.6755
   25MOL   C14010748   6.694   2.929   0.066  0.7640  0.4739 -0.5354
   25MOL   C14110749   6.717   3.111   7.561  0.0263 -0.9633 -0.0069
   25MOL   H14210750   6.749   3.173   7.757 -0.1697 -1.4642  1.7428
   25MOL   H14310751   6.895   2.971   0.066 -0.2920 -0.6845 -0.5898
   25MOL   H14410752   6.782   2.823   7.596  0.0358  2.4918 -0.2171
   25MOL   H14510753   6.951   2.876   7.615  2.3535 -2.5392  0.9215
   25MOL   H14610754   6.975   2.764   0.044 -2.7934  1.6211  1.9865
   25MOL   H14710755   6.916   2.652   7.692 -2.1893 -1.4386  0.9928
   25MOL   H14810756   6.695   2.652   0.011 -0.6273 -0.4833  2.9630
   25MOL   H14910757   6.821   2.606   0.130  1.2204  0.0356 -0.6225
   25MOL   H15010758   6.806   2.837   0.230  0.1989 -0.0088  0.2567
   25MOL   H15110759   6.646   2.771   0.214  0.5156 -0.9523  1.0794
   25MOL   H15210760   6.610   2.915   7.770  1.1771 -0.3919 -0.8839
   25MOL   H15310761   6.656   3.014   0.123  0.1835  0.9048 -1.5496
   25MOL   H15410762   6.636   3.038   7.568  0.4667 -1.3742  0.7976
   25MOL   H15510763   6.781   3.078   7.479  0.4204  2.1297 -0.9987
   25MOL   C15610764   6.641   3.246   7.532 -0.2861 -0.7849 -0.3705
   25MOL   C15710765   6.523   3.279   7.632  0.3988 -0.6592 -0.6208
   25MOL   C15810766   6.472   3.428   7.637  0.2090  0.1786  0.4770
   25MOL   C15910767   6.364   3.463   7.738 -0.1131  0.4522  0.2551
   25MOL   C16010768   6.243   3.371   7.709  0.3356  0.6360  0.3430
   25MOL   C16110769   6.281   3.225   7.715  0.2577  0.4623 -0.9657
   25MOL   C16210770   6.401   3.189   7.621  0.2859 -0.2997 -1.0239
   25MOL   C16310771   6.593   3.239   7.387  0.2250 -0.2577  0.1103
   25MOL   H16410772   6.708   3.329   7.553 -1.1324  0.0763 -1.0801
   25MOL   H16510773   6.562   3.265   7.732 -0.2298  2.0517  0.0391
   25MOL   H16610774   6.557   3.496   7.651 -0.0390  0.5017  0.4315
   25MOL   H16710775   6.444   3.463   7.537  0.0818  0.0698  0.4757
   25MOL   H16810776   6.399   3.458   0.069  0.4478  0.3682  0.0661
   25MOL   H16910777   6.330   3.567   7.728 -0.1237  0.4122 -0.1205
   25MOL   H17010778   6.199   3.391   7.611  1.2166 -1.2542 -0.4656
   25MOL   H17110779   6.159   3.390   0.003  0.2526 -0.3031  0.5098
   25MOL   H17210780   6.198   3.166   7.675 -0.8248  1.3730 -0.1106
   25MOL   H17310781   6.307   3.198   0.045 -2.2164  1.8341  0.0571
   25MOL   H17410782   6.437   3.086   7.629  1.2673  0.2646  2.7282
   25MOL   H17510783   6.361   3.186   7.520  0.2792  0.6025 -1.0562
   25MOL   H17610784   6.531   3.328   7.374 -1.1403 -0.8905  2.0760
   25MOL   H17710785   6.526   3.154   7.377 -0.9616  0.7480 -0.5849
   25MOL   C17810786   6.705   3.224   7.274 -0.7180  0.0774 -0.4070
   25MOL   C17910787   6.654   3.199   7.127 -0.1887  1.1598  0.5831
   25MOL   C18010788   6.590   3.322   7.064 -0.2915  0.9091 -0.3945
   25MOL   C18110789   6.511   3.297   6.939 -0.4037 -0.4986 -0.0875
   25MOL   C18210790   6.414   3.179   6.945 -1.1592 -0.1239 -0.3495
   25MOL   C18310791   6.502   3.059   6.977  0.4080  0.1708  0.1997
   25MOL   C18410792   6.554   3.079   7.117 -0.4273  0.6736 -0.3268
   25MOL   C18510793   6.804   3.340   7.283 -0.8341  0.0608  0.1074
   25MOL   H18610794   6.772   3.139   7.285  0.9072  1.1127 -2.0060
   25MOL   H18710795   6.741   3.171   7.067 -0.5801  1.2552 -0.0318
   25MOL   H18810796   6.529   3.385   7.128 -0.8795  1.0883 -1.1390
   25MOL   H18910797   6.666   3.397   7.043 -0.1105  0.8322 -0.0180
   25MOL   H19010798   6.573   3.269   6.854 -1.3900  0.6662 -1.2197
   25MOL   H19110799   6.464   3.392   6.913  1.7596  0.3082 -1.1742
   25MOL   H19210800   6.341   3.194   7.025 -1.3579 -0.9376 -0.3743
   25MOL   H19310801   6.362   3.162   6.851 -0.4150  0.2314 -0.8277
   25MOL   H19410802   6.582   3.051   6.903  0.9970 -1.3486  0.9706
   25MOL   H19510803   6.442   2.968   6.987  1.2731 -0.2541  1.6891
   25MOL   H19610804   6.466   3.087   7.181 -1.2179 -1.3321 -1.1364
   25MOL   H19710805   6.595   2.984   7.150  0.7684  0.9340 -1.0270
   25MOL   H19810806   6.747   3.431   7.266 -0.3563  0.3846  0.2344
   25MOL   H19910807   6.835   3.345   7.387  0.6910 -1.3209 -0.2518
   25MOL   C20010808   6.941   3.342   7.208 -0.4341 -0.6043 -0.2235
   25MOL   C20110809   7.001   3.483   7.194  0.1760 -0.0111 -0.5932
   25MOL   C20210810   6.924   3.584   7.094 -0.2073  0.9613  0.1252
   25MOL   C20310811   6.996   3.716   7.088  0.3801  0.1253 -1.0033
   25MOL   C20410812   7.024   3.782   7.223 -0.5588 -0.3373 -0.1762
   25MOL   C20510813   7.089   3.685   7.321 -0.3220 -0.1504 -0.2704
   25MOL   C20610814   7.015   3.554   7.328 -0.6769 -0.3669 -0.5086
   25MOL   C20710815   7.030   3.233   7.280  0.2103 -0.0340  0.2008
   25MOL   H20810816   6.924   3.295   7.111  1.4493 -1.6180 -0.0855
   25MOL   H20910817   7.104   3.463   7.163 -0.2884 -1.1626 -1.4253
   25MOL   H21010818   6.826   3.618   7.127 -0.7462 -0.3747 -0.0402
   25MOL   H21110819   6.905   3.544   6.994  0.3187 -3.0766  1.5307
   25MOL   H21210820   7.098   3.696   7.056  1.3792  0.4500  1.8534
   25MOL   H21310821   6.948   3.793   7.027  0.9745  1.2439 -0.0896
   25MOL   H21410822   7.079   3.876   7.218  1.6799 -1.6552 -1.3175
   25MOL   H21510823   6.930   3.817   7.266 -1.2448  3.0772 -4.1820
   25MOL   H21610824   7.188   3.663   7.282 -1.3140 -3.2806 -1.2116
   25MOL   H21710825   7.095   3.729   7.420  2.3991  0.6220 -0.7423
   25MOL   H21810826   7.067   3.493   7.401 -0.7508 -0.0572 -0.1973
   25MOL   H21910827   6.918   3.577   7.372 -0.1719  2.9315 -0.9811
   25MOL   H22010828   7.064   3.269   7.377 -1.6343 -1.1731  1.2897
   25MOL   H22110829   6.966   3.147   7.300 -1.5154  0.8128 -1.4859
   25MOL   C22210830   7.154   3.181   7.198 -0.0522  0.6198 -0.8239
   25MOL   C22310831   7.235   3.078   7.282 -0.8169  1.0161  0.2280
   25MOL   C22410832   7.160   2.946   7.325 -0.5108 -0.0373 -0.1818
   25MOL   C22510833   7.254   2.842   7.402 -0.8268  0.5941 -1.0899
   25MOL   C22610834   7.335   2.914   7.515 -0.1563  0.6718  0.1062
   25MOL   C22710835   7.390   3.051   7.481  0.3526 -0.2770  0.7459
   25MOL   C22810836   7.283   3.134   7.414  0.5986  0.3400  0.0274
   25MOL   C22910837   7.121   3.117   7.059  0.1503  0.0351  0.6784
   25MOL   H23010838   7.221   3.265   7.179  0.7018  0.1832 -0.0782
   25MOL   H23110839   7.323   3.040   7.232 -2.2815 -1.4527 -0.5251
   25MOL   H23210840   7.080   2.979   7.391 -0.2413  0.6151 -0.1772
   25MOL   H23310841   7.113   2.902   7.238  0.7013  1.2959 -1.5270
   25MOL   H23410842   7.326   2.805   7.329  1.2124  0.5351  0.9023
   25MOL   H23510843   7.198   2.756   7.439  1.3833 -0.2229  0.4088
   25MOL   H23610844   7.276   2.925   7.605  0.4964 -1.4172  0.8300
   25MOL   H23710845   7.420   2.855   7.551 -0.9921  0.0014  0.9914
   25MOL   H23810846   7.478   3.048   7.417  0.1732 -2.0133  0.5387
   25MOL   H23910847   7.416   3.094   7.578  0.5987 -0.6254  0.8396
   25MOL   H24010848   7.200   3.152   7.482  2.0697  2.3353  1.3453
   25MOL   H24110849   7.332   3.231   7.400  4.0448 -0.7841  3.3104
   25MOL   H24210850   7.016   3.087   7.047  0.1170  0.5303 -0.3419
   25MOL   H24310851   7.175   3.025   7.036 -1.3409 -1.3456  2.4917
   25MOL   C24410852   7.148   3.205   6.932  0.3832  0.0497 -0.1962
   25MOL   C24510853   7.070   3.154   6.808 -0.1081 -0.2600  0.1313
   25MOL   C24610854   6.916   3.186   6.806 -0.0154  0.2160  0.2924
   25MOL   C24710855   6.827   3.114   6.697 -0.5287  0.0999  0.8909
   25MOL   C24810856   6.874   2.969   6.679  0.2489 -0.2296 -0.4111
   25MOL   C24910857   7.021   2.958   6.642 -0.1362 -0.0167  0.2714
   25MOL   C25010858   7.102   3.006   6.765  0.0956 -0.0148  0.3524
   25MOL   C25110859   7.300   3.201   6.921 -0.2366  0.0588 -0.2122
   25MOL   H25210860   7.113   3.306   6.948 -1.1370 -0.4935 -0.0373
   25MOL   H25310861   7.109   3.204   6.720 -2.4313  3.7584  1.2748
   25MOL   H25410862   6.908   3.294   6.797  0.1688  0.2715  0.7976
   25MOL   H25510863   6.886   3.163   6.908  1.8384  0.2077  0.8365
   25MOL   H25610864   6.721   3.128   6.715 -0.4838  0.0688  1.1848
   25MOL   H25710865   6.841   3.142   6.593  0.0434 -0.3535  0.8434
   25MOL   H25810866   6.858   2.906   6.767  0.9178  0.4355  0.1963
   25MOL   H25910867   6.828   2.916   6.596 -0.5134 -1.9460  1.0570
   25MOL   H26010868   7.025   3.013   6.549 -0.3206  0.9701  0.8344
   25MOL   H26110869   7.052   2.861   6.605 -1.7214  0.0844 -1.3672
   25MOL   H26210870   7.089   2.942   6.852  0.3682 -1.5490 -0.7177
   25MOL   H26310871   7.204   3.007   6.727 -0.0960  3.3669 -0.2523
   25MOL   H26410872   7.333   3.101   6.892 -0.0121  0.2732 -0.6976
   25MOL   H26510873   7.346   3.211   7.020 -0.3532 -0.2259 -0.1291
   25MOL   C26610874   7.362   3.297   6.815  0.3478 -0.6463 -0.7024
   25MOL   C26710875   7.402   3.440   6.871 -1.1640  0.1691  0.4382
   25MOL   C26810876   7.443   3.446   7.016  0.6392 -0.0392  0.0953
   25MOL   C26910877   7.510   3.580   7.030 -0.0729  0.4182 -0.5905
   25MOL   C27010878   7.416   3.697   7.000 -0.0470  0.4224 -0.7857
   25MOL   C27110879   7.351   3.683   6.863  0.2239 -0.3021 -0.2034
   25MOL   C27210880   7.299   3.546   6.844 -0.0513 -1.1137  0.2661
   25MOL   C27310881   7.482   3.230   6.744 -0.2256  0.5005  0.3560
   25MOL   H27410882   7.290   3.320   6.737  0.6153 -0.6187 -0.9427
   25MOL   H27510883   7.499   3.464   6.828 -0.5494 -0.2237  1.5645
   25MOL   H27610884   7.347   3.435   7.067 -0.2784 -1.4214 -1.8744
   25MOL   H27710885   7.501   3.359   7.047 -0.5707 -0.8622  0.1105
   25MOL   H27810886   7.597   3.595   6.966  1.1572 -1.2667  0.6339
   25MOL   H27910887   7.561   3.590   7.126 -0.9060  2.6164 -0.3647
   25MOL   H28010888   7.336   3.706   7.074 -0.9532 -3.2313 -1.2269
   25MOL   H28110889   7.478   3.786   6.995  1.6369 -0.5411  1.7663
   25MOL   H28210890   7.417   3.707   6.779 -0.9879  0.4509 -0.9606
   25MOL   H28310891   7.270   3.756   6.861 -0.2592 -0.8002  0.7054
   25MOL   H28410892   7.277   3.553   6.737  0.0350 -2.4465  0.1559
   25MOL   H28510893   7.210   3.524   6.903 -0.9236  1.8623  0.1551
   25MOL   H28610894   7.471   3.126   6.713 -2.5310  0.4775  1.2070
   25MOL   H28710895   7.560   3.212   6.818 -0.7665  0.7582  0.9872
   25MOL   C28810896   7.552   3.295   6.628 -0.4185  0.2478  0.1858
   25MOL   C28910897   7.460   3.307   6.500  0.2513  0.2737 -0.2682
   25MOL   C29010898   7.510   3.414   6.396  0.1920 -0.6234  0.0395
   25MOL   C29110899   7.406   3.431   6.280  0.3195  0.3392 -0.3040
   25MOL   C29210900   7.367   3.302   6.219 -0.7912 -0.2066 -0.3795
   25MOL   C29310901   7.321   3.191   6.317  0.3193  0.1758  0.6586
   25MOL   C29410902   7.425   3.173   6.428 -0.3342 -0.6922  0.1006
   25MOL   C29510903   7.696   3.248   6.601  0.3959  0.2102  0.0297
   25MOL   H29610904   7.568   3.399   6.656  2.2270 -0.5062  1.7061
   25MOL   H29710905   7.366   3.351   6.532  0.2685  1.3985 -1.7432
   25MOL   H29810906   7.522   3.510   6.446  1.5956 -0.7070 -0.1058
   25MOL   H29910907   7.609   3.398   6.353  0.4784 -0.4117  0.6202
   25MOL   H30010908   7.315   3.480   6.316 -0.9626 -0.4227 -2.4198
   25MOL   H30110909   7.453   3.501   6.211  1.7360 -1.2426 -0.9690
   25MOL   H30210910   7.441   3.255   6.154  2.6848  3.0851  1.0341
   25MOL   H30310911   7.281   3.322   6.154 -1.2664  0.5774  0.4844
   25MOL   H30410912   7.308   3.093   6.271  0.3072 -0.5908  2.2736
   25MOL   H30510913   7.224   3.209   6.361  0.9096 -0.4375  2.2546
   25MOL   H30610914   7.515   3.127   6.387 -0.8157  0.6705 -2.5683
   25MOL   H30710915   7.386   3.102   6.502  0.6599  0.4073  1.7203
   25MOL   H30810916   7.726   3.163   6.663  0.8137  2.1910  2.6165
   25MOL   H30910917   7.707   3.216   6.497  0.2665  2.2050 -0.6253
   25MOL   C31010918   0.030   3.358   6.630  0.1247  0.1899  0.4189
   25MOL   C31110919   0.056   3.362   6.778  0.6122  0.1364 -0.2963
   25MOL   C31210920   0.149   3.246   6.836 -0.0549 -0.3677  0.0211
   25MOL   C31310921   0.162   3.255   6.991  0.0047  0.7125  0.1299
   25MOL   C31410922   0.218   3.389   7.042 -0.5036 -0.3130  0.1361
   25MOL   C31510923   0.139   3.509   6.980  0.6301  0.1840 -0.7317
   25MOL   C31610924   0.119   3.500   6.823 -1.2665 -1.0951 -0.6924
   25MOL   C31710925   0.160   3.323   6.544 -0.2695 -0.0331  0.1912
   25MOL   H31810926   7.760   3.457   6.613 -1.1248 -0.6935 -2.0328
   25MOL   H31910927   7.733   3.354   6.830 -0.5419  1.4415 -2.1460
   25MOL   H32010928   0.106   3.147   6.819  0.0687 -0.4332  0.0866
   25MOL   H32110929   0.247   3.258   6.790 -0.6373  1.5072 -0.7855
   25MOL   H32210930   0.221   3.176   7.035 -1.3674 -0.5575 -0.2442
   25MOL   H32310931   0.057   3.249   7.020  0.4403  0.0676  1.6215
   25MOL   H32410932   0.211   3.393   7.151 -0.6077  1.3817  0.0781
   25MOL   H32510933   0.325   3.399   7.021 -0.5394 -1.3982 -0.6035
   25MOL   H32610934   0.042   3.510   7.029  1.0215 -0.0814  0.0453
   25MOL   H32710935   0.196   3.597   7.009 -0.6228 -0.0972  2.7581
   25MOL   H32810936   0.221   3.497   6.783 -1.4007 -2.5313 -0.9549
   25MOL   H32910937   0.066   3.593   6.805  0.2497  0.3689  2.1236
   25MOL   H33010938   0.182   3.216   6.539  1.9879  0.3679  0.9688
   25MOL   H33110939   0.246   3.353   6.605 -2.6838  1.6931  2.8688
   25MOL   C33210940   0.167   3.401   6.412  0.2369 -0.0307  0.4405
   25MOL   C33310941   0.265   3.331   6.312 -0.1153 -0.0191  0.5171
   25MOL   C33410942   0.207   3.205   6.257  0.2682  0.4621 -0.3011
   25MOL   C33510943   0.298   3.132   6.156  0.2214  0.0625 -0.4157
   25MOL   C33610944   0.439   3.109   6.208  0.3893 -0.2357 -0.2419
   25MOL   C33710945   0.503   3.232   6.269  0.3450 -0.4603 -0.7293
   25MOL   C33810946   0.412   3.308   6.366  0.6347 -0.1720 -0.0717
   25MOL   C33910947   0.209   3.556   6.435 -0.4551  0.0630  0.0888
   25MOL   H34010948   0.067   3.388   6.372  0.6479 -1.6502 -0.1224
   25MOL   H34110949   0.277   3.381   6.216 -0.5405  2.0625  1.5286
   25MOL   H34210950   0.200   3.131   6.336 -0.1446  0.1724 -0.6092
   25MOL   H34310951   0.103   3.205   6.223  0.1526 -0.8275  0.0340
   25MOL   H34410952   0.266   3.033   6.125 -2.9082  0.9326 -0.1330
   25MOL   H34510953   0.307   3.195   6.068 -2.7699  2.5945  0.9865
   25MOL   H34610954   0.433   3.036   6.289  0.2917 -0.2054 -0.2229
   25MOL   H34710955   0.495   3.064   6.126 -1.7103 -2.8949 -0.3063
   25MOL   H34810956   0.528   3.295   6.184 -2.4719  2.3480  0.4425
   25MOL   H34910957   0.604   3.209   6.302  0.3679  0.3193 -0.2435
   25MOL   H35010958   0.460   3.401   6.394  0.4638 -0.8050  2.4140
   25MOL   H35110959   0.418   3.250   6.458 -0.3878  1.4776  1.0422
   25MOL   H35210960   0.311   3.561   6.473 -0.7431 -0.7719  0.9869
   25MOL   H35310961   0.156   3.596   6.522  1.2135  0.8961  0.7506
   25MOL   C35410962   0.187   3.650   6.316  0.4603  0.5088  0.0494
   25MOL   C35510963   0.250   3.792   6.313 -0.0822  0.6820  0.6645
   25MOL   C35610964   0.407   3.787   6.284  0.2335  0.4683 -0.2594
   25MOL   C35710965   0.450   3.930   6.256 -0.3648  0.1815 -0.5124
   25MOL   C35810966   0.432   4.018   6.384  0.1761 -0.3296 -0.1526
   25MOL   C35910967   0.280   4.020   6.423 -0.3432 -0.4860 -0.4162
   25MOL   C36010968   0.229   3.874   6.442  0.5454 -0.0986  0.5963
   25MOL   C36110969   0.033   3.658   6.281 -0.1188 -0.2659 -0.0970
   25MOL   H36210970   0.244   3.599   6.238 -0.0090 -0.1423  0.1297
   25MOL   H36310971   0.201   3.852   6.236  0.0624  0.3992  0.3550
   25MOL   H36410972   0.434   3.713   6.208  2.0115 -1.8198  2.5323
   25MOL   H36510973   0.452   3.738   6.369  0.4847 -0.1422 -0.7391
   25MOL   H36610974   0.558   3.933   6.237 -0.6480  0.4640 -2.1270
   25MOL   H36710975   0.416   3.973   6.162 -1.7637 -1.4667 -0.7834
   25MOL   H36810976   0.493   3.975   6.464 -1.1469 -1.6222  0.1795
   25MOL   H36910977   0.471   4.115   6.351 -0.3544 -0.8870 -2.5292
   25MOL   H37010978   0.273   4.082   6.512  1.1526  2.4530 -2.2995
   25MOL   H37110979   0.222   4.067   6.343 -1.8331 -0.3589  0.7170
   25MOL   H37210980   0.124   3.865   6.471  0.2723 -0.0422 -0.3290
   25MOL   H37310981   0.283   3.823   6.522  0.9834 -1.3883 -0.4901
   25MOL   H37410982   7.758   3.722   6.356  0.6713  0.3891 -0.1600
   25MOL   H37510983   7.757   3.562   6.298  1.4510 -1.2654 -1.1138
   25MOL   C37610984   7.767   3.682   6.135  0.6614  0.8774 -0.0473
   25MOL   C37710985   0.042   3.569   6.039  0.0595 -0.0514 -0.3303
   25MOL   C37810986   0.050   3.603   5.893 -0.3527 -0.4295 -0.0426
   25MOL   C37910987   0.119   3.497   5.804 -0.3335 -0.2045  0.0707
   25MOL   C38010988   0.046   3.363   5.816 -0.2352  0.1931  0.2405
   25MOL   C38110989   0.019   3.326   5.964 -0.2075 -0.3082 -0.2582
   25MOL   C38210990   7.719   3.439   6.040  0.2531 -0.2792 -0.4795
   25MOL   C38310991   7.633   3.756   6.124  0.8754  0.3748  0.1323
   25MOL   H38410992   0.064   3.758   6.100 -1.0643  1.9073 -1.2939
   25MOL   H38510993   0.145   3.555   6.071 -0.0872  1.7312  1.0001
   25MOL   H38610994   7.728   3.631   5.846 -0.0621  0.4979 -0.0923
   25MOL   H38710995   0.109   3.695   5.894 -1.2517  0.2174 -2.6169
   25MOL   H38810996   0.225   3.476   5.819  0.4320  1.2106 -3.0299
   25MOL   H38910997   0.105   3.535   5.703  0.1534 -0.8271 -0.2296
   25MOL   H39010998   7.727   3.372   5.758 -0.1516  0.2285  0.1155
   25MOL   H39110999   0.114   3.294   5.767 -0.4550  1.5432 -2.0095
   25MOL   H39211000   7.726   3.240   5.982  1.1835 -0.9402  1.9263
   25MOL   H39311001   0.106   3.299   6.023 -2.0082 -2.3132  1.5767
   25MOL   H39411002   7.623   3.463   5.995 -0.3648  0.6675  1.3015
   25MOL   H39511003   7.716   3.413   6.146  0.8954  0.9254 -0.1618
   25MOL   H39611004   7.555   3.691   6.162 -0.6085  1.9332 -0.2147
   25MOL   H39711005   7.613   3.758   6.017 -1.7120 -0.1431  0.5784
   25MOL   C39811006   7.617   3.897   6.197  0.0228  0.6017  0.1472
   25MOL   C39911007   7.610   4.018   6.102  0.2959  0.4628 -0.1022
   25MOL   C40011008   7.743   4.035   6.019  0.0407  0.1734  0.1423
   25MOL   C40111009   7.739   4.162   5.933 -0.9430 -0.2813  0.1770
   25MOL   C40211010   7.618   4.157   5.835 -0.0139  0.1666 -0.1298
   25MOL   C40311011   7.484   4.136   5.908  0.0950  0.8753 -0.1829
   25MOL   C40411012   7.481   4.020   6.011  0.5509 -0.0386  1.0337
   25MOL   C40511013   7.500   3.880   6.295  0.4712 -0.2419 -0.3730
   25MOL   H40611014   7.707   3.914   6.256  1.7303 -0.0809 -2.1721
   25MOL   H40711015   7.598   4.104   6.168 -0.2366 -0.7796  1.4290
   25MOL   H40811016   7.758   3.947   5.956  2.3912 -1.4120  2.7620
   25MOL   H40911017   0.050   4.038   6.095  1.4940  0.1098 -1.3441
   25MOL   H41011018   0.050   4.182   5.866 -2.7177  0.0853 -1.9793
   25MOL   H41111019   7.745   4.255   5.989  0.2948 -1.1486  1.5177
   25MOL   H41211020   7.645   4.069   5.777 -2.0852 -0.5847 -0.0109
   25MOL   H41311021   7.607   4.245   5.772 -1.7881  1.9356  2.5378
   25MOL   H41411022   7.448   4.225   5.960  1.3455  0.8581  0.7365
   25MOL   H41511023   7.406   4.115   5.834  1.5475  1.0644 -1.7832
   25MOL   H41611024   7.395   4.034   6.076 -0.0806  0.0277  0.2012
   25MOL   H41711025   7.473   3.921   5.965  2.3739  0.6366 -0.7911
   25MOL   H41811026   7.413   3.859   6.233  1.0129 -1.7424 -0.6367
   25MOL   H41911027   7.515   3.794   6.360 -0.4349  0.6187  1.0026
   25MOL   C42011028   7.477   3.993   6.401 -0.3701  0.6688  0.4395
   25MOL   C42111029   7.592   3.997   6.505 -0.2599 -0.2115 -0.0942
   25MOL   C42211030   7.593   3.878   6.600  0.4129 -0.1271  0.7100
   25MOL   C42311031   7.708   3.877   6.704  0.2492 -0.4750 -0.4683
   25MOL   C42411032   7.709   4.009   6.786  0.1697 -0.0863 -0.4718
   25MOL   C42511033   7.722   4.128   6.687  0.3344  0.1484  0.3575
   25MOL   C42611034   7.598   4.124   6.597 -0.4211 -0.0694 -0.0140
   25MOL   C42711035   7.333   3.975   6.455  0.0499 -0.3171 -0.4305
   25MOL   H42811036   7.488   4.087   6.346  0.9465  0.7129  0.7709
   25MOL   H42911037   7.685   4.001   6.450 -0.7892  2.0361 -0.8822
   25MOL   H43011038   7.501   3.855   6.654 -0.5188 -0.7833 -1.1150
   25MOL   H43111039   7.602   3.782   6.548 -1.1598  0.9423 -1.5885
   25MOL   H43211040   7.702   3.792   6.771 -1.8279 -0.4690 -0.6170
   25MOL   H43311041   0.028   3.863   6.647 -0.4165 -1.5226 -1.3020
   25MOL   H43411042   0.023   4.016   6.853 -0.0767  0.1299 -0.1810
   25MOL   H43511043   7.619   4.029   6.843  0.0666  3.5929 -1.8342
   25MOL   H43611044   0.044   4.113   6.635  0.3082  0.5916  0.1858
   25MOL   H43711045   7.743   4.218   6.744  2.5565  0.8245 -1.4544
   25MOL   H43811046   7.507   4.139   6.654 -0.0264  0.8519  0.4011
   25MOL   H43911047   7.604   4.209   6.528  0.1984 -1.4520 -1.6903
   25MOL   H44011048   7.300   4.045   6.532 -2.2174 -0.2046 -1.4893
   25MOL   H44111049   7.255   3.981   6.380 -0.2787 -2.2024 -0.2546
   25MOL   H44211050   7.327   3.882   6.512  1.2354  0.1473  0.4688
   26MOL     C111051   0.929   7.468   0.406 -0.0297 -0.0572 -0.2162
   26MOL     C211052   0.851   7.346   0.378  0.8450  0.1548  0.2971
   26MOL     C311053   0.943   7.227   0.413  0.3243  0.1159 -0.2745
   26MOL     C411054   0.870   7.096   0.389 -0.3428  0.0299 -0.2011
   26MOL     C511055   0.826   7.082   0.244  0.1890 -0.1838  0.4673
   26MOL     C611056   0.747   7.195   0.198  0.5897 -0.1951  0.2718
   26MOL     C711057   0.804   7.339   0.233  0.3853 -0.2220 -0.0398
   26MOL     C811058   0.858   7.607   0.399 -0.0260 -0.2725 -0.2782
   26MOL     H911059   0.971   7.471   0.507  1.2041  0.3697 -0.7394
   26MOL    H1011060   0.761   7.336   0.438  1.0190 -1.2981  0.3360
   26MOL    H1111061   1.036   7.227   0.356 -0.4488 -0.3359 -1.5585
   26MOL    H1211062   0.951   7.240   0.520  1.0999 -1.7315 -0.0849
   26MOL    H1311063   0.775   7.084   0.441 -0.2474 -0.8466 -0.2282
   26MOL    H1411064   0.930   7.011   0.421  1.1140  0.2649 -2.1997
   26MOL    H1511065   0.775   6.988   0.226 -0.2752  0.2130 -0.2829
   26MOL    H1611066   0.914   7.071   0.179 -0.1296 -1.3266  0.2231
   26MOL    H1711067   0.735   7.196   0.089  4.1458  1.2772 -0.1924
   26MOL    H1811068   0.649   7.195   0.246  0.5789  2.0102  0.2932
   26MOL    H1911069   0.724   7.411   0.216  0.5356 -0.5186 -2.1141
   26MOL    H2011070   0.886   7.367   0.167 -0.1363  0.4130 -0.4153
   26MOL    H2111071   0.810   7.622   0.496  1.5248 -3.2983  1.0417
   26MOL    H2211072   0.782   7.601   0.322 -1.3743 -1.5715  1.1129
   26MOL    H2311073   1.014   7.458   0.340  0.0449  0.7318 -0.2444
   26MOL    C2411074   0.949   7.723   0.370  0.2446 -0.0039 -0.4686
   26MOL    C2511075   0.873   0.075   0.301  0.5741 -0.2765 -0.3631
   26MOL    C2611076   0.743   0.117   0.372  0.2715  0.1388  0.1267
   26MOL    C2711077   0.675   0.236   0.301  0.3299  0.1043  0.4740
   26MOL    C2811078   0.641   0.205   0.156 -0.0980 -0.1009  0.6905
   26MOL    C2911079   0.759   0.152   0.076 -0.1404  0.5888  0.0337
   26MOL    C3011080   0.836   0.044   0.152 -0.2725  0.2617 -0.1804
   26MOL    C3111081   1.013   7.758   0.508 -0.0525  0.1994 -0.3977
   26MOL    H3211082   1.027   7.702   0.298  1.3018  1.0013  0.3772
   26MOL    H3311083   0.932   0.166   0.314  0.4119 -0.1656 -0.4053
   26MOL    H3411084   0.768   0.145   0.474 -2.6111  1.1799  0.5938
   26MOL    H3511085   0.665   0.042   0.366 -2.2438  2.6595 -0.1307
   26MOL    H3611086   0.578   0.256   0.347  0.6125  1.7304  0.3994
   26MOL    H3711087   0.731   0.329   0.313 -1.5647  1.2133  1.1012
   26MOL    H3811088   0.598   0.293   0.107  0.6320  0.4742  1.0686
   26MOL    H3911089   0.565   0.127   0.156 -1.3080  1.0402 -1.2281
   26MOL    H4011090   0.732   0.120   7.747  0.1863 -0.3171  0.2362
   26MOL    H4111091   0.822   0.238   0.057 -1.9320  2.4081  1.9690
   26MOL    H4211092   0.785   7.719   0.146  2.4487 -1.2656  0.5218
   26MOL    H4311093   0.925   0.024   0.092 -1.2277 -2.9707 -0.6318
   26MOL    H4411094   1.046   7.668   0.559  2.5658  1.6762  0.6322
   26MOL    H4511095   0.938   0.027   0.577  0.4073  1.0928 -0.4284
   26MOL    C4611096   1.144   0.066   0.504 -0.6528 -0.0004  0.0839
   26MOL    C4711097   1.270   7.758   0.446 -0.7924 -0.2324  0.0597
   26MOL    C4811098   1.332   7.666   0.553 -0.2543  0.3071  0.7549
   26MOL    C4911099   1.459   7.600   0.509  0.1290 -0.1426  0.0344
   26MOL    C5011100   1.563   7.695   0.458  0.6256 -0.1477  0.1898
   26MOL    C5111101   1.505   0.003   0.341 -0.0299  0.2471 -0.0967
   26MOL    C5211102   1.379   0.077   0.380 -0.4731  0.2678 -0.2976
   26MOL    C5311103   1.177   0.147   0.630  0.3474 -0.3869 -0.1765
   26MOL    H5411104   1.126   0.136   0.423 -2.1819 -0.4528  0.0112
   26MOL    H5511105   1.235   7.702   0.359  0.7912  0.3288 -0.9741
   26MOL    H5611106   1.340   7.728   0.642 -1.2640  0.6044  0.6479
   26MOL    H5711107   1.257   7.593   0.582  1.7114 -1.8282  0.5766
   26MOL    H5811108   1.426   7.539   0.425 -1.4366  0.5599  0.1296
   26MOL    H5911109   1.493   7.529   0.585  3.4322 -0.0939 -1.3068
   26MOL    H6011110   1.606   7.762   0.532 -2.5252  0.6784  1.3479
   26MOL    H6111111   1.649   7.635   0.427  2.0018  2.3586 -1.1004
   26MOL    H6211112   1.489   7.709   0.256  0.7030  1.9781 -1.6118
   26MOL    H6311113   1.580   0.065   0.293 -0.2654  1.2238  0.7692
   26MOL    H6411114   1.404   0.145   0.462  0.6452  1.2661 -1.4552
   26MOL    H6511115   1.324   0.133   0.304  3.3574  1.1526 -2.5430
   26MOL    H6611116   1.284   0.164   0.616  0.2457 -0.9674 -1.7641
   26MOL    H6711117   1.157   0.082   0.715 -1.2217 -0.2384 -0.4168
   26MOL    C6811118   1.111   0.287   0.662  0.1034  0.5312 -0.5282
   26MOL    C6911119   1.157   0.351   0.798  0.5411  0.5497 -0.6340
   26MOL    C7011120   1.080   0.290   0.920  0.5267 -0.5329  0.0743
   26MOL    C7111121   1.117   0.353   1.048  0.0089 -0.8090 -0.1424
   26MOL    C7211122   1.264   0.332   1.075 -0.3869 -0.6387  0.0933
   26MOL    C7311123   1.347   0.391   0.956  0.2329 -0.5120  0.7416
   26MOL    C7411124   1.307   0.334   0.826  0.1474 -0.3636  0.6384
   26MOL    C7511125   1.118   0.388   0.544 -0.3175 -0.3650 -0.4627
   26MOL    H7611126   1.007   0.256   0.673  1.0740 -2.1081  1.7899
   26MOL    H7711127   1.123   0.454   0.792 -1.7616 -0.1346  0.0670
   26MOL    H7811128   1.109   0.186   0.930 -0.8858 -0.7539  2.3792
   26MOL    H7911129   0.972   0.279   0.906  0.2633  2.5976 -0.8955
   26MOL    H8011130   1.092   0.458   1.059  0.9819 -0.4704 -1.0927
   26MOL    H8111131   1.055   0.309   1.127 -1.8187  1.8111 -0.0808
   26MOL    H8211132   1.281   0.225   1.085 -0.7578 -0.7776 -0.7551
   26MOL    H8311133   1.296   0.379   1.169  2.2539  1.0750 -1.5870
   26MOL    H8411134   1.449   0.353   0.968 -0.6360 -2.7535  1.2747
   26MOL    H8511135   1.349   0.500   0.953 -0.8394 -0.4518  1.8243
   26MOL    H8611136   1.342   0.231   0.818 -1.7702 -0.8063 -2.7288
   26MOL    H8711137   1.367   0.385   0.751 -1.7631 -0.6260 -1.0768
   26MOL    H8811138   1.221   0.424   0.535 -0.1214 -1.2893 -2.1172
   26MOL    H8911139   1.107   0.340   0.447  3.5405 -0.0386 -1.1375
   26MOL    C9011140   1.016   0.510   0.541 -0.1952 -0.5325 -0.3755
   26MOL    C9111141   1.023   0.576   0.395 -0.2966  0.1641  0.3807
   26MOL    C9211142   0.948   0.491   0.284  0.9665  0.6867 -0.1458
   26MOL    C9311143   0.984   0.530   0.140 -0.2026 -0.1580  0.7704
   26MOL    C9411144   0.965   0.686   0.123  0.6792  0.6720  0.4645
   26MOL    C9511145   1.025   0.772   0.241  0.8710 -0.2518  0.2634
   26MOL    C9611146   0.977   0.721   0.380  0.8415 -0.3224 -0.2695
   26MOL    C9711147   0.869   0.462   0.592 -0.2224 -0.2294 -0.3840
   26MOL    H9811148   1.050   0.590   0.606  0.6663 -2.8006  2.0763
   26MOL    H9911149   1.127   0.575   0.361 -0.3864  3.1305 -0.1351
   26MOL   H10011150   0.841   0.511   0.290  0.7062 -0.2276 -1.5320
   26MOL   H10111151   0.961   0.385   0.304 -3.3606  0.2358  0.7254
   26MOL   H10211152   0.929   0.470   0.068 -0.5425 -0.8711  1.6180
   26MOL   H10311153   1.090   0.506   0.130  0.5231  2.2435  2.2330
   26MOL   H10411154   0.859   0.706   0.115  0.7323  0.7014 -0.1706
   26MOL   H10511155   0.994   0.716   0.022 -3.5573  0.1528 -0.9923
   26MOL   H10611156   1.132   0.749   0.235  1.1992  1.1174  0.5467
   26MOL   H10711157   0.995   0.874   0.218 -0.0877 -1.2687 -3.4222
   26MOL   H10811158   1.028   0.785   0.451 -1.1641 -0.3992  1.2789
   26MOL   H10911159   0.869   0.739   0.378  0.7573 -0.1627  3.3088
   26MOL   H11011160   0.836   0.373   0.537 -0.7914  1.0486 -2.1326
   26MOL   H11111161   0.881   0.431   0.696  1.1364 -0.3598 -0.5692
   26MOL   C11211162   0.757   0.574   0.598  0.1522 -0.4475  0.3871
   26MOL   C11311163   0.774   0.688   0.703 -0.5451 -0.5611  0.3829
   26MOL   C11411164   0.867   0.811   0.668  0.2244 -0.2368 -0.6679
   26MOL   C11511165   0.850   0.909   0.788  0.0578  0.0755 -0.2389
   26MOL   C11611166   0.895   0.851   0.921  0.3878 -0.3790 -0.3172
   26MOL   C11711167   0.814   0.726   0.952  0.5863 -0.1615  0.0506
   26MOL   C11811168   0.820   0.631   0.837  0.2195  0.0717  0.3344
   26MOL   C11911169   0.614   0.509   0.609 -0.2881 -0.1261 -0.0491
   26MOL   H12011170   0.771   0.623   0.501  0.5722  1.2999  1.3023
   26MOL   H12111171   0.677   0.738   0.714 -0.9266  0.9081 -7.0078
   26MOL   H12211172   0.829   0.854   0.575 -0.9163 -0.2979 -0.2333
   26MOL   H12311173   0.971   0.777   0.671  0.3013  0.1051  1.3060
   26MOL   H12411174   0.912   0.996   0.763  0.8164 -0.5699 -0.6258
   26MOL   H12511175   0.754   0.960   0.781  1.4382  2.8843  0.1143
   26MOL   H12611176   1.000   0.824   0.912  0.6464  0.8927 -1.2258
   26MOL   H12711177   0.895   0.926   1.000  0.9211 -0.6964 -0.0088
   26MOL   H12811178   0.840   0.681   1.048  1.5129 -1.2562 -0.6904
   26MOL   H12911179   0.709   0.755   0.953  0.7197  0.2721  1.5675
   26MOL   H13011180   0.752   0.549   0.861 -1.7273  1.1410 -1.4218
   26MOL   H13111181   0.918   0.582   0.839 -0.7314 -1.8852 -0.0490
   26MOL   H13211182   0.589   0.493   0.715  0.5969 -0.5295  0.0991
   26MOL   H13311183   0.599   0.415   0.556  0.3369 -0.0980 -0.2772
   26MOL   C13411184   0.500   0.597   0.546 -0.3239 -0.3262  0.0629
   26MOL   C13511185   0.368   0.632   0.631 -1.0882 -0.3011 -0.6139
   26MOL   C13611186   0.404   0.712   0.760  0.2935 -0.5417 -0.2102
   26MOL   C13711187   0.275   0.757   0.832  0.5587  0.2434  0.0282
   26MOL   C13811188   0.177   0.637   0.862 -0.1715  0.3760  0.2250
   26MOL   C13911189   0.142   0.555   0.732  0.2688 -0.1908  0.0820
   26MOL   C14011190   0.270   0.519   0.657  0.2632  0.3510 -0.1122
   26MOL   C14111191   0.478   0.561   0.391 -0.9008  0.1287  0.3491
   26MOL   H14211192   0.533   0.701   0.543  1.1520 -0.7936  0.0605
   26MOL   H14311193   0.312   0.704   0.572 -0.5986  0.4939 -0.1250
   26MOL   H14411194   0.463   0.662   0.837 -0.9147  0.4614  1.3980
   26MOL   H14511195   0.462   0.799   0.730  2.2125 -0.7165  2.7693
   26MOL   H14611196   0.218   0.820   0.764  2.9934  1.3384 -1.0819
   26MOL   H14711197   0.306   0.800   0.928 -0.7103 -1.6654  1.3272
   26MOL   H14811198   0.220   0.571   0.938 -1.5850 -1.9858 -0.9768
   26MOL   H14911199   0.089   0.676   0.913  0.8918  1.9249  0.9196
   26MOL   H15011200   0.073   0.605   0.665  0.7550 -1.3239 -1.2981
   26MOL   H15111201   0.100   0.459   0.760  0.6211 -1.2706 -2.8850
   26MOL   H15211202   0.327   0.448   0.717  1.1336  0.1391 -1.1521
   26MOL   H15311203   0.255   0.463   0.564  1.1858 -1.1775  0.6442
   26MOL   H15411204   0.401   0.484   0.401 -0.0049 -0.5909  1.8221
   26MOL   H15511205   0.564   0.504   0.357 -1.1992 -0.3367  0.3659
   26MOL   C15611206   0.440   0.683   0.302 -0.1251 -0.3538 -0.1183
   26MOL   C15711207   0.349   0.630   0.183 -0.4561  0.2420  0.4323
   26MOL   C15811208   0.404   0.514   0.100 -0.1088  0.3415  0.4868
   26MOL   C15911209   0.305   0.482   7.752 -0.3480 -0.5002  0.4741
   26MOL   C16011210   0.166   0.440   0.037 -0.2448  0.5876 -0.3064
   26MOL   C16111211   0.102   0.558   0.118  0.4510 -0.0450 -1.0911
   26MOL   C16211212   0.202   0.600   0.230 -0.8973 -0.2702 -0.1828
   26MOL   C16311213   0.565   0.746   0.239  0.6973  0.0411 -0.3028
   26MOL   H16411214   0.384   0.751   0.366  0.3297 -1.6387  1.6950
   26MOL   H16511215   0.335   0.712   0.113  1.4760  0.1261 -0.1236
   26MOL   H16611216   0.505   0.528   0.062 -0.0339 -0.0827  0.5322
   26MOL   H16711217   0.410   0.427   0.165 -3.4995 -1.6892 -1.7059
   26MOL   H16811218   0.288   0.562   7.681 -2.0229 -1.2768 -0.0449
   26MOL   H16911219   0.338   0.396   7.693  2.6567  0.8299  0.1301
   26MOL   H17011220   0.183   0.360   0.109  0.2047  0.2355 -0.7889
   26MOL   H17111221   0.084   0.403   7.749 -0.6017 -0.8153  1.0190
   26MOL   H17211222   0.011   0.531   0.171  0.0923  2.1258 -0.5631
   26MOL   H17311223   0.078   0.645   0.057  0.9401  0.1060 -1.0766
   26MOL   H17411224   0.150   0.686   0.272  0.4139 -0.1639  1.2243
   26MOL   H17511225   0.216   0.529   0.311 -0.5958  1.2816  1.1544
   26MOL   H17611226   0.591   0.703   0.142  1.5469 -0.6464  0.2305
   26MOL   H17711227   0.654   0.702   0.282  0.6944  2.0031  1.8072
   26MOL   C17811228   0.556   0.900   0.209 -0.4400 -0.0344  0.2472
   26MOL   C17911229   0.462   0.944   0.089 -0.6157  0.7767 -0.1949
   26MOL   C18011230   0.494   0.878   7.726 -0.0163 -0.0988  0.2632
   26MOL   C18111231   0.391   0.925   7.620 -0.6606 -0.4679  0.6370
   26MOL   C18211232   0.391   1.079   7.595 -0.2504 -0.6754 -0.4942
   26MOL   C18311233   0.368   1.144   7.734 -0.0240 -0.5397 -0.2826
   26MOL   C18411234   0.468   1.094   0.066  0.3203 -0.1937 -0.1671
   26MOL   C18511235   0.543   0.982   0.344  0.1529  0.1482 -0.0649
   26MOL   H18611236   0.651   0.923   0.162 -0.0387  0.1504  1.1348
   26MOL   H18711237   0.360   0.919   0.121  0.5676 -1.8415  1.6963
   26MOL   H18811238   0.594   0.901   7.690  1.3372 -0.5389  3.5420
   26MOL   H18911239   0.481   0.770   7.730 -0.1183 -0.0602  1.2168
   26MOL   H19011240   0.288   0.909   7.652 -0.5016 -0.3896  1.1845
   26MOL   H19111241   0.398   0.881   7.520 -0.3566  1.2019 -0.0806
   26MOL   H19211242   0.487   1.109   7.553  0.6406 -2.0993  0.5186
   26MOL   H19311243   0.321   1.103   7.514 -1.4445 -1.6731  0.2345
   26MOL   H19411244   0.264   1.130   7.762 -0.0046 -1.4733 -0.6398
   26MOL   H19511245   0.387   1.251   7.727  1.4054 -0.5399  2.6195
   26MOL   H19611246   0.566   1.125   0.032 -0.1934 -0.4768 -1.9889
   26MOL   H19711247   0.444   1.155   0.154  2.1387 -0.9307  0.8603
   26MOL   H19811248   0.437   1.005   0.353  0.3664  1.1190  0.0497
   26MOL   H19911249   0.570   0.918   0.427 -1.4883  2.7049  2.5437
   26MOL   C20011250   0.623   1.118   0.352  0.4420  0.4143  0.6214
   26MOL   C20111251   0.569   1.218   0.458 -0.8963 -0.0395  0.0759
   26MOL   C20211252   0.505   1.338   0.386  0.7307 -0.3431  0.2961
   26MOL   C20311253   0.497   1.454   0.493 -0.5722 -0.3041  0.3412
   26MOL   C20411254   0.425   1.418   0.620 -0.2502  0.8688  0.8397
   26MOL   C20511255   0.470   1.281   0.682  0.0302 -0.5623  0.0385
   26MOL   C20611256   0.488   1.167   0.583  1.0122 -0.5294  0.5054
   26MOL   C20711257   0.774   1.096   0.373 -0.2185  0.0559 -0.2489
   26MOL   H20811258   0.619   1.167   0.256 -0.3956  0.2675  0.5766
   26MOL   H20911259   0.657   1.257   0.508  0.7761 -2.2759 -1.0136
   26MOL   H21011260   0.407   1.320   0.341  0.5195  1.3884  0.0280
   26MOL   H21111261   0.573   1.380   0.312 -1.3563  0.6511 -1.1001
   26MOL   H21211262   0.602   1.476   0.511 -0.0353 -1.2445 -1.4592
   26MOL   H21311263   0.456   1.545   0.447  1.2341  0.4966  0.2737
   26MOL   H21411264   0.426   1.495   0.697 -0.8099  1.9297 -0.1965
   26MOL   H21511265   0.320   1.421   0.591  0.1881  3.8337 -0.5729
   26MOL   H21611266   0.567   1.294   0.728 -0.4165 -0.9750  1.1125
   26MOL   H21711267   0.407   1.255   0.767  0.4021  1.9678  1.1098
   26MOL   H21811268   0.519   1.076   0.635  0.7854  1.0012  3.4045
   26MOL   H21911269   0.388   1.136   0.552  0.8611  1.1103 -0.7032
   26MOL   H22011270   0.806   1.068   0.473 -0.6109  0.5904  0.0320
   26MOL   H22111271   0.806   1.008   0.319  1.8000  0.0545  0.9054
   26MOL   C22211272   0.860   1.222   0.327  0.0389 -0.4843  1.0883
   26MOL   C22311273   0.977   1.252   0.425 -0.9546  0.8915  0.6445
   26MOL   C22411274   1.063   1.126   0.450 -0.1034  0.0044 -0.4638
   26MOL   C22511275   1.182   1.156   0.540  0.0427 -0.1351  0.3787
   26MOL   C22611276   1.128   1.211   0.673  0.2296  0.4426 -0.7914
   26MOL   C22711277   1.054   1.334   0.640 -0.4445  0.4360  0.3192
   26MOL   C22811278   0.931   1.318   0.554  0.0870 -0.3770 -0.2013
   26MOL   C22911279   0.915   1.206   0.181  0.1070 -0.3083 -0.3622
   26MOL   H23011280   0.796   1.310   0.334  0.8392 -0.0193  2.7981
   26MOL   H23111281   1.054   1.318   0.385  0.6813 -2.0242 -1.1480
   26MOL   H23211282   1.006   1.054   0.509 -1.1353 -0.0106 -1.4639
   26MOL   H23311283   1.098   1.072   0.362 -0.9322  0.6849 -1.2171
   26MOL   H23411284   1.243   1.240   0.504  0.2229  0.2376  1.5278
   26MOL   H23511285   1.249   1.071   0.553 -0.4909 -0.4737  0.9519
   26MOL   H23611286   1.061   1.138   0.719  1.2832 -0.4882 -0.7206
   26MOL   H23711287   1.202   1.237   0.749 -0.7108  0.3482  0.1627
   26MOL   H23811288   1.115   1.410   0.591  1.1160 -1.0890 -0.1135
   26MOL   H23911289   1.015   1.377   0.733 -0.0405 -0.6984  1.0144
   26MOL   H24011290   0.863   1.255   0.610 -0.2078  1.3435  1.4233
   26MOL   H24111291   0.881   1.414   0.539 -0.7552 -0.6451  0.8098
   26MOL   H24211292   0.835   1.155   0.127 -0.9070  1.0482 -0.1637
   26MOL   H24311293   0.988   1.125   0.171 -1.1809 -1.6409  0.6725
   26MOL   C24411294   0.990   1.323   0.110  0.1430  0.3061  0.2169
   26MOL   C24511295   0.916   1.462   0.126 -0.6428  0.1128  0.5014
   26MOL   C24611296   0.770   1.461   0.072  0.8262  0.0773 -1.1081
   26MOL   C24711297   0.697   1.594   0.120  0.6083  0.3854  0.6281
   26MOL   C24811298   0.775   1.718   0.083 -0.2175  0.3281  0.2906
   26MOL   C24911299   0.921   1.712   0.127 -0.3029 -0.0799  0.5460
   26MOL   C25011300   0.988   1.584   0.070  0.5641 -0.2744  0.6923
   26MOL   C25111301   1.034   1.289   7.738 -0.3231 -0.5297  0.5349
   26MOL   H25211302   1.085   1.328   0.163  0.7684 -0.2519 -0.8333
   26MOL   H25311303   0.913   1.477   0.233 -2.3092 -1.1384  0.6469
   26MOL   H25411304   0.716   1.378   0.117  1.4281  0.2626 -0.0190
   26MOL   H25511305   0.763   1.449   7.737  2.2469  0.8951 -1.3119
   26MOL   H25611306   0.595   1.593   0.083  0.3737  4.8415  0.8444
   26MOL   H25711307   0.688   1.591   0.229  3.0266  0.4101  0.8536
   26MOL   H25811308   0.772   1.740   7.749  1.3441  0.7716  0.3301
   26MOL   H25911309   0.738   1.809   0.131 -1.6462 -0.1230  0.0508
   26MOL   H26011310   0.936   1.713   0.235 -2.4741  1.0602  0.8590
   26MOL   H26111311   0.980   1.794   0.085  0.9010 -0.6260  1.1364
   26MOL   H26211312   0.985   1.585   7.733  0.1802 -0.8133  0.6946
   26MOL   H26311313   1.093   1.567   0.091  0.9798 -0.7916 -1.6647
   26MOL   H26411314   1.072   1.372   7.678 -0.2326 -1.6784 -1.0324
   26MOL   H26511315   0.940   1.267   7.686  0.2446  0.2132 -0.8322
   26MOL   C26611316   1.136   1.172   7.709 -0.5791 -0.2827  0.0636
   26MOL   C26711317   1.111   1.126   7.563 -0.0889 -0.1793 -0.1835
   26MOL   C26811318   1.115   1.237   7.453  0.3161  0.3853  0.0814
   26MOL   C26911319   1.081   1.185   7.314  0.9919  0.1922  0.2113
   26MOL   C27011320   0.957   1.097   7.312 -0.0270 -0.2675  0.2470
   26MOL   C27111321   0.980   0.975   7.407 -0.1684 -0.3523  0.3243
   26MOL   C27211322   0.978   1.034   7.546  0.0707  0.0710  0.1494
   26MOL   C27311323   1.280   1.205   7.741  0.1713 -0.5373  0.2349
   26MOL   H27411324   1.126   1.080   7.768 -1.0191  0.0682  0.5398
   26MOL   H27511325   1.191   1.054   7.544  0.6873  0.2434  1.3946
   26MOL   H27611326   1.039   1.312   7.476  0.2337  1.1971 -2.6081
   26MOL   H27711327   1.213   1.284   7.451  0.7780 -0.5462  0.4965
   26MOL   H27811328   1.170   1.132   7.282  1.0016  0.2521  0.1399
   26MOL   H27911329   1.065   1.272   7.251 -1.0790  0.4810  1.0839
   26MOL   H28011330   0.862   1.147   7.333  0.9133  0.8074  2.0774
   26MOL   H28111331   0.950   1.052   7.213  0.3551  0.3199 -0.0501
   26MOL   H28211332   1.071   0.918   7.389  0.5101  0.6348  0.5874
   26MOL   H28311333   0.891   0.913   7.402 -0.5379  0.0965  1.2906
   26MOL   H28411334   0.982   0.954   7.619  1.7879  0.5893  0.6632
   26MOL   H28511335   0.881   1.082   7.560 -0.8950 -2.1259  1.1272
   26MOL   H28611336   1.287   1.249   0.068 -0.6386  1.3132 -0.5047
   26MOL   H28711337   1.316   1.282   7.672 -1.9456 -0.0917 -0.4021
   26MOL   C28811338   1.384   1.093   7.727 -0.8903 -0.2487  0.2081
   26MOL   C28911339   1.373   0.987   0.071  0.6478  0.1781 -0.7418
   26MOL   C29011340   1.469   0.866   0.052 -0.1772 -0.1778  0.0504
   26MOL   C29111341   1.438   0.761   0.164 -0.4530  0.1358 -0.1362
   26MOL   C29211342   1.460   0.825   0.311 -0.3955  0.3134  0.0965
   26MOL   C29311343   1.376   0.955   0.326 -0.3378 -0.6664 -0.1375
   26MOL   C29411344   1.393   1.056   0.211 -0.8455 -0.1365  0.5221
   26MOL   C29511345   1.528   1.153   7.715 -0.4992 -1.1785 -0.7193
   26MOL   H29611346   1.371   1.038   7.633 -0.6346  0.2762 -0.1419
   26MOL   H29711347   1.276   0.939   0.060  1.3222 -1.4282  0.1573
   26MOL   H29811348   1.449   0.816   7.730 -0.4139 -0.7149  0.3835
   26MOL   H29911349   1.570   0.907   0.051  0.4855 -1.8019 -0.1973
   26MOL   H30011350   1.339   0.718   0.146 -0.6714  0.5662  0.0432
   26MOL   H30111351   1.509   0.677   0.164 -0.2769  0.2846  0.1770
   26MOL   H30211352   1.567   0.835   0.333 -0.4567 -0.0194  0.5376
   26MOL   H30311353   1.424   0.754   0.385  2.2242  0.9885  2.1058
   26MOL   H30411354   1.396   0.999   0.424 -0.4445 -0.4672 -0.2057
   26MOL   H30511355   1.271   0.928   0.332 -0.5231  0.1894  0.6132
   26MOL   H30611356   1.488   1.108   0.218 -0.0564 -1.4810 -0.0416
   26MOL   H30711357   1.310   1.124   0.228 -1.3738 -0.0211 -2.2733
   26MOL   H30811358   1.524   1.258   7.743  2.4038 -1.7077  1.9188
   26MOL   H30911359   1.591   1.107   0.019  0.8012  0.9592 -0.4735
   26MOL   C31011360   1.590   1.139   7.568 -0.6873 -0.2331 -0.2977
   26MOL   C31111361   1.714   1.234   7.541 -0.1051  0.3424  0.0788
   26MOL   C31211362   1.678   1.386   7.533  0.5096  0.3124 -0.4054
   26MOL   C31311363   1.791   1.456   7.467 -0.1622 -0.1691  0.5826
   26MOL   C31411364   1.920   1.439   7.543 -0.6229 -0.0671  0.0654
   26MOL   C31511365   1.953   1.295   7.555 -0.3869  0.6068  0.3115
   26MOL   C31611366   1.846   1.207   7.613  0.5114 -0.1253  0.0211
   26MOL   C31711367   1.620   0.984   7.552 -0.0135 -0.5176 -0.5304
   26MOL   H31811368   1.511   1.166   7.499 -0.9905  0.6011  0.3686
   26MOL   H31911369   1.736   1.198   7.440 -0.7831  0.7930 -0.2349
   26MOL   H32011370   1.589   1.405   7.471 -1.3493 -1.9481  1.4973
   26MOL   H32111371   1.667   1.425   7.634 -1.1358 -0.5727 -0.2210
   26MOL   H32211372   1.772   1.563   7.471 -2.2811 -0.4367 -1.5647
   26MOL   H32311373   1.802   1.416   7.366  2.1248 -4.1817  2.2634
   26MOL   H32411374   1.990   1.485   7.474 -2.0005 -2.1602 -2.8101
   26MOL   H32511375   1.930   1.489   7.640  0.6926  1.9370 -1.0685
   26MOL   H32611376   1.970   1.266   7.452  1.1015  0.3658  0.6073
   26MOL   H32711377   2.052   1.294   7.602  0.0027 -0.1733 -0.5057
   26MOL   H32811378   1.841   1.221   7.721  0.7081  3.1119 -0.3546
   26MOL   H32911379   1.872   1.105   7.584  0.2702 -0.7368  1.8624
   26MOL   H33011380   1.533   0.925   7.581 -0.3617 -0.6417 -1.7949
   26MOL   H33111381   1.689   0.968   7.635 -3.8570  2.1245  3.4311
   26MOL   C33211382   1.649   0.934   7.412 -0.2172 -0.2672 -0.0409
   26MOL   C33311383   1.541   0.938   7.306  0.4784 -0.1664 -0.2888
   26MOL   C33411384   1.438   0.827   7.324  0.2245 -0.6145  0.0950
   26MOL   C33511385   1.323   0.824   7.230  0.7200 -0.3270  0.0165
   26MOL   C33611386   1.368   0.815   7.087  0.2705  0.6645 -0.1436
   26MOL   C33711387   1.483   0.909   7.061  0.5174 -0.4068 -0.5300
   26MOL   C33811388   1.595   0.922   7.167 -0.3205 -0.2582  0.1216
   26MOL   C33911389   1.704   0.786   7.432 -0.3092 -0.1507  0.0737
   26MOL   H34011390   1.738   0.989   7.381 -0.4534  0.0037 -0.2460
   26MOL   H34111391   1.483   1.029   7.320  1.5506  0.3282  1.0310
   26MOL   H34211392   1.484   0.728   7.325  2.3570  0.2992 -1.8285
   26MOL   H34311393   1.390   0.835   7.421 -1.8636  1.1090 -1.0388
   26MOL   H34411394   1.261   0.737   7.252  0.4593 -0.5052 -1.4140
   26MOL   H34511395   1.262   0.913   7.246 -0.1072 -0.3461 -2.8448
   26MOL   H34611396   1.389   0.710   7.070  0.9599  0.7800  0.0048
   26MOL   H34711397   1.286   0.833   7.018 -1.0402 -0.3035  1.1259
   26MOL   H34811398   1.439   1.007   7.045  1.4506  0.2274  0.6934
   26MOL   H34911399   1.525   0.889   6.962 -1.2998 -0.4757 -1.2968
   26MOL   H35011400   1.654   1.014   7.156 -0.4662 -0.0873  0.7293
   26MOL   H35111401   1.661   0.836   7.162  0.0987 -0.0366  1.6074
   26MOL   H35211402   1.697   0.734   7.337  0.5644 -0.7036  0.3072
   26MOL   H35311403   1.647   0.729   7.505  0.6280 -0.5758  0.4863
   26MOL   C35411404   1.858   0.768   7.466 -0.1341 -0.0069  0.7463
   26MOL   C35511405   1.952   0.765   7.338  0.0542 -0.0432 -0.8415
   26MOL   C35611406   1.974   0.894   7.259  0.6857 -0.0623 -0.5590
   26MOL   C35711407   2.087   0.891   7.160  0.0518  0.3152  1.0670
   26MOL   C35811408   2.058   0.779   7.058 -0.1420 -0.0810 -0.5988
   26MOL   C35911409   2.033   0.648   7.127  0.0255  0.1963 -0.1407
   26MOL   C36011410   1.930   0.650   7.239 -0.6349 -0.3260 -0.5748
   26MOL   C36111411   1.872   0.646   7.562 -0.6718  0.1901  0.5067
   26MOL   H36211412   1.902   0.856   7.513  0.6674  0.9430 -1.6934
   26MOL   H36311413   2.050   0.745   7.382  0.3251  1.0376 -0.9362
   26MOL   H36411414   1.993   0.980   7.324  0.1965 -0.4303  0.0843
   26MOL   H36511415   1.884   0.916   7.201  1.1536 -0.9552 -1.6411
   26MOL   H36611416   2.099   0.987   7.109 -1.4257  0.2812  0.6218
   26MOL   H36711417   2.177   0.868   7.216  0.9680  0.3861 -0.3615
   26MOL   H36811418   1.970   0.813   7.003  0.2693 -0.5496 -1.5460
   26MOL   H36911419   2.138   0.775   6.984 -0.7897  0.4106 -1.3435
   26MOL   H37011420   2.006   0.574   7.051  0.2557 -1.1371  1.0536
   26MOL   H37111421   2.133   0.617   7.159  0.9627  0.4657 -2.6546
   26MOL   H37211422   1.931   0.549   7.280  0.2529 -0.6802 -1.4385
   26MOL   H37311423   1.839   0.670   7.184 -0.9962 -1.1261 -0.2603
   26MOL   H37411424   1.973   0.607   7.553 -0.5245  0.2126  2.0223
   26MOL   H37511425   1.813   0.563   7.523 -0.0202 -1.2960  2.5937
   26MOL   C37611426   1.842   0.656   7.713 -0.0603 -0.3545  0.5130
   26MOL   C37711427   1.785   0.537   0.009 -0.5878  0.0144  0.1098
   26MOL   C37811428   1.879   0.414   0.010  0.6734  0.4216  0.3346
   26MOL   C37911429   1.811   0.291   0.086  0.3069  0.2934 -0.6240
   26MOL   C38011430   1.671   0.262   0.036 -0.1717  0.5497 -0.0223
   26MOL   C38111431   1.581   0.386   0.034 -0.2944  0.0784 -0.2265
   26MOL   C38211432   1.643   0.499   7.728  0.6234  1.2497 -0.6046
   26MOL   C38311433   1.981   0.708   0.009 -0.3645 -0.1204 -0.6053
   26MOL   H38411434   1.768   0.734   7.731  0.3503 -0.3973  2.5874
   26MOL   H38511435   1.778   0.560   0.116 -0.0843 -2.6274  0.7515
   26MOL   H38611436   1.917   0.390   7.683 -0.0524 -2.1039  0.6303
   26MOL   H38711437   1.971   0.431   0.065  0.2691  3.2752  0.1802
   26MOL   H38811438   1.801   0.308   0.193 -1.3290 -0.3333 -0.6724
   26MOL   H38911439   1.873   0.203   0.072  0.0359  0.2431 -1.5110
   26MOL   H39011440   1.681   0.212   7.712  0.8325 -1.4643  1.0913
   26MOL   H39111441   1.626   0.197   0.111 -0.5364  1.6396  0.7237
   26MOL   H39211442   1.485   0.353   7.765 -0.1128  0.5292 -1.0176
   26MOL   H39311443   1.562   0.438   0.128  0.0362  2.0163 -1.2080
   26MOL   H39411444   1.638   0.462   7.626  1.7078  0.1325 -0.2546
   26MOL   H39511445   1.571   0.582   7.726 -0.7605  0.0455 -1.7811
   26MOL   H39611446   2.062   0.688   7.711  0.0669  0.2266 -0.2148
   26MOL   H39711447   1.999   0.638   0.091 -3.1768 -1.7848 -1.3550
   26MOL   C39811448   1.986   0.855   0.064 -0.1529 -0.4657  0.1289
   26MOL   C39911449   1.895   0.884   0.187  0.3474 -1.1141  0.0932
   26MOL   C40011450   1.948   0.823   0.322  0.1754  0.2870  0.5356
   26MOL   C40111451   1.840   0.816   0.426 -0.9307  0.6527  0.3987
   26MOL   C40211452   1.801   0.962   0.463 -0.0784 -0.4283 -0.0486
   26MOL   C40311453   1.770   1.044   0.330  0.0153 -0.4803 -0.2334
   26MOL   C40411454   1.876   1.038   0.219 -0.2943 -0.7537 -1.0562
   26MOL   C40511455   2.135   0.893   0.093  0.4309  0.1780 -0.4610
   26MOL   H40611456   1.949   0.912   7.751  1.0037  2.5545  1.5673
   26MOL   H40711457   1.800   0.838   0.160  0.5913 -0.7529 -1.4120
   26MOL   H40811458   2.043   0.863   0.359  1.9662 -1.1631 -2.2764
   26MOL   H40911459   1.981   0.720   0.306  0.0203  0.4162 -0.7214
   26MOL   H41011460   1.883   0.766   0.512  1.3518 -1.7644 -2.0745
   26MOL   H41111461   1.751   0.759   0.400  0.2107 -1.6251  1.3231
   26MOL   H41211462   1.883   1.014   0.511 -2.5335  2.3092  1.3822
   26MOL   H41311463   1.717   0.971   0.532 -0.5738 -0.0304 -0.6833
   26MOL   H41411464   1.668   1.024   0.298 -0.8307  2.6722  0.3763
   26MOL   H41511465   1.764   1.150   0.351  1.3787 -0.1768 -1.2649
   26MOL   H41611466   1.845   1.087   0.127  0.3745 -1.2967 -1.5783
   26MOL   H41711467   1.963   1.088   0.261 -1.1526 -1.0887  1.2212
   26MOL   H41811468   2.136   0.994   0.136 -0.7086 -0.9595  2.3552
   26MOL   H41911469   2.161   0.832   0.180 -2.2605 -0.4237 -0.0333
   26MOL   C42011470   2.247   0.866   7.768  0.0812 -0.4686 -0.0466
   26MOL   C42111471   2.382   0.915   0.043  0.3641 -1.1568  0.1429
   26MOL   C42211472   2.414   0.856   0.181  0.4848 -0.1068  0.2375
   26MOL   C42311473   2.559   0.888   0.213 -0.0073 -0.0739 -0.7127
   26MOL   C42411474   2.577   1.037   0.232  0.0098  0.5955 -0.0877
   26MOL   C42511475   2.539   1.107   0.109  0.1298  0.3801 -0.2803
   26MOL   C42611476   2.402   1.066   0.056  0.0150  1.0300  0.6050
   26MOL   C42711477   2.228   0.943   7.633  0.1046 -0.1215  0.3126
   26MOL   H42811478   2.256   0.759   7.749  0.1231 -0.4443 -0.1659
   26MOL   H42911479   2.457   0.880   7.745  0.7080  1.0099 -0.6072
   26MOL   H43011480   2.350   0.902   0.256 -0.5474 -0.2714 -0.5195
   26MOL   H43111481   2.385   0.751   0.187  1.6045 -0.5868 -2.1233
   26MOL   H43211482   2.587   0.835   0.305  3.9768 -0.8077 -2.2448
   26MOL   H43311483   2.614   0.848   0.128 -2.5063 -1.8501 -1.5643
   26MOL   H43411484   2.678   1.056   0.267  0.6985 -3.4653  0.3656
   26MOL   H43511485   2.514   1.058   0.318 -0.9691 -2.9984  0.1761
   26MOL   H43611486   2.613   1.088   0.031  0.1295  0.8077 -0.3829
   26MOL   H43711487   2.544   1.214   0.128 -1.8619  0.1225  1.9273
   26MOL   H43811488   2.332   1.099   0.134 -0.0706 -0.4158  1.1593
   26MOL   H43911489   2.376   1.116   7.735 -3.6092 -1.3774  0.2488
   26MOL   H44011490   2.164   0.879   7.572  2.0675 -1.9272  0.0719
   26MOL   H44111491   2.195   1.046   7.635  2.9860  0.8295  2.5856
   26MOL   H44211492   2.315   0.936   7.566 -0.3608  0.2746 -0.3365
   27MOL     C111493   3.487   4.222   4.410  0.4671  0.5286  0.1510
   27MOL     C211494   3.629   4.168   4.438  0.7145  0.1226  0.3060
   27MOL     C311495   3.729   4.280   4.463 -0.3540  0.3352  0.3124
   27MOL     C411496   3.866   4.228   4.506 -0.8402  0.0863  0.0144
   27MOL     C511497   3.923   4.115   4.410 -0.1647  0.2356 -0.2828
   27MOL     C611498   3.819   4.011   4.383  0.1360 -0.2380  0.1202
   27MOL     C711499   3.685   4.073   4.328 -0.8202 -0.4812 -0.0994
   27MOL     C811500   3.479   4.324   4.292  0.3952 -0.0300 -0.3573
   27MOL     H911501   3.416   4.141   4.396  0.4580  0.6048 -0.2359
   27MOL    H1011502   3.635   4.125   4.538  0.8654  2.3447  1.2930
   27MOL    H1111503   3.739   4.325   4.365  1.1050  0.5985  0.5715
   27MOL    H1211504   3.687   4.353   4.532 -1.7015  0.1054 -0.2522
   27MOL    H1311505   3.862   4.177   4.603 -2.4558  1.3793  0.6527
   27MOL    H1411506   3.939   4.307   4.520  1.1820 -2.2245  3.3241
   27MOL    H1511507   4.012   4.068   4.452 -1.0374 -1.5054 -0.3371
   27MOL    H1611508   3.959   4.144   4.311 -0.2214 -0.6752 -0.5681
   27MOL    H1711509   3.865   3.943   4.311 -0.0063 -0.5054  0.2831
   27MOL    H1811510   3.802   3.950   4.472  1.3279 -0.9187 -0.0982
   27MOL    H1911511   3.624   3.988   4.298 -1.0709 -0.0871 -0.7165
   27MOL    H2011512   3.703   4.130   4.237 -0.1019 -0.6297 -0.0512
   27MOL    H2111513   3.519   4.272   4.206 -1.8343  0.1839 -1.5399
   27MOL    H2211514   3.553   4.402   4.312  1.6618 -0.7661 -2.0680
   27MOL    H2311515   3.447   4.275   4.497  0.6697 -0.7989  1.0653
   27MOL    C2411516   3.340   4.380   4.233  0.5101  0.4886 -0.5150
   27MOL    C2511517   3.340   4.537   4.230 -0.2342  0.5573 -0.1683
   27MOL    C2611518   3.428   4.600   4.121  0.0875 -0.3175  0.5698
   27MOL    C2711519   3.411   4.753   4.116 -1.1217  0.3636  0.3221
   27MOL    C2811520   3.402   4.830   4.252 -0.1119  0.0722 -0.1410
   27MOL    C2911521   3.317   4.759   4.351  0.2301 -0.3349 -0.9161
   27MOL    C3011522   3.355   4.612   4.363  0.3466 -0.4320  0.4662
   27MOL    C3111523   3.290   4.318   4.093 -0.4387  0.0893  0.1267
   27MOL    H3211524   3.264   4.349   4.305  1.3210 -3.0228 -1.1219
   27MOL    H3311525   3.235   4.552   4.208  0.1505  0.7258 -1.9872
   27MOL    H3411526   3.421   4.566   4.018  0.2192 -1.4185  0.9082
   27MOL    H3511527   3.532   4.585   4.149  0.5699  1.8535 -0.0244
   27MOL    H3611528   3.490   4.792   4.050 -2.5572  2.0437 -0.4424
   27MOL    H3711529   3.325   4.774   4.052  0.1891 -1.3057 -2.0841
   27MOL    H3811530   3.367   4.933   4.253 -1.8830 -0.5289  0.2741
   27MOL    H3911531   3.501   4.835   4.299  1.1021 -1.5220 -2.4202
   27MOL    H4011532   3.328   4.804   4.449  1.2923  1.1260 -1.6962
   27MOL    H4111533   3.213   4.779   4.326 -1.1582 -2.6394  2.6102
   27MOL    H4211534   3.453   4.602   4.410  0.5085 -0.8399  0.0459
   27MOL    H4311535   3.295   4.561   4.438  0.1788 -1.7385 -0.5284
   27MOL    H4411536   3.376   4.286   4.034 -1.0452 -1.8608  0.2729
   27MOL    H4511537   3.254   4.403   4.035  1.7084 -0.1822 -1.7025
   27MOL    C4611538   3.178   4.211   4.108  0.0782  0.1059  0.5966
   27MOL    C4711539   3.226   4.071   4.160  0.3332 -0.1222  1.0784
   27MOL    C4811540   3.322   3.997   4.069 -0.0393 -0.0508 -0.3515
   27MOL    C4911541   3.378   3.866   4.127 -0.3335  0.1568  0.1466
   27MOL    C5011542   3.252   3.782   4.163 -0.3105 -0.1297 -1.0299
   27MOL    C5111543   3.157   3.850   4.262 -0.4796  0.4404  0.5215
   27MOL    C5211544   3.107   3.980   4.197  0.4402  0.1884 -0.0543
   27MOL    C5311545   3.082   4.202   3.983  0.3534  0.3777  0.3686
   27MOL    H5411546   3.116   4.249   4.189 -2.3644 -0.1993 -1.0741
   27MOL    H5511547   3.286   4.081   4.250 -1.3207  2.1961  1.9585
   27MOL    H5611548   3.276   3.970   3.975 -0.1716  0.0559 -0.3177
   27MOL    H5711549   3.400   4.068   4.039  1.7793 -1.9388 -0.1638
   27MOL    H5811550   3.436   3.883   4.217 -1.0606  0.5180  0.5477
   27MOL    H5911551   3.446   3.817   4.057  1.3908 -0.3869  2.1492
   27MOL    H6011552   3.196   3.746   4.077 -2.8080  1.8451 -0.2918
   27MOL    H6111553   3.291   3.693   4.212  0.2494 -0.0023 -1.2412
   27MOL    H6211554   3.214   3.870   4.352  1.7238  1.6063 -1.0695
   27MOL    H6311555   3.078   3.790   4.306 -0.0313  0.9094  1.9723
   27MOL    H6411556   3.040   3.959   4.114 -0.4089  1.4490  0.2913
   27MOL    H6511557   3.036   4.035   4.259 -1.9616  0.6580 -3.1110
   27MOL    H6611558   3.018   4.289   3.986 -0.8259 -0.4654  0.1902
   27MOL    H6711559   3.008   4.123   3.997  0.8817 -0.7503 -2.6724
   27MOL    C6811560   3.133   4.202   3.840  0.0377 -0.3866 -0.1364
   27MOL    C6911561   3.046   4.112   3.739  0.0563 -0.1181 -0.4514
   27MOL    C7011562   3.054   3.965   3.782 -0.2919  0.1839  0.1945
   27MOL    C7111563   2.976   3.871   3.692 -0.2171 -0.1127  0.0576
   27MOL    C7211564   2.841   3.934   3.649  0.6337  0.5529  0.1012
   27MOL    C7311565   2.842   4.080   3.618  0.8174 -0.2238 -0.7081
   27MOL    C7411566   2.898   4.161   3.730  0.3598  0.3344 -0.6680
   27MOL    C7511567   3.160   4.346   3.792  0.4583  0.1332 -0.7400
   27MOL    H7611568   3.227   4.147   3.846 -0.7066 -1.6226  0.3011
   27MOL    H7711569   3.089   4.124   3.639 -0.1441  1.7206 -0.3301
   27MOL    H7811570   3.015   3.957   3.884  3.0145  3.9361  1.8303
   27MOL    H7911571   3.158   3.938   3.797  0.4260  1.2276 -2.6415
   27MOL    H8011572   3.035   3.854   3.602  0.5679  0.6610  0.4217
   27MOL    H8111573   2.957   3.777   3.744  1.0854 -0.3281  0.1647
   27MOL    H8211574   2.764   3.908   3.721 -0.2258 -2.1053 -1.7098
   27MOL    H8311575   2.809   3.883   3.558 -0.6040  3.0599 -0.9098
   27MOL    H8411576   2.738   4.114   3.623  0.1722 -2.0658 -1.0592
   27MOL    H8511577   2.885   4.108   3.522 -1.5894  1.1225 -1.4311
   27MOL    H8611578   2.837   4.155   3.820  2.3514  0.8789  0.7568
   27MOL    H8711579   2.894   4.266   3.701  1.4957  1.1090  1.8268
   27MOL    H8811580   3.096   4.423   3.835 -2.4154 -1.4045 -2.0945
   27MOL    H8911581   3.256   4.371   3.837 -0.3911  0.7786  0.7358
   27MOL    C9011582   3.188   4.374   3.641  0.1082  0.5789 -0.5304
   27MOL    C9111583   3.218   4.527   3.608  0.7386  0.6335  0.2382
   27MOL    C9211584   3.094   4.625   3.624 -0.1531  0.2375 -0.2394
   27MOL    C9311585   3.128   4.771   3.599  0.5130  0.0448  0.1427
   27MOL    C9411586   3.254   4.814   3.663 -0.3196  0.3658 -0.1081
   27MOL    C9511587   3.376   4.723   3.648  0.3066  0.4962 -0.2400
   27MOL    C9611588   3.333   4.584   3.693 -1.3976 -0.6164 -0.5404
   27MOL    C9711589   3.302   4.277   3.592  0.5894  0.0139  0.1667
   27MOL    H9811590   3.096   4.356   3.586  0.4940  0.7646 -1.2441
   27MOL    H9911591   3.254   4.542   3.506 -1.2313  0.9270 -0.4303
   27MOL   H10011592   3.067   4.609   3.729 -0.1717  0.4215 -0.2165
   27MOL   H10111593   3.013   4.600   3.555 -0.4804  1.2347 -0.2212
   27MOL   H10211594   3.055   4.839   3.643  1.9430  2.9207 -1.6812
   27MOL   H10311595   3.131   4.799   3.494 -1.1865  0.0135  0.0840
   27MOL   H10411596   3.241   4.834   3.769 -0.5932 -0.9144  0.1027
   27MOL   H10511597   3.275   4.912   3.621 -3.3430  2.4703  2.9968
   27MOL   H10611598   3.403   4.727   3.543 -0.2445  0.5566 -0.3798
   27MOL   H10711599   3.464   4.756   3.703 -0.2585  0.7209  0.5445
   27MOL   H10811600   3.417   4.515   3.698 -0.9839 -0.1352 -0.7413
   27MOL   H10911601   3.307   4.593   3.799 -0.3576 -1.7231 -0.1842
   27MOL   H11011602   3.398   4.310   3.631  0.4096  0.3408  0.3419
   27MOL   H11111603   3.297   4.180   3.640 -0.2343 -0.1318 -0.1960
   27MOL   C11211604   3.307   4.278   3.438 -0.3989 -0.1214  0.2469
   27MOL   C11311605   3.206   4.190   3.366 -0.4963 -0.3324  0.2399
   27MOL   C11411606   3.228   4.041   3.392 -0.7613 -0.1300 -0.1321
   27MOL   C11511607   3.128   3.956   3.324 -0.2378  0.5210  0.2211
   27MOL   C11611608   3.117   3.981   3.175 -0.0766  0.4658 -0.5120
   27MOL   C11711609   3.085   4.123   3.147  0.2608 -0.6396  0.2172
   27MOL   C11811610   3.187   4.212   3.211 -0.2129 -0.9299 -0.5993
   27MOL   C11911611   3.453   4.247   3.392 -0.4550  0.5082  0.4818
   27MOL   H12011612   3.293   4.380   3.402 -1.4576 -0.9098 -1.6041
   27MOL   H12111613   3.105   4.213   3.400 -1.1863 -1.7478 -0.8043
   27MOL   H12211614   3.239   4.027   3.500  0.1297  2.6144  0.1770
   27MOL   H12311615   3.328   4.015   3.357 -0.8778  1.6469 -1.8387
   27MOL   H12411616   3.162   3.854   3.305 -0.4554  1.0163 -3.1819
   27MOL   H12511617   3.034   3.950   3.380  0.3526 -1.1934  1.0529
   27MOL   H12611618   3.206   3.944   3.124 -1.5806 -0.5252 -2.4970
   27MOL   H12711619   3.028   3.940   3.128 -0.8809 -1.0152  2.2457
   27MOL   H12811620   3.071   4.126   3.039  2.0385 -1.1161 -0.0453
   27MOL   H12911621   2.984   4.148   3.180 -0.7882 -2.8861 -1.1537
   27MOL   H13011622   3.162   4.317   3.192  0.3089 -0.4994  1.0448
   27MOL   H13111623   3.285   4.208   3.163 -0.8548 -0.2974 -2.0164
   27MOL   H13211624   3.465   4.190   3.300 -0.1657 -2.5638  2.3646
   27MOL   H13311625   3.514   4.191   3.462 -2.3619 -0.1362  1.6758
   27MOL   C13411626   3.544   4.373   3.372  0.3442  0.1297  0.0161
   27MOL   C13511627   3.503   4.463   3.248 -0.8176  0.2970 -0.2264
   27MOL   C13611628   3.534   4.396   3.108 -0.6259  0.4517  0.1509
   27MOL   C13711629   3.460   4.471   2.998  0.2016  0.3258  0.2638
   27MOL   C13811630   3.509   4.615   2.986  0.3984  0.4452  0.1193
   27MOL   C13911631   3.495   4.690   3.113  0.1568  0.1932  0.5995
   27MOL   C14011632   3.552   4.607   3.240  0.4886 -0.6351  0.8698
   27MOL   C14111633   3.698   4.362   3.378  0.2956 -0.1496  0.2795
   27MOL   H14211634   3.531   4.435   3.461  0.7017 -1.6421  1.3071
   27MOL   H14311635   3.394   4.461   3.251 -0.7822  0.3178  1.0328
   27MOL   H14411636   3.640   4.404   3.086  0.2991 -0.4730  3.9432
   27MOL   H14511637   3.518   4.288   3.100  0.0870  0.4675 -1.5004
   27MOL   H14611638   3.351   4.467   3.001  0.1722 -0.2302 -0.9788
   27MOL   H14711639   3.499   4.426   2.906  1.7369 -0.1897  1.1551
   27MOL   H14811640   3.615   4.626   2.962  0.4430 -1.5414 -0.7252
   27MOL   H14911641   3.464   4.667   2.902  2.5688 -0.6076 -1.7253
   27MOL   H15011642   3.393   4.723   3.136 -0.1701 -1.5165  1.6963
   27MOL   H15111643   3.546   4.787   3.106  0.8360 -0.1118  1.2823
   27MOL   H15211644   3.661   4.612   3.251  0.4891 -1.7931  1.4460
   27MOL   H15311645   3.518   4.652   3.333 -3.0070 -1.8568  0.2391
   27MOL   H15411646   3.732   4.466   3.386  1.4979 -0.6061  1.3297
   27MOL   H15511647   3.729   4.323   3.281  0.8999  0.7354  0.1040
   27MOL   C15611648   3.760   4.271   3.484  0.1678  0.0525 -0.7630
   27MOL   C15711649   3.723   4.308   3.629  0.1990  0.0544  0.1486
   27MOL   C15811650   3.728   4.202   3.744 -0.2548  0.2187  0.0977
   27MOL   C15911651   3.637   4.253   3.861 -0.0315 -0.9344  0.0581
   27MOL   C16011652   3.692   4.394   3.910  0.5554  0.3835  0.2761
   27MOL   C16111653   3.704   4.499   3.801  0.4064 -0.3692 -0.4739
   27MOL   C16211654   3.769   4.451   3.675 -0.1702 -0.6678 -0.8183
   27MOL   C16311655   3.910   4.266   3.466  0.1776  0.1604  0.4866
   27MOL   H16411656   3.716   4.172   3.472 -0.7828  0.3398  0.2611
   27MOL   H16511657   3.615   4.315   3.624  0.0718 -0.9960  1.1892
   27MOL   H16611658   3.686   4.107   3.710 -0.0292  0.3637 -0.5857
   27MOL   H16711659   3.830   4.184   3.778  0.3058  0.0239 -1.6424
   27MOL   H16811660   3.533   4.269   3.831  0.8814  0.6641 -2.4985
   27MOL   H16911661   3.636   4.178   3.939 -2.1855 -1.4857 -0.4602
   27MOL   H17011662   3.786   4.370   3.958  0.2401 -0.3061  0.5497
   27MOL   H17111663   3.624   4.432   3.987  0.2079 -0.7079  0.5158
   27MOL   H17211664   3.766   4.579   3.839 -1.5638  1.8131 -1.7259
   27MOL   H17311665   3.609   4.549   3.782  0.7770  0.0085 -1.3861
   27MOL   H17411666   3.759   4.520   3.591  2.9938  0.0530 -0.6492
   27MOL   H17511667   3.877   4.450   3.687 -0.3143  0.3991  0.7659
   27MOL   H17611668   3.954   4.207   3.546  0.6489 -0.1445  0.0146
   27MOL   H17711669   3.936   4.371   3.464 -2.1538  0.7686  0.6196
   27MOL   C17811670   3.961   4.199   3.324  0.0777 -0.0559 -0.1318
   27MOL   C17911671   4.047   4.299   3.235  0.2893  0.1103  0.0153
   27MOL   C18011672   4.055   4.256   3.089 -0.5927 -0.1425  0.3903
   27MOL   C18111673   4.133   4.367   3.006  0.6028 -0.5150 -0.2291
   27MOL   C18211674   4.265   4.396   3.071  0.8039  0.4623  0.2574
   27MOL   C18311675   4.250   4.434   3.220  0.1376 -0.0445  0.0544
   27MOL   C18411676   4.178   4.335   3.298  0.3845  0.7783  0.2553
   27MOL   C18511677   4.028   4.057   3.346  0.0668  0.9955 -0.2355
   27MOL   H18611678   3.877   4.171   3.260  0.7649 -3.3871  0.3024
   27MOL   H18711679   3.989   4.391   3.241 -2.1063 -1.1988 -2.0190
   27MOL   H18811680   4.110   4.162   3.080  2.0542  1.3118  0.8147
   27MOL   H18911681   3.956   4.245   3.046  1.1488 -0.6525 -3.7173
   27MOL   H19011682   4.064   4.451   3.009 -0.3160 -1.2765  0.0324
   27MOL   H19111683   4.156   4.346   2.901 -1.5164  1.2879 -1.0932
   27MOL   H19211684   4.325   4.306   3.086 -0.1546 -0.1062  0.7400
   27MOL   H19311685   4.316   4.480   3.024 -1.4734  0.4012 -2.4753
   27MOL   H19411686   4.210   4.535   3.233  1.4167  0.5035 -0.1613
   27MOL   H19511687   4.350   4.439   3.263  1.0941  2.1110 -2.2822
   27MOL   H19611688   4.236   4.246   3.279  0.6340  1.5886 -3.0254
   27MOL   H19711689   4.181   4.349   3.406 -1.5117  1.5805  0.2343
   27MOL   H19811690   4.060   4.017   3.249  0.4694  2.8747 -0.8920
   27MOL   H19911691   4.115   4.061   3.411  0.8870  1.1071 -1.3329
   27MOL   C20011692   3.939   3.941   3.406  0.0629  0.2354  0.1290
   27MOL   C20111693   3.807   3.921   3.329  0.6126 -0.1230  0.1352
   27MOL   C20211694   3.818   3.897   3.178  0.3577  0.7968  0.4562
   27MOL   C20311695   3.675   3.888   3.116  0.2742 -0.4290  0.1927
   27MOL   C20411696   3.587   3.789   3.189  0.4154 -0.2689 -0.1460
   27MOL   C20511697   3.570   3.823   3.333 -0.3859  0.0294  0.2598
   27MOL   C20611698   3.707   3.828   3.404  0.5919 -0.1374  0.9764
   27MOL   C20711699   4.026   3.812   3.409  0.7033 -0.3327  0.7679
   27MOL   H20811700   3.915   3.966   3.509  2.2755  1.1660  0.4457
   27MOL   H20911701   3.745   4.009   3.349  0.9016 -0.1719  1.3083
   27MOL   H21011702   3.861   3.798   3.169 -1.4117 -0.0055  0.5749
   27MOL   H21111703   3.887   3.967   3.130  0.7357 -0.0904 -0.2927
   27MOL   H21211704   3.619   3.981   3.122 -1.0638 -1.1744 -0.7320
   27MOL   H21311705   3.688   3.866   3.010 -0.0841 -3.1635  0.6682
   27MOL   H21411706   3.492   3.787   3.137 -0.4407 -2.4812  1.4186
   27MOL   H21511707   3.627   3.688   3.176 -0.6153 -0.6610 -0.3367
   27MOL   H21611708   3.523   3.921   3.324  0.2876  0.2979 -0.3852
   27MOL   H21711709   3.501   3.755   3.384  0.9792  0.0495  2.1775
   27MOL   H21811710   3.673   3.865   3.501 -0.2941  1.0967  0.2112
   27MOL   H21911711   3.753   3.730   3.410 -0.8696 -1.0587 -1.9635
   27MOL   H22011712   3.961   3.731   3.377  0.8900  0.1107 -0.7881
   27MOL   H22111713   4.097   3.815   3.326 -0.4351 -1.3820 -0.2579
   27MOL   C22211714   4.107   3.785   3.532  0.7543  0.3430 -0.1478
   27MOL   C22311715   4.078   3.650   3.603  0.6499  0.4837  0.3365
   27MOL   C22411716   4.094   3.526   3.506 -0.1369 -0.0450 -0.1667
   27MOL   C22511717   4.070   3.395   3.583 -0.6362 -0.1362  0.8230
   27MOL   C22611718   3.926   3.389   3.627  0.0972  0.4062  0.0338
   27MOL   C22711719   3.896   3.513   3.716 -0.4872 -0.3461 -0.2191
   27MOL   C22811720   3.935   3.649   3.663  0.0861  0.2996 -0.3237
   27MOL   C22911721   4.253   3.816   3.516  0.2597  0.1986  0.3956
   27MOL   H23011722   4.085   3.857   3.610 -3.1031  0.4922 -1.3060
   27MOL   H23111723   4.138   3.645   3.694  1.9456 -0.2662 -0.5281
   27MOL   H23211724   4.026   3.548   3.424  0.6849  2.3193 -0.2716
   27MOL   H23311725   4.197   3.513   3.473  0.6443  0.6201  1.8848
   27MOL   H23411726   4.130   3.398   3.674  1.1265 -0.1238 -0.3320
   27MOL   H23511727   4.093   3.314   3.513 -0.8645  0.7177 -0.2518
   27MOL   H23611728   3.862   3.394   3.539  1.7642 -0.5908 -1.2723
   27MOL   H23711729   3.902   3.307   3.693  2.1292  3.0815  4.2828
   27MOL   H23811730   3.953   3.501   3.808 -2.0876 -0.7730  0.7344
   27MOL   H23911731   3.792   3.519   3.750  0.1123 -0.8347  1.7526
   27MOL   H24011732   3.855   3.668   3.592 -0.7107 -1.3635  0.1200
   27MOL   H24111733   3.916   3.718   3.745 -0.6062 -0.9348  0.5582
   27MOL   H24211734   4.269   3.896   3.444  3.0636 -1.2431 -0.7023
   27MOL   H24311735   4.298   3.732   3.462  1.0874 -1.1956  3.1792
   27MOL   C24411736   4.353   3.848   3.630  0.3090 -0.1333  0.1727
   27MOL   C24511737   4.463   3.950   3.575 -0.0090  0.3234 -0.4418
   27MOL   C24611738   4.413   4.100   3.574  0.2903  0.3141 -0.4716
   27MOL   C24711739   4.515   4.200   3.513  0.4465  0.0288 -0.6101
   27MOL   C24811740   4.577   4.141   3.379  0.3882  0.0945 -0.4002
   27MOL   C24911741   4.640   3.998   3.395 -0.2397 -0.0280  0.2037
   27MOL   C25011742   4.531   3.903   3.451 -0.5139  0.0428 -1.0222
   27MOL   C25111743   4.414   3.731   3.704  0.3574 -0.0980 -0.0293
   27MOL   H25211744   4.302   3.909   3.704  0.2428 -0.4846  0.4193
   27MOL   H25311745   4.554   3.958   3.635 -1.4971  2.4505  1.6868
   27MOL   H25411746   4.387   4.148   3.669  0.5672 -0.4880  0.0223
   27MOL   H25511747   4.318   4.088   3.521  0.9968 -4.6920 -0.8972
   27MOL   H25611748   4.470   4.299   3.503  2.5973  0.9749 -1.1453
   27MOL   H25711749   4.592   4.216   3.588 -0.4348  0.3375  0.2414
   27MOL   H25811750   4.496   4.135   3.307  1.2192 -1.1653 -1.2679
   27MOL   H25911751   4.657   4.210   3.351  0.3091  0.1160 -0.5707
   27MOL   H26011752   4.719   4.009   3.470 -0.6631 -1.9549  0.9672
   27MOL   H26111753   4.693   3.960   3.307 -1.6375  0.4879 -0.8720
   27MOL   H26211754   4.458   3.892   3.371 -0.8303 -1.1867 -0.5786
   27MOL   H26311755   4.579   3.806   3.462 -1.2739 -0.3895 -1.4951
   27MOL   H26411756   4.522   3.743   3.703  0.2953  0.8324  2.0901
   27MOL   H26511757   4.398   3.643   3.642 -0.3156 -0.5305  0.7522
   27MOL   C26611758   4.370   3.706   3.856  0.6742  0.0702  0.3161
   27MOL   C26711759   4.406   3.564   3.906 -0.1212  0.0537 -0.2434
   27MOL   C26811760   4.551   3.528   3.883  0.0182  0.4933 -0.1220
   27MOL   C26911761   4.581   3.383   3.925 -0.0751 -0.4090  0.1135
   27MOL   C27011762   4.472   3.274   3.891  0.5420 -0.1251  0.0867
   27MOL   C27111763   4.327   3.322   3.915  0.2154  0.1146 -0.0311
   27MOL   C27211764   4.307   3.464   3.846 -0.5219  0.2315 -0.0249
   27MOL   C27311765   4.433   3.816   3.940  0.0923 -0.0376 -0.2526
   27MOL   H27411766   4.261   3.713   3.857  0.6965  0.6573 -0.5369
   27MOL   H27511767   4.386   3.571   4.013  1.5857  1.5872  0.0001
   27MOL   H27611768   4.571   3.548   3.778  1.5549  3.0488  0.6106
   27MOL   H27711769   4.615   3.589   3.947  0.0512 -0.8315  1.1221
   27MOL   H27811770   4.588   3.395   4.033  1.0985 -1.0744  0.1225
   27MOL   H27911771   4.683   3.373   3.885  0.4023 -1.8097  1.6115
   27MOL   H28011772   4.471   3.251   3.785  1.6022 -1.3792  0.3253
   27MOL   H28111773   4.510   3.182   3.936  1.0664 -0.0672 -0.2238
   27MOL   H28211774   4.305   3.326   4.022  0.1033  0.7626 -0.0756
   27MOL   H28311775   4.256   3.252   3.872  0.0961 -0.2761  0.7923
   27MOL   H28411776   4.209   3.507   3.866 -0.9317 -0.7741  0.1733
   27MOL   H28511777   4.321   3.457   3.738  1.7817  1.9105  0.1404
   27MOL   H28611778   4.466   3.904   3.885  0.0576 -0.1248 -0.4121
   27MOL   H28711779   4.530   3.795   3.984 -0.1411  0.2822  0.4206
   27MOL   C28811780   4.337   3.854   4.056  0.2410 -0.0607  0.3452
   27MOL   C28911781   4.236   3.966   4.012 -0.8360 -0.3003 -0.7365
   27MOL   C29011782   4.102   3.957   4.090  0.1739  0.4109 -0.1883
   27MOL   C29111783   3.996   4.051   4.032  0.3113 -0.1287 -0.2055
   27MOL   C29211784   4.053   4.191   4.028 -0.1954  0.5525  0.0297
   27MOL   C29311785   4.194   4.206   3.967 -0.2622 -0.3651 -0.3014
   27MOL   C29411786   4.300   4.106   4.018 -0.1238 -0.8656 -0.1874
   27MOL   C29511787   4.416   3.890   4.181  0.1995  0.0714 -0.0077
   27MOL   H29611788   4.272   3.772   4.088  0.3070  0.2791  1.3662
   27MOL   H29711789   4.221   3.946   3.906  1.5087  0.7516 -1.2993
   27MOL   H29811790   4.047   3.863   4.099  0.2328  0.4596  0.6498
   27MOL   H29911791   4.130   3.986   4.191  1.1787  1.3511 -0.7231
   27MOL   H30011792   3.961   4.010   3.938 -0.3593  2.0064 -0.9265
   27MOL   H30111793   3.905   4.063   4.092  0.3366  1.0455 -0.3944
   27MOL   H30211794   4.065   4.218   4.133 -0.1012 -0.8352  0.3897
   27MOL   H30311795   3.979   4.258   3.985 -0.2539  1.7202  1.8676
   27MOL   H30411796   4.232   4.308   3.979  0.6231 -0.4473 -2.2488
   27MOL   H30511797   4.192   4.203   3.858  2.4136 -0.5874 -0.3865
   27MOL   H30611798   4.332   4.133   4.119  0.6602 -1.6028 -0.2238
   27MOL   H30711799   4.386   4.106   3.951  0.0327  1.5469 -0.0409
   27MOL   H30811800   4.503   3.950   4.155  1.3738 -0.8407  1.7016
   27MOL   H30911801   4.360   3.956   4.247 -0.5707 -1.6089  1.0632
   27MOL   C31011802   4.446   3.768   4.277 -0.1693  1.3756 -0.0757
   27MOL   C31111803   4.546   3.791   4.398  1.1248  0.2004 -0.4786
   27MOL   C31211804   4.689   3.797   4.336 -0.4075  0.0705  0.0696
   27MOL   C31311805   4.800   3.815   4.452 -0.6009  0.2419  0.1739
   27MOL   C31411806   4.773   3.942   4.537  0.4836  0.0426 -0.1051
   27MOL   C31511807   4.629   3.951   4.584  0.3953  0.2545 -0.1950
   27MOL   C31611808   4.523   3.912   4.475 -0.0085 -0.1436  0.2082
   27MOL   C31711809   4.315   3.695   4.331 -0.1559  0.2954 -0.6536
   27MOL   H31811810   4.497   3.694   4.215 -1.4068 -1.0544  1.7427
   27MOL   H31911811   4.544   3.711   4.472 -0.4995  0.3447 -0.3496
   27MOL   H32011812   4.697   3.711   4.269 -0.7550 -0.7176  1.0302
   27MOL   H32111813   4.697   3.884   4.270  1.9717 -0.2726 -0.1371
   27MOL   H32211814   4.898   3.820   4.404 -0.5364  3.1710  0.5091
   27MOL   H32311815   4.806   3.734   4.525  1.0069 -2.2538 -2.6157
   27MOL   H32411816   4.843   3.947   4.621  0.9289 -1.3092 -0.3815
   27MOL   H32511817   4.794   4.029   4.475  0.3381  1.0028  1.1742
   27MOL   H32611818   4.611   3.886   4.669 -1.7541  1.5364  0.3687
   27MOL   H32711819   4.610   4.053   4.617 -2.9806 -0.4263  0.0782
   27MOL   H32811820   4.508   3.998   4.410  0.7288  0.3381  0.6661
   27MOL   H32911821   4.431   3.904   4.533  0.3955  1.0172  1.0195
   27MOL   H33011822   4.263   3.648   4.248 -0.6151  0.1363 -0.2742
   27MOL   H33111823   4.257   3.773   4.380  0.9517 -0.3151  1.6764
   27MOL   C33211824   4.325   3.574   4.422  0.6348  0.3275 -0.2814
   27MOL   C33311825   4.432   3.474   4.394 -0.0327  0.4060  0.4394
   27MOL   C33411826   4.409   3.369   4.287 -0.4548  0.0358 -0.4580
   27MOL   C33511827   4.530   3.275   4.268 -0.1791 -0.8253 -0.0397
   27MOL   C33611828   4.582   3.214   4.391  0.7391 -0.6443 -0.2707
   27MOL   C33711829   4.628   3.331   4.488 -0.6982  0.2908  0.2094
   27MOL   C33811830   4.507   3.418   4.515  0.2499 -0.7440 -0.0688
   27MOL   C33911831   4.183   3.511   4.450 -0.1324  0.7829 -0.7946
   27MOL   H34011832   4.349   3.619   4.519 -1.4731  1.4602 -0.2653
   27MOL   H34111833   4.514   3.528   4.346  0.3493  0.5062  1.2012
   27MOL   H34211834   4.311   3.320   4.291  0.0217 -0.7497  2.1659
   27MOL   H34311835   4.404   3.425   4.193  0.4222 -0.3003 -0.7049
   27MOL   H34411836   4.494   3.193   4.205 -0.8424  1.1292 -2.3193
   27MOL   H34511837   4.617   3.320   4.218 -0.9974  0.9735  0.1048
   27MOL   H34611838   4.495   3.169   4.438  1.2732 -0.1501  1.2167
   27MOL   H34711839   4.656   3.136   4.377  2.6083  0.5926  2.3154
   27MOL   H34811840   4.706   3.393   4.442 -1.6162  1.7481  0.5924
   27MOL   H34911841   4.675   3.296   4.580 -0.7468 -0.6910 -0.1389
   27MOL   H35011842   4.541   3.510   4.562  0.1191  0.5454 -2.4308
   27MOL   H35111843   4.437   3.375   4.587  0.8392 -0.7827  0.4863
   27MOL   H35211844   4.172   3.442   4.367  2.0102 -0.1043 -0.3847
   27MOL   H35311845   4.111   3.592   4.440 -0.1441  0.5118 -2.9962
   27MOL   C35411846   4.158   3.439   4.592 -0.1549  0.4033 -0.5378
   27MOL   C35511847   4.181   3.278   4.584 -0.2123 -0.2507  0.0974
   27MOL   C35611848   4.071   3.214   4.502  0.7172 -0.6832  0.5247
   27MOL   C35711849   4.082   3.062   4.494  0.0501  0.3117  0.7020
   27MOL   C35811850   4.124   2.993   4.624  0.6859  0.3684  0.3200
   27MOL   C35911851   4.256   3.058   4.669 -0.0526  0.0788 -0.3910
   27MOL   C36011852   4.225   3.206   4.710  0.2361  0.3951 -0.3241
   27MOL   C36111853   4.025   3.481   4.664 -0.4988 -0.1722 -0.1625
   27MOL   H36211854   4.238   3.484   4.651 -1.4054  1.3029  0.5046
   27MOL   H36311855   4.264   3.264   4.515  0.7765 -1.0683  1.4292
   27MOL   H36411856   4.046   3.277   4.417 -1.6903 -0.9542  0.9972
   27MOL   H36511857   3.979   3.228   4.558  1.1820  0.3180  1.0425
   27MOL   H36611858   3.992   3.012   4.457  0.2798 -0.8688  1.7006
   27MOL   H36711859   4.163   3.039   4.426 -0.6664  0.0196 -0.0613
   27MOL   H36811860   4.050   3.003   4.703  1.1047 -2.0447  1.0523
   27MOL   H36911861   4.136   2.886   4.603  0.8736 -0.0628  2.5263
   27MOL   H37011862   4.283   3.004   4.760  0.1089  1.2340  0.2541
   27MOL   H37111863   4.335   3.045   4.596  1.7127  0.9136  1.3437
   27MOL   H37211864   4.305   3.257   4.763 -0.0843  0.3188  0.2411
   27MOL   H37311865   4.144   3.227   4.779  0.2451  0.2400 -0.2660
   27MOL   H37411866   4.012   3.433   4.761  0.1661 -1.5316 -0.7389
   27MOL   H37511867   3.955   3.440   4.591 -0.5095  0.3926 -0.4748
   27MOL   C37611868   4.002   3.637   4.667  0.3357 -0.1545  0.2351
   27MOL   C37711869   3.853   3.679   4.637  0.0351  0.8430  0.0097
   27MOL   C37811870   3.749   3.610   4.729 -0.0461 -0.1657  0.1139
   27MOL   C37911871   3.600   3.639   4.682 -0.8070 -0.1141 -0.0496
   27MOL   C38011872   3.584   3.590   4.539 -0.1830 -0.4757 -0.2202
   27MOL   C38111873   3.678   3.670   4.444 -0.0445 -0.8260  0.3329
   27MOL   C38211874   3.822   3.655   4.488 -0.4087 -0.4544  0.4359
   27MOL   C38311875   4.043   3.694   4.803  0.6398 -0.1479 -0.1996
   27MOL   H38411876   4.057   3.694   4.592 -0.6439 -1.0979 -1.2173
   27MOL   H38511877   3.836   3.785   4.658 -0.2708  0.9106 -0.5722
   27MOL   H38611878   3.755   3.502   4.741 -1.4865 -0.0965  1.8093
   27MOL   H38711879   3.757   3.649   4.831 -0.6791  1.2114 -0.3544
   27MOL   H38811880   3.587   3.746   4.693  2.8069  0.2881  0.8451
   27MOL   H38911881   3.531   3.594   4.754 -0.6958  0.4068  0.3839
   27MOL   H39011882   3.611   3.484   4.531 -0.2975 -0.6517  1.5389
   27MOL   H39111883   3.479   3.600   4.512 -0.2976 -0.9582  0.0302
   27MOL   H39211884   3.664   3.629   4.344  1.2044 -0.0377 -0.1851
   27MOL   H39311885   3.640   3.772   4.445  2.7408  0.2996 -1.9255
   27MOL   H39411886   3.856   3.558   4.453 -2.2090 -0.9782  0.0770
   27MOL   H39511887   3.878   3.732   4.434  1.4291 -1.8620  0.3088
   27MOL   H39611888   4.018   3.621   4.879 -0.1519  0.0871 -0.2338
   27MOL   H39711889   3.985   3.784   4.821 -0.1615 -0.6860 -0.0924
   27MOL   C39811890   4.200   3.733   4.810  0.8797 -0.2043 -0.0972
   27MOL   C39911891   4.234   3.892   4.793  0.3301 -0.2449 -0.4835
   27MOL   C40011892   4.168   3.956   4.679 -0.6266  0.2078  0.4036
   27MOL   C40111893   4.216   4.102   4.668  0.6712 -0.0813 -0.1643
   27MOL   C40211894   4.182   4.183   4.795  0.2706  0.1495 -0.3082
   27MOL   C40311895   4.237   4.114   4.922  0.5619  0.4305 -0.0965
   27MOL   C40411896   4.192   3.967   4.920 -0.1239 -0.0815  0.5519
   27MOL   C40511897   4.256   3.668   4.937 -0.2433  0.1551 -0.2113
   27MOL   H40611898   4.263   3.695   4.730  0.8809 -1.7155  0.6030
   27MOL   H40711899   4.340   3.903   4.771  0.2512  1.6604  0.0830
   27MOL   H40811900   4.060   3.959   4.690 -0.5338  0.2619  1.2865
   27MOL   H40911901   4.197   3.914   4.583  0.1932  0.5830  0.4856
   27MOL   H41011902   4.172   4.138   4.576 -2.1878 -2.3617  0.2495
   27MOL   H41111903   4.325   4.104   4.664  0.8798 -3.6631  1.1436
   27MOL   H41211904   4.074   4.196   4.799  0.5085  1.7269  1.1849
   27MOL   H41311905   4.238   4.277   4.793 -0.2579  0.4526 -2.4162
   27MOL   H41411906   4.345   4.110   4.922  0.5993  1.1338  0.9561
   27MOL   H41511907   4.209   4.163   5.016  0.8234  1.0835 -0.3626
   27MOL   H41611908   4.234   3.920   5.009  2.0560  0.7850  0.0114
   27MOL   H41711909   4.086   3.956   4.943 -0.5993 -0.1584 -1.5878
   27MOL   H41811910   4.198   3.700   5.024  0.5624 -2.7443  1.4627
   27MOL   H41911911   4.231   3.562   4.939  0.1458  0.0733  0.6404
   27MOL   C42011912   4.404   3.687   4.969  0.4427  0.0849 -0.0387
   27MOL   C42111913   4.507   3.598   4.883  0.0697  0.2818 -0.4455
   27MOL   C42211914   4.514   3.450   4.935  0.1257 -0.5571 -0.5368
   27MOL   C42311915   4.613   3.355   4.859 -0.5297 -0.0877 -0.2010
   27MOL   C42411916   4.750   3.421   4.846 -0.7731 -0.3212  0.6524
   27MOL   C42511917   4.739   3.560   4.782 -0.4752  0.0646 -0.2122
   27MOL   C42611918   4.653   3.650   4.869  0.0608  0.1239  0.4618
   27MOL   C42711919   4.431   3.678   5.122 -0.1052 -0.1779  0.1853
   27MOL   H42811920   4.428   3.792   4.955 -1.1775  0.6641  1.3238
   27MOL   H42911921   4.491   3.603   4.775  3.7673 -0.3028 -1.0908
   27MOL   H43011922   4.525   3.429   5.041 -0.4444  1.3742 -0.0748
   27MOL   H43111923   4.413   3.413   4.916 -0.1347 -0.6452  1.0214
   27MOL   H43211924   4.596   3.269   4.924 -0.8354 -0.2378 -0.4771
   27MOL   H43311925   4.558   3.334   4.767 -1.0260 -0.8025  0.2548
   27MOL   H43411926   4.818   3.360   4.787 -1.4076  0.2386 -0.6744
   27MOL   H43511927   4.796   3.428   4.944  0.9635 -0.7760 -0.1096
   27MOL   H43611928   4.707   3.551   4.678 -0.6251  1.1175 -0.2688
   27MOL   H43711929   4.839   3.600   4.763 -0.9828  0.5429 -1.9508
   27MOL   H43811930   4.695   3.665   4.968  0.7348  0.6119  0.1067
   27MOL   H43911931   4.660   3.748   4.821  0.7870  0.2891  0.8972
   27MOL   H44011932   4.398   3.768   5.173 -2.1261 -0.4729 -0.5411
   27MOL   H44111933   4.373   3.599   5.170  0.6868 -1.6243 -1.1940
   27MOL   H44211934   4.537   3.675   5.146  0.3417  0.2366 -1.6573
   28MOL     C111935   4.696   7.761   7.113  0.7182  0.0754 -0.3206
   28MOL     C211936   4.670   7.611   7.071  0.8308 -0.0874 -0.2610
   28MOL     C311937   4.758   7.559   6.962 -0.2447  0.8068  0.8477
   28MOL     C411938   4.718   7.419   6.910  0.1488  0.8311  0.0160
   28MOL     C511939   4.571   7.418   6.865  0.7432 -0.5952 -0.0740
   28MOL     C611940   4.484   7.446   6.986  0.3287  0.3822 -0.2123
   28MOL     C711941   4.516   7.585   7.038 -0.8357  0.0427 -1.0836
   28MOL     C811942   4.828   0.001   7.189  0.1022 -0.7296  0.0855
   28MOL     H911943   4.697   0.052   7.024 -0.3307  0.0288 -0.3739
   28MOL    H1011944   4.689   7.551   7.160 -2.8947 -1.1099 -0.0657
   28MOL    H1111945   4.747   7.618   6.871  1.8648 -1.2206 -0.7797
   28MOL    H1211946   4.864   7.565   6.988  0.8383  0.5843 -3.1780
   28MOL    H1311947   4.728   7.346   6.991  1.8732  0.8723 -0.1498
   28MOL    H1411948   4.787   7.411   6.826  0.2404  0.8617  0.0872
   28MOL    H1511949   4.534   7.328   6.817 -1.5975  0.6550 -0.6921
   28MOL    H1611950   4.548   7.491   6.787 -0.8508  1.1227  1.9362
   28MOL    H1711951   4.378   7.439   6.961  0.1626  0.8826  0.3217
   28MOL    H1811952   4.515   7.379   7.066 -0.8426 -1.0683 -0.9366
   28MOL    H1911953   4.458   7.614   7.126  1.7549  1.0804  0.3406
   28MOL    H2011954   4.489   7.660   6.963 -2.0613 -0.4908 -1.1968
   28MOL    H2111955   4.919   7.736   7.141  0.0337 -0.5166 -0.2120
   28MOL    H2211956   4.823   7.693   7.263 -0.7632  0.6153  1.4964
   28MOL    H2311957   4.615   0.018   7.179 -0.1494  1.7077 -2.0595
   28MOL    C2411958   4.861   0.139   7.244  0.3770  0.0134  0.3081
   28MOL    C2511959   4.991   0.140   7.336  0.2605  0.0491 -0.3021
   28MOL    C2611960   5.119   0.091   7.260  0.2916 -0.6311  0.0138
   28MOL    C2711961   5.238   0.110   7.357  0.2000 -0.2887  0.2680
   28MOL    C2811962   5.217   0.017   7.477  0.5567 -0.0324 -0.2736
   28MOL    C2911963   5.091   0.062   7.556  0.2496  0.1023 -0.0385
   28MOL    C3011964   4.968   0.059   7.466 -0.1455 -0.0048 -0.2376
   28MOL    C3111965   4.862   0.253   7.136 -0.1424  0.4489 -0.4172
   28MOL    H3211966   4.773   0.175   7.299  0.8000  1.0035  0.3600
   28MOL    H3311967   5.009   0.243   7.365 -0.4798  0.5336 -1.5133
   28MOL    H3411968   5.129   0.139   7.163 -0.2347 -0.5485 -0.0050
   28MOL    H3511969   5.099   7.758   7.236 -3.4692 -0.0564  0.2532
   28MOL    H3611970   5.335   0.082   7.317  1.0496  1.7662  0.8317
   28MOL    H3711971   5.250   0.209   7.401  1.3721 -1.3880  2.5266
   28MOL    H3811972   5.302   0.028   7.544 -0.2091 -0.5470  0.7931
   28MOL    H3911973   5.220   7.684   7.446  1.9763  0.9403 -3.6067
   28MOL    H4011974   5.083   0.001   7.646 -0.5344 -1.5413 -1.2016
   28MOL    H4111975   5.104   0.163   7.594 -1.4469 -0.7747  3.0449
   28MOL    H4211976   4.958   7.726   7.440  2.9787 -0.1354 -1.0190
   28MOL    H4311977   4.878   0.088   7.520 -1.1001 -1.2231 -1.1524
   28MOL    H4411978   4.899   0.198   7.050 -1.5392  0.0096 -0.7561
   28MOL    H4511979   4.942   0.326   7.143 -0.0468  0.4009 -0.9671
   28MOL    C4611980   4.729   0.327   7.099  0.4078  0.0545  0.1353
   28MOL    C4711981   4.723   0.379   6.957 -0.4029  0.0547 -0.7408
   28MOL    C4811982   4.725   0.269   6.854  0.5957 -0.2173  0.4432
   28MOL    C4911983   4.713   0.325   6.712 -0.3877 -0.1887  0.3978
   28MOL    C5011984   4.837   0.409   6.682  0.1840  0.1836  0.6223
   28MOL    C5111985   4.850   0.520   6.787  0.1465  0.3110  0.1908
   28MOL    C5211986   4.845   0.481   6.933 -0.2027 -0.1135 -0.3797
   28MOL    C5311987   4.706   0.443   7.196 -0.1113  0.4380  0.2206
   28MOL    H5411988   4.643   0.261   7.108 -0.2124  1.0675  1.7520
   28MOL    H5511989   4.638   0.448   6.955  1.0187  1.8437 -0.5520
   28MOL    H5611990   4.815   0.208   6.863  1.1172  0.6855  1.4759
   28MOL    H5711991   4.635   0.209   6.868 -0.1304  0.7565 -0.0131
   28MOL    H5811992   4.623   0.386   6.706 -0.0831  0.0918 -1.7064
   28MOL    H5911993   4.705   0.238   6.647  0.8503  0.2562 -0.3669
   28MOL    H6011994   4.927   0.347   6.686  0.5221  0.5276 -0.8661
   28MOL    H6111995   4.833   0.463   6.587 -0.1903 -0.1733  0.4359
   28MOL    H6211996   4.763   0.585   6.783  0.8696  1.5695  3.5199
   28MOL    H6311997   4.930   0.592   6.767 -1.3681  1.9750 -0.0150
   28MOL    H6411998   4.934   0.420   6.944 -1.9444 -3.0427 -2.0664
   28MOL    H6511999   4.852   0.573   6.993 -2.8342  0.9582 -1.6452
   28MOL    H6612000   4.780   0.520   7.175  0.2674 -0.0185 -0.1358
   28MOL    H6712001   4.745   0.411   7.293 -0.5921  0.5145  0.4407
   28MOL    C6812002   4.561   0.499   7.227 -0.0030  0.9341 -0.5413
   28MOL    C6912003   4.479   0.385   7.303  0.7346  0.0215 -0.6609
   28MOL    C7012004   4.524   0.344   7.442 -0.3658 -0.9930  0.3587
   28MOL    C7112005   4.440   0.250   7.514 -0.0087 -0.2504  0.0587
   28MOL    C7212006   4.297   0.291   7.509 -0.9153 -0.1758 -0.1004
   28MOL    C7312007   4.232   0.313   7.369 -0.3858 -0.2652  0.1157
   28MOL    C7412008   4.324   0.415   7.292  0.2329 -0.4011  0.7061
   28MOL    C7512009   4.559   0.642   7.297  0.1565 -0.1138  0.2843
   28MOL    H7612010   4.520   0.509   7.127 -0.6292 -2.0023 -0.6248
   28MOL    H7712011   4.500   0.296   7.243  2.0175 -0.9866  1.2302
   28MOL    H7812012   4.551   0.429   7.505  0.6398 -1.1847  0.1916
   28MOL    H7912013   4.614   0.285   7.424 -0.5436 -1.4035  0.7956
   28MOL    H8012014   4.450   0.154   7.464  1.5451  0.4087 -0.9509
   28MOL    H8112015   4.484   0.233   7.612  1.2357 -2.0398 -0.7846
   28MOL    H8212016   4.271   0.380   7.565 -0.7591 -1.0602  1.4066
   28MOL    H8312017   4.235   0.215   7.557 -1.7888  2.2390  2.6943
   28MOL    H8412018   4.134   0.359   7.378 -0.1118  0.3189  0.1591
   28MOL    H8512019   4.232   0.224   7.306  0.5386 -0.3624  0.2375
   28MOL    H8612020   4.295   0.511   7.334  1.9398 -0.1898  1.4225
   28MOL    H8712021   4.307   0.413   7.184  0.5070 -4.4184  0.6870
   28MOL    H8812022   4.454   0.664   7.316  0.1670  0.5884 -0.4311
   28MOL    H8912023   4.591   0.620   7.398  1.7081  0.7523 -0.0135
   28MOL    C9012024   4.640   0.755   7.227 -0.0680 -0.3256 -0.9999
   28MOL    C9112025   4.584   0.775   7.084  0.1368 -0.1564  0.2735
   28MOL    C9212026   4.434   0.805   7.072 -0.1051  0.0258  0.1372
   28MOL    C9312027   4.390   0.842   6.923 -0.5245 -0.0046 -0.0435
   28MOL    C9412028   4.481   0.948   6.862  0.6665 -0.3314  0.3362
   28MOL    C9512029   4.635   0.905   6.863 -0.7382  0.4297 -0.1345
   28MOL    C9612030   4.673   0.879   7.013  0.7544 -0.6901  0.6414
   28MOL    C9712031   4.643   0.888   7.310  0.2735  0.2636  0.3435
   28MOL    H9812032   4.746   0.730   7.220  0.1347 -0.7805  2.6157
   28MOL    H9912033   4.600   0.684   7.026  0.1094 -0.3244  0.5300
   28MOL   H10012034   4.399   0.885   7.138 -1.4497 -0.2042 -0.2882
   28MOL   H10112035   4.367   0.726   7.105 -0.2550  0.8713  1.8946
   28MOL   H10212036   4.285   0.873   6.915 -1.8423 -3.8419  1.1146
   28MOL   H10312037   4.396   0.760   6.853 -2.2548  1.8707 -2.4694
   28MOL   H10412038   4.479   1.048   6.906 -1.2174  0.3529 -1.2268
   28MOL   H10512039   4.466   0.956   6.755  3.2286 -1.5920 -0.1495
   28MOL   H10612040   4.656   0.818   6.801 -0.0776 -0.0065  0.6835
   28MOL   H10712041   4.696   0.987   6.825  3.0049 -1.6852  0.9875
   28MOL   H10812042   4.772   0.835   6.999  1.6058  1.3134  0.2427
   28MOL   H10912043   4.693   0.975   7.061 -1.0890  0.3993 -0.6973
   28MOL   H11012044   4.714   0.954   7.260 -1.4164 -0.3428 -3.0101
   28MOL   H11112045   4.548   0.940   7.300  0.3403  0.0265 -1.7925
   28MOL   C11212046   4.681   0.877   7.461  0.3041  0.3584 -0.4053
   28MOL   C11312047   4.687   1.015   7.546 -0.6382  0.7251  0.0394
   28MOL   C11412048   4.555   1.101   7.535 -0.1881 -0.2628 -0.3328
   28MOL   C11512049   4.562   1.238   7.608  0.2554 -0.0071  0.1959
   28MOL   C11612050   4.681   1.317   7.563 -0.2063 -0.0216 -1.0870
   28MOL   C11712051   4.800   1.243   7.596  0.3560  0.0857  0.5073
   28MOL   C11812052   4.805   1.103   7.515 -0.4509 -0.0555  0.6839
   28MOL   C11912053   4.808   0.782   7.482  0.1682 -0.0468 -0.5227
   28MOL   H12012054   4.596   0.835   7.514  0.2908 -0.9704 -1.4591
   28MOL   H12112055   4.710   0.978   7.646 -1.3217 -0.6755 -0.3132
   28MOL   H12212056   4.471   1.041   7.571 -0.7089  0.8831  0.3798
   28MOL   H12312057   4.541   1.131   7.431  3.1034 -1.5668 -1.2152
   28MOL   H12412058   4.477   1.301   7.581  0.3574 -0.1170 -0.3880
   28MOL   H12512059   4.555   1.220   7.715  0.6363  0.8502  0.3703
   28MOL   H12612060   4.679   1.336   7.456 -1.7143 -1.2429 -1.2813
   28MOL   H12712061   4.682   1.418   7.605 -0.5686 -0.6916  0.5898
   28MOL   H12812062   4.886   1.300   7.562  0.0510  0.6734  0.7079
   28MOL   H12912063   4.806   1.220   7.702  0.7671 -1.5713  0.1494
   28MOL   H13012064   4.895   1.042   7.522 -0.8544 -1.0499 -2.4332
   28MOL   H13112065   4.818   1.123   7.409 -0.7316 -1.0310  0.4632
   28MOL   H13212066   4.888   0.842   7.437  0.8723 -0.4134  0.2352
   28MOL   H13312067   4.814   0.686   7.432  2.6285 -1.5333  2.4466
   28MOL   C13412068   4.834   0.737   7.633 -0.4733  0.3953 -0.0203
   28MOL   C13512069   4.979   0.699   7.661 -0.8562 -0.0762 -0.4607
   28MOL   C13612070   5.075   0.816   7.643 -0.0230  0.6947 -0.2530
   28MOL   C13712071   5.216   0.778   7.691  0.2817  0.9573 -0.1234
   28MOL   C13812072   5.263   0.659   7.601 -0.3568  0.3297 -0.1021
   28MOL   C13912073   5.170   0.534   7.614  0.9402 -0.1267 -0.4337
   28MOL   C14012074   5.030   0.582   7.573 -0.3152 -0.0585  0.1195
   28MOL   C14112075   4.727   0.636   7.688  0.2821  0.6135 -0.0210
   28MOL   H14212076   4.822   0.819   7.703 -3.1620  1.1836 -1.3398
   28MOL   H14312077   4.980   0.649   7.758  0.5099  2.0337  0.6520
   28MOL   H14412078   5.075   0.857   7.542  1.0074  0.7833 -0.2298
   28MOL   H14512079   5.038   0.903   7.698 -1.6140  0.3468 -0.7404
   28MOL   H14612080   5.196   0.748   0.022 -0.5393 -1.3576 -0.9070
   28MOL   H14712081   5.279   0.866   7.689 -0.6306  1.6113 -2.7388
   28MOL   H14812082   5.271   0.687   7.496  1.4830 -2.8092 -0.8657
   28MOL   H14912083   5.365   0.636   7.632  0.9163  2.1461 -2.8147
   28MOL   H15012084   5.173   0.481   7.709  0.4621 -1.1991 -1.0057
   28MOL   H15112085   5.202   0.457   7.544  0.8883  0.2165 -0.8409
   28MOL   H15212086   5.029   0.610   7.467 -2.6024 -2.4293 -0.5463
   28MOL   H15312087   4.961   0.498   7.571 -0.2688 -0.0692 -1.7376
   28MOL   H15412088   4.765   0.535   7.669 -1.0219  0.3173 -1.1554
   28MOL   H15512089   4.632   0.649   7.636 -0.0470 -0.1740  0.3847
   28MOL   C15612090   4.706   0.651   0.069 -0.1466  0.1709  0.3939
   28MOL   C15712091   4.683   0.514   0.137 -0.7847 -0.9085 -0.1664
   28MOL   C15812092   4.559   0.433   0.082  0.5450  0.1864  0.2173
   28MOL   C15912093   4.555   0.287   0.133  0.0860  0.7557 -0.5478
   28MOL   C16012094   4.694   0.215   0.130 -0.2117 -0.4633 -0.2469
   28MOL   C16112095   4.787   0.294   0.215 -0.4555  0.2304 -0.0199
   28MOL   C16212096   4.817   0.432   0.149 -0.7582 -0.7570  0.5914
   28MOL   C16312097   4.596   0.756   0.095  0.2260 -0.9248  0.6018
   28MOL   H16412098   4.799   0.692   0.109  1.9901 -2.2066 -1.9175
   28MOL   H16512099   4.646   0.529   0.238  0.8615 -0.1272  0.3361
   28MOL   H16612100   4.459   0.470   0.103 -0.1821 -1.3463 -0.5095
   28MOL   H16712101   4.571   0.427   7.746 -2.2273 -1.0120 -0.0609
   28MOL   H16812102   4.522   0.301   0.235  1.0084 -2.9363  0.3230
   28MOL   H16912103   4.480   0.221   0.091 -1.9810  2.9746 -0.4507
   28MOL   H17012104   4.734   0.210   0.029  0.7361  0.7771  0.0530
   28MOL   H17112105   4.677   0.109   0.147 -0.9475 -0.0696  1.5573
   28MOL   H17212106   4.879   0.241   0.237  0.6725  0.6654 -3.3902
   28MOL   H17312107   4.733   0.310   0.308 -2.5021 -2.5952 -0.6313
   28MOL   H17412108   4.890   0.484   0.209  0.5246 -0.4577 -1.2017
   28MOL   H17512109   4.865   0.428   0.051 -2.1415 -0.1580 -0.1315
   28MOL   H17612110   4.503   0.699   0.093 -2.0544  2.6519  1.0459
   28MOL   H17712111   4.596   0.831   0.015 -0.8189 -1.5504 -0.0059
   28MOL   C17812112   4.595   0.825   0.238 -0.0209  0.1385  0.1363
   28MOL   C17912113   4.730   0.884   0.287 -0.2665  0.1410  0.3297
   28MOL   C18012114   4.723   0.900   0.442  0.1821  0.3518 -0.0154
   28MOL   C18112115   4.867   0.926   0.495 -0.3443 -0.3072 -0.6135
   28MOL   C18212116   4.933   1.047   0.425 -0.2443  0.2641 -0.3715
   28MOL   C18312117   4.927   1.032   0.272  0.0143  0.1134  0.3153
   28MOL   C18412118   4.784   1.011   0.214 -0.1825 -0.2417 -0.0957
   28MOL   C18512119   4.472   0.921   0.245  0.3037  0.1407 -0.5446
   28MOL   H18612120   4.574   0.741   0.304  2.8604 -0.4675  0.3206
   28MOL   H18712121   4.800   0.801   0.289 -1.2548 -0.6927  0.6239
   28MOL   H18812122   4.651   0.979   0.461  1.1177  1.4590 -0.9875
   28MOL   H18912123   4.686   0.809   0.490 -0.9879  0.6381 -0.3591
   28MOL   H19012124   4.927   0.836   0.477 -0.1618 -0.3011 -0.0718
   28MOL   H19112125   4.861   0.944   0.603  1.9082 -0.7731 -0.3700
   28MOL   H19212126   4.882   1.127   0.478  0.2524 -0.5033  1.3215
   28MOL   H19312127   5.034   1.052   0.466 -1.2565  0.7948  2.1328
   28MOL   H19412128   5.000   0.958   0.238 -0.6340 -1.1079  1.5451
   28MOL   H19512129   4.962   1.121   0.220  1.2421 -1.6354 -1.9702
   28MOL   H19612130   4.725   1.094   0.254  1.7744  2.2208 -2.1290
   28MOL   H19712131   4.778   1.017   0.106 -0.3604  1.9760  0.0197
   28MOL   H19812132   4.496   1.014   0.296  0.1314 -0.0073 -0.1919
   28MOL   H19912133   4.458   0.960   0.145  1.5888 -0.5935 -1.0247
   28MOL   C20012134   4.337   0.862   0.297 -0.2465  0.0347  0.2505
   28MOL   C20112135   4.341   0.842   0.450 -0.4955 -0.3964  0.0645
   28MOL   C20212136   4.322   0.964   0.531 -0.4285  0.0059 -0.6541
   28MOL   C20312137   4.336   0.931   0.681 -0.2894 -0.2106 -0.0331
   28MOL   C20412138   4.255   0.811   0.737  0.2064  1.0931 -0.2774
   28MOL   C20512139   4.284   0.687   0.655 -0.0229 -1.0176 -0.1954
   28MOL   C20612140   4.253   0.727   0.503  0.1148  0.0719 -0.8349
   28MOL   C20712141   4.207   0.937   0.264 -0.3660  0.1850  0.0366
   28MOL   H20812142   4.326   0.761   0.256  2.5331  0.3066 -1.2912
   28MOL   H20912143   4.441   0.815   0.483 -1.3353 -2.9015  0.6701
   28MOL   H21012144   4.225   1.012   0.520 -0.0539  0.4848 -1.9458
   28MOL   H21112145   4.406   1.033   0.520 -0.4157  0.0887 -0.0132
   28MOL   H21212146   4.443   0.936   0.701 -0.5346  1.9905  0.9306
   28MOL   H21312147   4.298   1.014   0.740  0.5118 -0.2911  0.6053
   28MOL   H21412148   4.302   0.801   0.835  2.6402  2.7309 -1.2322
   28MOL   H21512149   4.148   0.826   0.746 -0.1451  0.2188 -2.5937
   28MOL   H21612150   4.383   0.649   0.677  0.8704  0.6237 -1.2493
   28MOL   H21712151   4.220   0.601   0.675 -0.7871 -0.1814  1.0731
   28MOL   H21812152   4.268   0.635   0.447 -1.9080 -1.6543  1.3105
   28MOL   H21912153   4.148   0.755   0.494 -0.0667 -0.3871 -0.2108
   28MOL   H22012154   4.124   0.924   0.333 -0.3502  1.5075  0.3117
   28MOL   H22112155   4.224   1.044   0.276  1.4780  0.4007 -3.6623
   28MOL   C22212156   4.162   0.946   0.111  0.9068 -0.5513 -1.0072
   28MOL   C22312157   4.157   0.806   0.037 -0.4021 -0.7044  0.1708
   28MOL   C22412158   4.168   0.815   7.658  0.1383  0.0567 -0.2705
   28MOL   C22512159   4.181   0.675   7.602  0.8451  0.4800  0.7256
   28MOL   C22612160   4.085   0.570   7.665 -0.4851  0.1628 -0.1012
   28MOL   C22712161   4.078   0.574   0.046 -0.9530 -0.7826 -0.2941
   28MOL   C22812162   4.051   0.710   0.092  0.2506  0.0370  0.4010
   28MOL   C22912163   4.033   1.019   0.078 -0.3966 -0.3949 -0.5745
   28MOL   H23012164   4.238   1.012   0.070  0.0499  1.1910  0.1533
   28MOL   H23112165   4.251   0.761   0.067  1.5964  1.4053 -2.6157
   28MOL   H23212166   4.071   0.852   7.626  0.1362  0.5838  0.3460
   28MOL   H23312167   4.253   0.877   7.631  0.4233  0.9500  2.5053
   28MOL   H23412168   4.284   0.645   7.619  0.8645 -0.3443 -0.7794
   28MOL   H23512169   4.172   0.669   7.494 -0.0983 -0.1008  0.8201
   28MOL   H23612170   3.986   0.595   7.628  0.6350  1.2868 -2.4217
   28MOL   H23712171   4.087   0.469   7.625 -1.0100  0.1722 -0.1459
   28MOL   H23812172   4.170   0.541   0.094 -0.4708 -0.7145 -1.1620
   28MOL   H23912173   4.008   0.497   0.078  0.4079 -2.4084 -1.1620
   28MOL   H24012174   3.955   0.735   0.047  1.1611  1.3613 -0.8531
   28MOL   H24112175   4.032   0.727   0.199  1.1040 -1.0147  0.7201
   28MOL   H24212176   3.961   0.961   0.136 -0.0610  0.6096  0.8833
   28MOL   H24312177   4.006   1.015   7.745  0.0648  2.1345 -0.8324
   28MOL   C24412178   4.039   1.166   0.120  0.4214 -0.3154  0.0423
   28MOL   C24512179   3.977   1.186   0.266 -0.0194 -0.2746  0.2186
   28MOL   C24612180   3.822   1.184   0.261  0.0012  0.8005 -0.2337
   28MOL   C24712181   3.782   1.160   0.410 -0.1604 -0.3073  0.4014
   28MOL   C24812182   3.829   1.280   0.494 -0.5398  0.3782  0.8074
   28MOL   C24912183   3.988   1.291   0.496  1.2581  0.7658 -0.6024
   28MOL   C25012184   4.030   1.297   0.350  0.0123  0.5379  0.2402
   28MOL   C25112185   3.986   1.255   0.001  0.5232 -0.1721 -0.5260
   28MOL   H25212186   4.146   1.186   0.130  0.1929  0.3395  1.3413
   28MOL   H25312187   4.013   1.103   0.328  1.7451 -0.1559 -0.6162
   28MOL   H25412188   3.792   1.116   0.182 -0.1691  0.3945  0.1785
   28MOL   H25512189   3.784   1.281   0.230  0.3238  0.7285 -0.8652
   28MOL   H25612190   3.673   1.152   0.413 -0.3674  1.4288 -1.6035
   28MOL   H25712191   3.824   1.071   0.458 -0.4913 -0.6603  0.0376
   28MOL   H25812192   3.783   1.369   0.452 -1.0880  0.6679  1.9911
   28MOL   H25912193   3.789   1.270   0.595 -1.1170  0.4950  0.5934
   28MOL   H26012194   4.043   1.214   0.550  1.3268  0.6537 -0.8305
   28MOL   H26112195   4.004   1.383   0.552 -0.3356  1.1659 -0.7843
   28MOL   H26212196   4.009   1.397   0.315  1.1445  1.4166  1.9784
   28MOL   H26312197   4.137   1.289   0.369 -0.0475  1.0516  0.7986
   28MOL   H26412198   3.887   1.230   7.733  0.2566 -1.1812  0.7592
   28MOL   H26512199   4.063   1.229   7.700  2.4760  1.4695  0.8831
   28MOL   C26612200   3.989   1.404   0.018  0.6725  0.3462 -0.1586
   28MOL   C26712201   4.131   1.459   0.047 -0.1129 -0.0801 -0.3674
   28MOL   C26812202   4.128   1.611   0.102 -0.6102 -0.2834  0.0177
   28MOL   C26912203   4.273   1.665   0.123  0.0871 -0.3638  0.7528
   28MOL   C27012204   4.368   1.646   0.012 -0.6916 -0.3041  0.2657
   28MOL   C27112205   4.378   1.500   7.738 -0.7779  0.1693 -0.5565
   28MOL   C27212206   4.235   1.445   7.704 -0.0730  0.1758  0.3466
   28MOL   C27312207   3.917   1.469   7.668  0.0655 -0.0599  0.5326
   28MOL   H27412208   3.933   1.436   0.106  0.0349 -0.7419 -0.1517
   28MOL   H27512209   4.173   1.394   0.124 -1.0725  1.1086  1.2133
   28MOL   H27612210   4.063   1.667   0.035 -0.7602 -0.4614  0.0103
   28MOL   H27712211   4.086   1.600   0.202  1.6992 -1.8221  0.8517
   28MOL   H27812212   4.317   1.609   0.206  0.7127  1.1305  1.4485
   28MOL   H27912213   4.277   1.768   0.160  0.1068 -0.0259 -0.1873
   28MOL   H28012214   4.345   1.720   7.708  1.0145 -0.4466 -0.4119
   28MOL   H28112215   4.465   1.680   0.047 -0.9009  2.3598 -1.6229
   28MOL   H28212216   4.422   1.443   0.048  1.0418 -0.3333 -1.8397
   28MOL   H28312217   4.449   1.490   7.656  1.2243 -1.5976  1.3518
   28MOL   H28412218   4.247   1.341   7.673 -2.3484  0.9284 -3.2465
   28MOL   H28512219   4.197   1.504   7.621  0.3711 -0.4162 -0.2805
   28MOL   H28612220   3.930   1.412   7.576 -0.5040 -1.1522  1.1282
   28MOL   H28712221   3.959   1.568   7.650 -1.3230  0.9438  2.5861
   28MOL   C28812222   3.761   1.500   7.686  0.2247  0.8043  0.7919
   28MOL   C28912223   3.686   1.503   7.550 -0.6707 -0.5230  0.0147
   28MOL   C29012224   3.750   1.582   7.439 -0.2244  1.0884 -0.3869
   28MOL   C29112225   3.677   1.577   7.305  0.3151  0.7804  0.5960
   28MOL   C29212226   3.636   1.429   7.262 -0.0823 -0.3068  0.0562
   28MOL   C29312227   3.559   1.363   7.379 -0.0552 -0.1625 -0.5807
   28MOL   C29412228   3.655   1.364   7.497  0.4027 -1.0043 -0.7659
   28MOL   C29512229   3.755   1.630   7.769 -0.1941  0.3161 -0.7028
   28MOL   H29612230   3.730   1.412   7.743  0.6219 -0.6801 -1.2469
   28MOL   H29712231   3.597   1.563   7.569 -0.6926  0.5628 -3.2300
   28MOL   H29812232   3.767   1.683   7.476  2.5908  0.6324 -0.3794
   28MOL   H29912233   3.851   1.547   7.420 -0.4362  0.3773 -0.2182
   28MOL   H30012234   3.589   1.642   7.308  0.4956  0.9280  3.0803
   28MOL   H30112235   3.738   1.622   7.226  1.8039 -2.2675 -0.0641
   28MOL   H30212236   3.725   1.368   7.244  0.4712  0.4520  0.1789
   28MOL   H30312237   3.591   1.431   7.163  1.9260  1.0787 -0.8586
   28MOL   H30412238   3.517   1.264   7.364 -1.1063  0.3585 -1.1308
   28MOL   H30512239   3.471   1.421   7.407 -0.8300 -1.3808 -0.4296
   28MOL   H30612240   3.746   1.311   7.467 -0.0847 -1.1188 -2.0578
   28MOL   H30712241   3.610   1.314   7.583  2.0135 -0.7234  0.2763
   28MOL   H30812242   3.825   1.623   0.080  0.3542 -0.5306 -1.2280
   28MOL   H30912243   3.792   1.709   7.704  0.9985 -0.2857 -0.7830
   28MOL   C31012244   3.609   1.673   0.044 -0.2370  0.1459 -0.7430
   28MOL   C31112245   3.537   1.559   0.127  0.2705 -0.4011 -0.1518
   28MOL   C31212246   3.610   1.502   0.252  0.0286 -0.6575  0.2482
   28MOL   C31312247   3.514   1.397   0.315 -0.5117 -0.3117  0.5493
   28MOL   C31412248   3.380   1.435   0.366 -0.1660 -0.3852 -0.0399
   28MOL   C31512249   3.304   1.496   0.241  0.5933 -0.2025 -0.1473
   28MOL   C31612250   3.392   1.605   0.172 -1.0632 -0.0433 -0.5693
   28MOL   C31712251   3.620   1.811   0.115  0.1774  0.1651 -0.0352
   28MOL   H31812252   3.551   1.693   7.726 -0.3615  1.4817 -0.3871
   28MOL   H31912253   3.508   1.484   0.053 -1.5158 -0.2334  0.3732
   28MOL   H32012254   3.714   1.481   0.227 -0.8107 -0.6966 -3.5586
   28MOL   H32112255   3.623   1.577   0.330  0.3051 -2.4930  2.0187
   28MOL   H32212256   3.573   1.360   0.399 -2.9960 -1.2054  1.9507
   28MOL   H32312257   3.498   1.314   0.247  0.2875  2.0380 -2.6294
   28MOL   H32412258   3.323   1.354   0.412 -0.1428 -1.2661 -1.5094
   28MOL   H32512259   3.383   1.507   0.447 -1.0223  0.0678 -0.4068
   28MOL   H32612260   3.296   1.416   0.167 -2.3938  0.2076 -0.3343
   28MOL   H32712261   3.200   1.521   0.261  0.3862 -0.1309 -1.2931
   28MOL   H32812262   3.400   1.692   0.237  1.5145  0.1638 -1.1040
   28MOL   H32912263   3.337   1.636   0.083 -0.0725  0.6719 -0.9288
   28MOL   H33012264   3.717   1.811   0.166 -0.8597  1.5350  1.9927
   28MOL   H33112265   3.567   1.819   0.210  0.6627 -0.1446  0.2704
   28MOL   C33212266   3.603   1.946   0.044  0.0557  0.3224  0.1401
   28MOL   C33312267   3.708   2.052   0.078  0.0760 -0.2383 -0.1112
   28MOL   C33412268   3.847   2.037   0.022 -0.7446 -0.3281 -0.4245
   28MOL   C33512269   3.941   2.157   0.057 -0.2457  0.4097 -0.0319
   28MOL   C33612270   3.952   2.187   0.208  0.2103  0.2655  0.1794
   28MOL   C33712271   3.819   2.208   0.266  0.1203  0.1042  0.6833
   28MOL   C33812272   3.725   2.088   0.230 -0.1162 -0.1496  0.3090
   28MOL   C33912273   3.450   1.982   0.046 -0.7864 -0.3107 -0.3433
   28MOL   H34012274   3.621   1.913   7.714  1.0088 -1.2918  0.8046
   28MOL   H34112275   3.669   2.140   0.027  0.3265  0.1843  0.4215
   28MOL   H34212276   3.884   1.945   0.067 -2.0716 -0.9539 -0.5744
   28MOL   H34312277   3.842   2.025   7.686 -0.5902  1.9944 -0.7163
   28MOL   H34412278   4.042   2.145   0.020  0.7018  0.5654  2.3906
   28MOL   H34512279   3.892   2.246   0.015 -1.0261  0.9839  1.9945
   28MOL   H34612280   3.999   2.102   0.258  0.0751  1.7438  2.9449
   28MOL   H34712281   4.014   2.277   0.220 -0.5400  1.0471 -1.7068
   28MOL   H34812282   3.771   2.297   0.224  0.4721  0.4312  0.9640
   28MOL   H34912283   3.827   2.225   0.373 -2.1198 -0.9314  1.0319
   28MOL   H35012284   3.625   2.118   0.261  0.5428  1.4939  0.9322
   28MOL   H35112285   3.752   2.003   0.292  1.4857 -0.8238 -1.2929
   28MOL   H35212286   3.415   2.017   0.143  0.8905  0.8485 -0.1348
   28MOL   H35312287   3.389   1.892   0.039 -0.9112 -0.2591  0.0494
   28MOL   C35412288   3.408   2.091   7.719  0.5757 -0.0219 -0.5397
   28MOL   C35512289   3.363   2.221   0.025 -0.2208  0.1432 -0.1857
   28MOL   C35612290   3.220   2.209   0.067 -0.1161  0.4777 -0.3952
   28MOL   C35712291   3.170   2.323   0.155 -0.0815  0.7641  0.1358
   28MOL   C35812292   3.210   2.454   0.092  0.2723 -0.2617  0.4542
   28MOL   C35912293   3.360   2.470   0.048  0.5828  0.5441 -1.0051
   28MOL   C36012294   3.395   2.354   7.722  0.2075  1.2072  0.1073
   28MOL   C36112295   3.303   2.046   7.609 -0.1412 -0.7701  0.4350
   28MOL   H36212296   3.500   2.118   7.667  0.4552  0.0809 -0.7027
   28MOL   H36312297   3.421   2.224   0.117 -0.4485 -2.0448  0.0703
   28MOL   H36412298   3.212   2.117   0.125 -0.2547 -0.1770 -1.4514
   28MOL   H36512299   3.145   2.193   7.762 -0.0950 -0.8587 -0.1595
   28MOL   H36612300   3.064   2.308   0.175  0.1908 -2.0605 -0.2576
   28MOL   H36712301   3.219   2.329   0.252 -0.0607 -1.3116  0.2800
   28MOL   H36812302   3.145   2.474   0.008  3.8682  0.1958 -2.3364
   28MOL   H36912303   3.192   2.536   0.162 -1.0145 -1.0293  1.0328
   28MOL   H37012304   3.372   2.564   7.766  0.8961  0.3422 -1.2875
   28MOL   H37112305   3.423   2.472   0.136  0.9546  2.2122 -1.2905
   28MOL   H37212306   3.502   2.355   7.699  0.4729 -2.1857  0.8754
   28MOL   H37312307   3.336   2.361   7.631  2.2686  2.5681 -1.1656
   28MOL   H37412308   3.268   2.134   7.554 -0.1726 -0.7694  0.4576
   28MOL   H37512309   3.221   2.006   7.668  0.1355 -3.5580 -1.0051
   28MOL   C37612310   3.356   1.948   7.506 -0.3244 -0.8277 -0.0486
   28MOL   C37712311   3.274   1.822   7.513 -0.3282 -0.2585  0.2604
   28MOL   C37812312   3.325   1.710   7.426  0.2058 -0.9538 -0.2107
   28MOL   C37912313   3.235   1.577   7.435 -0.6210 -0.0118  0.4657
   28MOL   C38012314   3.086   1.603   7.419  0.2089  0.8348  0.9028
   28MOL   C38112315   3.040   1.715   7.512  0.0674 -0.2643  0.0683
   28MOL   C38212316   3.123   1.843   7.494  0.0706 -0.0539  0.0550
   28MOL   C38312317   3.353   2.015   7.363  0.0626 -0.0480  0.3333
   28MOL   H38412318   3.458   1.915   7.525 -0.5550 -1.4939  0.0440
   28MOL   H38512319   3.276   1.770   7.609  0.9739  0.3035  0.5570
   28MOL   H38612320   3.313   1.733   7.320 -1.1870  3.2910  0.7881
   28MOL   H38712321   3.427   1.699   7.464  0.0320  0.4822  0.7066
   28MOL   H38812322   3.248   1.547   7.539 -2.7237 -0.3451  0.6467
   28MOL   H38912323   3.272   1.497   7.372 -0.9261  0.4071 -0.2577
   28MOL   H39012324   3.050   1.620   7.318  0.8456  0.3770  0.6031
   28MOL   H39112325   3.031   1.515   7.453 -0.2613  1.5462  2.0460
   28MOL   H39212326   2.933   1.730   7.506  0.4395  2.3745 -0.2613
   28MOL   H39312327   3.068   1.673   7.609 -0.5993 -1.5030 -0.2699
   28MOL   H39412328   3.097   1.883   7.395  0.0352  1.1364  0.5318
   28MOL   H39512329   3.081   1.914   7.566  0.6413  0.8759 -0.5144
   28MOL   H39612330   3.250   2.043   7.340 -0.3638 -0.3701  1.7615
   28MOL   H39712331   3.382   1.944   7.286  0.5756 -0.1041  0.5768
   28MOL   C39812332   3.441   2.139   7.335  0.5254  0.2457 -0.3393
   28MOL   C39912333   3.593   2.112   7.366 -0.0639  0.3760  0.3279
   28MOL   C40012334   3.662   2.009   7.275 -0.9818  0.1674 -0.3392
   28MOL   C40112335   3.806   1.974   7.317  0.4002 -0.2091  0.0973
   28MOL   C40212336   3.885   2.111   7.334 -0.1048 -0.2868  0.1819
   28MOL   C40312337   3.805   2.223   7.416  0.3690  0.3080 -0.7392
   28MOL   C40412338   3.668   2.243   7.357  0.5289 -0.3033  0.4021
   28MOL   C40512339   3.418   2.192   7.192  0.4639 -0.7141 -0.2681
   28MOL   H40612340   3.394   2.209   7.405 -0.5555  1.0959 -1.8816
   28MOL   H40712341   3.599   2.081   7.470 -0.3370  1.5432  0.7024
   28MOL   H40812342   3.645   2.037   7.171  1.5379  1.6464 -0.4033
   28MOL   H40912343   3.601   1.919   7.287 -0.9214  0.1500 -0.1590
   28MOL   H41012344   3.852   1.902   7.249  0.8274 -0.9497  1.1538
   28MOL   H41112345   3.805   1.924   7.414 -2.1653  1.5778  1.0499
   28MOL   H41212346   3.913   2.157   7.239 -2.8823 -2.0178 -1.5329
   28MOL   H41312347   3.983   2.084   7.376  0.7137 -0.0802 -1.5555
   28MOL   H41412348   3.793   2.190   7.519 -2.2089 -1.8560 -1.6490
   28MOL   H41512349   3.860   2.317   7.416 -0.9970  1.1331 -0.0244
   28MOL   H41612350   3.616   2.322   7.411  0.5041 -0.0128 -0.0472
   28MOL   H41712351   3.679   2.279   7.255 -0.3398 -1.2235 -0.0321
   28MOL   H41812352   3.487   2.274   7.174  0.4763 -0.2759  1.6198
   28MOL   H41912353   3.442   2.107   7.129 -2.2033 -1.8474  0.1881
   28MOL   C42012354   3.287   2.269   7.172 -0.0485 -0.6709  0.2065
   28MOL   C42112355   3.234   2.243   7.030  0.5881 -0.6916 -1.4041
   28MOL   C42212356   3.317   2.303   6.918  0.5328  0.2451  0.9437
   28MOL   C42312357   3.250   2.258   6.791  0.3844  1.5557  0.6614
   28MOL   C42412358   3.098   2.304   6.779  0.3403 -0.0369  0.2602
   28MOL   C42512359   3.022   2.239   6.891  0.1588  0.6795  0.4823
   28MOL   C42612360   3.084   2.280   7.023  0.8188  0.0159 -0.2466
   28MOL   C42712361   3.304   2.418   7.205 -0.2612 -0.4338  0.1070
   28MOL   H42812362   3.220   2.218   7.242  0.2539 -0.3259  0.7502
   28MOL   H42912363   3.245   2.135   7.023  1.0327 -0.6271 -1.7243
   28MOL   H43012364   3.327   2.411   6.928  2.2370  0.5534 -3.3255
   28MOL   H43112365   3.421   2.270   6.920  0.4724  0.0623  1.2644
   28MOL   H43212366   3.313   2.286   6.707 -1.8646 -0.4965 -1.8336
   28MOL   H43312367   3.249   2.149   6.793 -1.0687  1.5748  1.5716
   28MOL   H43412368   3.052   2.294   6.681  2.1525 -1.8933 -0.4616
   28MOL   H43512369   3.088   2.411   6.793  0.9373 -0.0889  1.1128
   28MOL   H43612370   3.015   2.132   6.872 -0.0879  0.6656  0.6416
   28MOL   H43712371   2.920   2.274   6.909  0.1481 -0.3197  2.4623
   28MOL   H43812372   3.061   2.385   7.041  2.9144  0.7416 -1.6465
   28MOL   H43912373   3.022   2.223   7.092 -1.3996  2.4660 -0.1248
   28MOL   H44012374   3.336   2.454   7.303 -1.1561 -0.0689  0.2697
   28MOL   H44112375   3.356   2.487   7.139 -1.9862  0.3713 -0.4476
   28MOL   H44212376   3.207   2.469   7.200 -0.4008 -0.6112  0.9962
   29MOL     C112377   4.281   1.636   4.487 -0.1324  0.3702 -0.5326
   29MOL     C212378   4.344   1.642   4.625 -0.5329 -0.5889 -0.3790
   29MOL     C312379   4.371   1.501   4.678  0.0556  1.2407 -0.0422
   29MOL     C412380   4.249   1.429   4.736 -0.7714 -0.0567 -0.1444
   29MOL     C512381   4.177   1.513   4.842  0.0325 -0.4056  0.5697
   29MOL     C612382   4.150   1.661   4.806  1.1381  0.4806  0.5193
   29MOL     C712383   4.263   1.726   4.733 -0.0952  0.5267  0.3327
   29MOL     C812384   4.372   1.595   4.369 -0.8781  0.0260 -0.2309
   29MOL     H912385   4.193   1.573   4.493  2.1553 -2.8909  0.2769
   29MOL    H1012386   4.439   1.694   4.617  1.1947 -2.9149  3.2762
   29MOL    H1112387   4.419   1.429   4.611 -0.0822 -0.3122  1.4705
   29MOL    H1212388   4.429   1.510   4.770 -0.4111 -0.8536  0.4824
   29MOL    H1312389   4.282   1.338   4.786  4.7123  0.5609 -2.2678
   29MOL    H1412390   4.185   1.399   4.653  0.3692  0.6187 -1.2909
   29MOL    H1512391   4.217   1.518   4.943 -1.2722 -2.6331  1.2232
   29MOL    H1612392   4.075   1.476   4.841  0.3430 -1.2580 -0.3424
   29MOL    H1712393   4.062   1.660   4.742  1.3480  0.3705  0.2345
   29MOL    H1812394   4.121   1.706   4.901  2.2503  1.6341  0.3214
   29MOL    H1912395   4.333   1.762   4.809 -1.1018  1.1375  0.9793
   29MOL    H2012396   4.224   1.814   4.682 -0.4919  0.0799 -0.1360
   29MOL    H2112397   4.418   1.498   4.388 -0.4344  0.1857 -0.4939
   29MOL    H2212398   4.456   1.663   4.358  0.0129 -1.2060 -1.2148
   29MOL    H2312399   4.256   1.741   4.470  0.9112  0.7044 -0.0649
   29MOL    C2412400   4.290   1.572   4.237  0.3914 -0.4357 -0.2928
   29MOL    C2512401   4.201   1.694   4.208 -0.4043  0.1525  0.5563
   29MOL    C2612402   4.082   1.670   4.110  0.1119  0.0013 -0.3108
   29MOL    C2712403   3.991   1.796   4.100 -0.6610  0.2844  0.4169
   29MOL    C2812404   4.061   1.924   4.060 -0.4788 -0.6732  0.2869
   29MOL    C2912405   4.186   1.944   4.148  0.4867 -0.2366 -0.4414
   29MOL    C3012406   4.274   1.818   4.160  0.6633 -0.1712  0.1500
   29MOL    C3112407   4.371   1.531   4.118 -0.3012  0.2892 -0.1810
   29MOL    H3212408   4.223   1.489   4.260  1.3892 -1.5954 -1.5033
   29MOL    H3312409   4.145   1.706   4.301 -1.6736  2.5643 -0.4725
   29MOL    H3412410   4.029   1.583   4.148 -0.1219  1.7065  3.4647
   29MOL    H3512411   4.127   1.655   4.012  0.6140  2.6836 -0.5495
   29MOL    H3612412   3.903   1.765   4.043 -0.7495  1.0102  0.1531
   29MOL    H3712413   3.957   1.809   4.203  4.2014 -0.9449  2.2883
   29MOL    H3812414   3.999   2.013   4.058 -1.1760 -1.1705 -3.5642
   29MOL    H3912415   4.098   1.920   3.958 -0.6409  1.2143  0.1417
   29MOL    H4012416   4.256   2.020   4.113  0.7020 -0.8536 -1.3871
   29MOL    H4112417   4.148   1.971   4.246  0.8825  0.4881 -0.4839
   29MOL    H4212418   4.323   1.809   4.063 -2.6885  0.4820 -1.6939
   29MOL    H4312419   4.352   1.832   4.234  0.1082 -0.0843  0.7233
   29MOL    H4412420   4.441   1.612   4.100  0.6110 -0.4415  0.0674
   29MOL    H4512421   4.309   1.528   4.028 -0.9425  3.5148  0.1038
   29MOL    C4612422   4.434   1.391   4.127 -0.5346 -0.0934 -0.2564
   29MOL    C4712423   4.567   1.374   4.049 -0.2193  0.1041 -0.2046
   29MOL    C4812424   4.681   1.468   4.108 -0.2220 -0.0114 -0.4403
   29MOL    C4912425   4.810   1.437   4.028 -0.6204 -0.2002 -1.0016
   29MOL    C5012426   4.791   1.470   3.881  0.0614 -0.0706  0.0109
   29MOL    C5112427   4.681   1.387   3.817 -0.2702  0.6244 -0.4904
   29MOL    C5212428   4.547   1.402   3.898  0.1398  0.4288 -0.4000
   29MOL    C5312429   4.335   1.283   4.103  0.5304  0.3599 -0.1572
   29MOL    H5412430   4.465   1.379   4.230  3.1679  1.1563 -1.1353
   29MOL    H5512431   4.595   1.270   4.058  0.1942  0.1987 -0.4056
   29MOL    H5612432   4.659   1.572   4.085  1.1326  0.7045  1.3646
   29MOL    H5712433   4.685   1.461   4.216 -2.5506  2.2414 -0.1543
   29MOL    H5812434   4.845   1.334   4.033  0.8819  0.4152  3.0233
   29MOL    H5912435   4.890   1.496   4.074 -0.1627 -1.1344 -0.6042
   29MOL    H6012436   4.772   1.577   3.884  0.5535 -0.0083  1.0644
   29MOL    H6112437   4.880   1.449   3.822 -1.6206 -4.0741 -1.3405
   29MOL    H6212438   4.713   1.283   3.826 -0.2369  0.5298 -1.5730
   29MOL    H6312439   4.665   1.417   3.713  0.9191  0.6081 -0.6918
   29MOL    H6412440   4.514   1.505   3.882  0.5453  0.7756  0.8900
   29MOL    H6512441   4.466   1.339   3.862  1.7706 -1.9314 -0.0644
   29MOL    H6612442   4.329   1.250   3.999  0.6119 -0.3367  0.0559
   29MOL    H6712443   4.234   1.305   4.137  0.2813 -2.0371  0.7902
   29MOL    C6812444   4.383   1.144   4.170 -0.1516  0.6588  0.1144
   29MOL    C6912445   4.257   1.102   4.260  0.5217  0.4388  0.1059
   29MOL    C7012446   4.250   0.951   4.299  0.1868  0.7187 -0.2722
   29MOL    C7112447   4.121   0.913   4.374 -0.2841 -0.2320 -0.2296
   29MOL    C7212448   4.103   1.004   4.493 -0.3625  0.1659  1.0527
   29MOL    C7312449   4.122   1.155   4.466  0.1297 -0.6027  0.2076
   29MOL    C7412450   4.260   1.184   4.395 -0.2373  0.3450  0.5907
   29MOL    C7512451   4.424   1.037   4.058  0.6630 -0.1780  0.4373
   29MOL    H7612452   4.462   1.146   4.245  0.1485 -1.8438 -0.1031
   29MOL    H7712453   4.170   1.128   4.200  0.1698  1.3147  0.9711
   29MOL    H7812454   4.337   0.918   4.356 -2.0255 -1.9081  1.6628
   29MOL    H7912455   4.250   0.893   4.207  2.3357  0.0561  0.1089
   29MOL    H8012456   4.035   0.922   4.308  0.0528 -0.8558 -0.7604
   29MOL    H8112457   4.128   0.806   4.394  0.3008  0.1391  1.6693
   29MOL    H8212458   4.166   0.975   4.577 -0.9232  0.1810  1.4830
   29MOL    H8312459   4.001   0.995   4.531 -1.6379  2.6424 -1.5983
   29MOL    H8412460   4.108   1.217   4.554 -2.4509 -0.9648  0.0989
   29MOL    H8512461   4.040   1.175   4.397  1.6878 -2.5031 -2.2977
   29MOL    H8612462   4.342   1.149   4.457  0.0125  1.4135  0.8757
   29MOL    H8712463   4.280   1.290   4.382  1.6105 -0.1108 -0.4070
   29MOL    H8812464   4.342   1.016   3.989 -0.2856  0.9940  1.1860
   29MOL    H8912465   4.484   1.101   3.993 -1.8482  0.4288 -1.3647
   29MOL    C9012466   4.520   0.916   4.096  0.4894  0.0139 -0.1215
   29MOL    C9112467   4.531   0.806   3.979  0.1447 -0.6258 -0.3062
   29MOL    C9212468   4.402   0.741   3.943 -0.2302 -0.1900 -0.0395
   29MOL    C9312469   4.435   0.625   3.849  0.3168  0.2747 -0.5260
   29MOL    C9412470   4.492   0.676   3.723 -0.7485  0.1746 -0.0465
   29MOL    C9512471   4.623   0.758   3.742  0.6607  0.0770 -0.9698
   29MOL    C9612472   4.602   0.859   3.856 -0.1643 -0.0519  0.4568
   29MOL    C9712473   4.661   0.969   4.143  0.1781 -0.9899 -0.5430
   29MOL    H9812474   4.463   0.858   4.169 -2.2804  0.7295 -1.6399
   29MOL    H9912475   4.586   0.723   4.022 -0.5964 -1.2097 -0.4740
   29MOL   H10012476   4.331   0.809   3.895 -0.5495  0.9654  1.9828
   29MOL   H10112477   4.351   0.699   4.029  0.9003  0.6524  1.0609
   29MOL   H10212478   4.343   0.573   3.824 -1.2742  2.4856  0.5703
   29MOL   H10312479   4.504   0.557   3.900 -0.0621  1.4105  1.5747
   29MOL   H10412480   4.418   0.731   3.665 -0.3837 -0.4883 -1.1394
   29MOL   H10512481   4.517   0.594   3.656  1.1001 -1.2706  2.3235
   29MOL   H10612482   4.706   0.688   3.757 -0.1444 -0.2226  2.6534
   29MOL   H10712483   4.650   0.807   3.649  1.3348 -1.4217 -1.5765
   29MOL   H10812484   4.695   0.913   3.873 -0.6937  1.3729 -1.0003
   29MOL   H10912485   4.542   0.940   3.814  0.2899  0.8103  1.4698
   29MOL   H11012486   4.720   1.018   4.065 -0.0252 -1.2634 -0.8684
   29MOL   H11112487   4.632   1.044   4.217  2.0367  0.5386 -1.3099
   29MOL   C11212488   4.771   0.885   4.207  0.2476 -0.0227  0.7281
   29MOL   C11312489   4.710   0.774   4.304 -0.0432  0.6759  0.3833
   29MOL   C11412490   4.649   0.838   4.432 -0.8212 -0.1372  0.7763
   29MOL   C11512491   4.575   0.730   4.511  0.5897  0.4866  0.6002
   29MOL   C11612492   4.660   0.607   4.551 -0.6108 -0.2251 -0.3164
   29MOL   C11712493   4.746   0.562   4.426 -0.1776 -0.1113  0.0248
   29MOL   C11812494   4.811   0.667   4.343  0.2250 -0.3527 -0.3230
   29MOL   C11912495   4.880   0.972   4.275  0.2852 -0.0751  0.1934
   29MOL   H12012496   4.806   0.823   4.124  1.1316  0.9485  0.3675
   29MOL   H12112497   4.644   0.707   4.249 -2.0731  2.2304  0.8880
   29MOL   H12212498   4.578   0.921   4.433  0.8089  1.3561 -1.6796
   29MOL   H12312499   4.728   0.872   4.499 -0.2068  0.9190 -0.4555
   29MOL   H12412500   4.543   0.777   4.604 -1.7824 -1.1644  0.6714
   29MOL   H12512501   4.487   0.704   4.453 -0.1297  1.4909  1.2272
   29MOL   H12612502   4.728   0.639   4.630 -0.9564 -0.0265 -0.0961
   29MOL   H12712503   4.605   0.519   4.585 -2.3167  1.1486  0.6166
   29MOL   H12812504   4.818   0.488   4.461  0.4114  0.6160  0.3632
   29MOL   H12912505   4.680   0.501   4.364  2.4130 -2.6427 -0.3477
   29MOL   H13012506   4.848   0.624   4.250 -0.4526 -1.0377 -0.2781
   29MOL   H13112507   4.880   0.718   4.410 -1.9004  3.0569 -0.5482
   29MOL   H13212508   4.948   0.905   4.328 -1.3059 -0.2291  2.1032
   29MOL   H13312509   4.839   1.028   4.359 -0.7364  0.3249 -0.5613
   29MOL   C13412510   4.956   1.072   4.197  0.0468 -0.2459  0.9540
   29MOL   C13512511   5.028   1.006   4.080  0.3454 -0.3281  0.3188
   29MOL   C13612512   5.154   0.923   4.128 -0.2173 -0.1233  0.3023
   29MOL   C13712513   5.244   0.875   4.007  0.4215 -0.6825  0.1680
   29MOL   C13812514   5.282   1.002   3.919 -0.2938  0.0812  0.5562
   29MOL   C13912515   5.151   1.065   3.865 -0.8211  0.4517 -0.6168
   29MOL   C14012516   5.064   1.112   3.980  0.7571 -0.8102 -0.4948
   29MOL   C14112517   5.047   1.145   4.302 -0.1893  0.3008  0.3724
   29MOL   H14212518   4.893   1.152   4.158  0.8551  0.4008  0.9595
   29MOL   H14312519   4.954   0.952   4.020 -1.0171  0.9579  0.8119
   29MOL   H14412520   5.217   0.995   4.181  0.7810 -0.5618 -0.2850
   29MOL   H14512521   5.142   0.837   4.194 -0.9063 -0.6988 -0.5674
   29MOL   H14612522   5.193   0.801   3.945  0.7542 -2.2825  1.7448
   29MOL   H14712523   5.331   0.818   4.039 -0.2073 -0.9333  1.4499
   29MOL   H14812524   5.337   1.075   3.978 -2.2950  3.1799 -1.2505
   29MOL   H14912525   5.347   0.965   3.839 -1.9292 -0.6650 -0.4663
   29MOL   H15012526   5.105   0.996   3.794 -1.4762  1.3881 -1.1165
   29MOL   H15112527   5.187   1.153   3.811 -0.0020  0.6748  0.2868
   29MOL   H15212528   5.110   1.194   4.035 -1.6003  0.1987  0.0663
   29MOL   H15312529   4.981   1.163   3.931 -0.8359 -1.3843  1.5546
   29MOL   H15412530   5.128   1.194   4.248  0.7278 -3.2123 -1.5689
   29MOL   H15512531   5.095   1.074   4.369  0.1343 -0.4203 -0.6211
   29MOL   C15612532   4.982   1.248   4.404 -0.2534 -0.1299  0.4176
   29MOL   C15712533   4.990   1.393   4.351 -0.0777 -0.4303  0.2582
   29MOL   C15812534   4.886   1.487   4.410  0.3861  0.0959  0.2683
   29MOL   C15912535   4.880   1.627   4.357  0.1156  0.4557  0.1959
   29MOL   C16012536   5.016   1.691   4.360 -0.3558 -0.5312 -0.0034
   29MOL   C16112537   5.121   1.604   4.303 -0.0720  0.7920 -0.1682
   29MOL   C16212538   5.126   1.462   4.364 -0.0123  0.4351 -0.1993
   29MOL   C16312539   5.036   1.231   4.550 -0.2851 -0.1394 -0.1298
   29MOL   H16412540   4.875   1.224   4.406 -0.5671  1.0935 -1.0424
   29MOL   H16512541   4.962   1.386   4.246 -0.5121  1.7155  0.1974
   29MOL   H16612542   4.788   1.446   4.432  0.0987  1.0679  0.8441
   29MOL   H16712543   4.905   1.510   4.515  1.0500  1.9383 -0.2396
   29MOL   H16812544   4.842   1.626   4.255  0.9280  0.6452 -0.1121
   29MOL   H16912545   4.805   1.686   4.410 -1.8886 -1.4599 -0.4243
   29MOL   H17012546   5.048   1.708   4.463  0.9206  0.6243 -0.5556
   29MOL   H17112547   5.016   1.788   4.310  0.1402 -1.3163 -1.5768
   29MOL   H17212548   5.216   1.652   4.323  1.0942 -1.6602  0.3811
   29MOL   H17312549   5.113   1.590   4.195 -2.8984 -0.9388  0.1970
   29MOL   H17412550   5.206   1.396   4.329 -0.0680 -0.1078  0.6713
   29MOL   H17512551   5.148   1.492   4.466 -0.2810  1.4694 -0.4417
   29MOL   H17612552   5.004   1.322   4.602 -0.4078 -0.1135 -0.2489
   29MOL   H17712553   5.144   1.236   4.563 -0.6300  0.0934  2.8091
   29MOL   C17812554   4.971   1.111   4.631  0.4438 -0.6095  0.2393
   29MOL   C17912555   5.050   0.976   4.628  0.3857 -0.8109  0.3072
   29MOL   C18012556   4.978   0.855   4.684 -0.2959 -0.0054 -0.4466
   29MOL   C18112557   5.048   0.727   4.649  0.0605 -0.3291  1.2070
   29MOL   C18212558   5.183   0.727   4.706 -0.2087  0.0096 -1.2653
   29MOL   C18312559   5.259   0.845   4.644  0.1342 -0.0426 -0.2592
   29MOL   C18412560   5.197   0.978   4.688 -0.1938 -0.6235  0.0622
   29MOL   C18512561   4.950   1.166   4.778 -0.0793  0.1240  0.0265
   29MOL   H18612562   4.873   1.100   4.585  0.6274  0.8691 -0.5534
   29MOL   H18712563   5.055   0.955   4.522  1.0020 -2.0222  0.5566
   29MOL   H18812564   4.970   0.868   4.792  0.0680 -1.4195 -0.2386
   29MOL   H18912565   4.872   0.861   4.662 -0.5199 -2.2461 -0.0613
   29MOL   H19012566   5.059   0.703   4.543 -0.4823  0.2794  1.0087
   29MOL   H19112567   4.995   0.639   4.686  0.0873 -1.2164 -0.8079
   29MOL   H19212568   5.177   0.727   4.814 -0.6614  1.3420 -1.2727
   29MOL   H19312569   5.232   0.634   4.677 -1.0595 -1.0023  0.4772
   29MOL   H19412570   5.269   0.837   4.536 -0.4368  1.1206 -0.4073
   29MOL   H19512571   5.360   0.831   4.683 -0.2642 -2.0203  0.1214
   29MOL   H19612572   5.212   0.997   4.794  0.4144  0.2213 -0.1711
   29MOL   H19712573   5.247   1.064   4.644  0.0524 -0.3412  0.8887
   29MOL   H19812574   4.971   1.090   4.853 -0.3935  1.3283  1.3451
   29MOL   H19912575   5.039   1.224   4.806 -0.2780  0.8147 -0.7481
   29MOL   C20012576   4.815   1.237   4.797  0.5222 -0.0264  0.0903
   29MOL   C20112577   4.704   1.138   4.790  0.0722 -0.4768  0.8112
   29MOL   C20212578   4.672   1.055   4.918  0.4577  0.5876 -0.4179
   29MOL   C20312579   4.558   0.956   4.883  0.1998  0.0483 -0.1050
   29MOL   C20412580   4.437   1.025   4.827  0.1073 -0.5998 -0.3616
   29MOL   C20512581   4.458   1.110   4.702  0.2733 -0.6120  0.0143
   29MOL   C20612582   4.579   1.207   4.728  0.4467 -0.2900  0.3317
   29MOL   C20712583   4.808   1.325   4.929 -0.1671 -0.1414 -0.3110
   29MOL   H20812584   4.825   1.307   4.713  1.3461  0.0056  0.2096
   29MOL   H20912585   4.725   1.056   4.721  0.1973 -1.2853  1.7978
   29MOL   H21012586   4.638   1.113   5.004  2.8404  2.8172 -0.8784
   29MOL   H21112587   4.762   1.001   4.947 -0.4827 -0.9480 -0.3332
   29MOL   H21212588   4.599   0.894   4.803  0.6856 -0.1781  0.3164
   29MOL   H21312589   4.533   0.891   4.967  2.4739  1.1439  1.4733
   29MOL   H21412590   4.355   0.959   4.799 -2.3380  1.8657  0.7379
   29MOL   H21512591   4.405   1.101   4.899 -0.2371  0.4629 -1.6193
   29MOL   H21612592   4.481   1.044   4.619 -1.4506  0.1279 -1.0872
   29MOL   H21712593   4.360   1.151   4.675  0.3319 -0.8249 -0.5127
   29MOL   H21812594   4.601   1.253   4.632 -0.6225 -0.6505 -0.0952
   29MOL   H21912595   4.543   1.291   4.786 -1.1265 -3.1032  3.6087
   29MOL   H22012596   4.706   1.353   4.955 -0.6970 -1.2597 -1.1254
   29MOL   H22112597   4.834   1.264   5.016  1.8213  0.2316 -0.6113
   29MOL   C22212598   4.900   1.452   4.934  0.5328  0.1076  0.0039
   29MOL   C22312599   4.842   1.566   4.842 -0.0216 -0.4732 -0.6530
   29MOL   C22412600   4.947   1.679   4.819  0.1674 -0.2294 -0.1602
   29MOL   C22512601   4.890   1.802   4.750 -0.2370  0.1819 -0.9111
   29MOL   C22612602   4.766   1.861   4.820 -0.3197  0.2101  0.3217
   29MOL   C22712603   4.657   1.745   4.829  0.6917  0.7218  0.1219
   29MOL   C22812604   4.710   1.625   4.912 -0.2298 -0.4878  0.3934
   29MOL   C22912605   4.917   1.498   5.081  0.0257 -0.3483  0.0990
   29MOL   H23012606   5.001   1.424   4.904  0.0071 -1.5567 -0.2472
   29MOL   H23112607   4.806   1.535   4.743 -2.4520  0.5602 -0.1299
   29MOL   H23212608   4.983   1.712   4.917  1.9297  0.2960 -0.9692
   29MOL   H23312609   5.024   1.630   4.761 -0.0619 -0.7213 -0.0562
   29MOL   H23412610   4.866   1.774   4.647 -1.6997 -0.9865 -0.2696
   29MOL   H23512611   4.973   1.872   4.752  0.0657 -0.1997  0.2833
   29MOL   H23612612   4.797   1.892   4.921 -0.3139 -1.0163  0.7006
   29MOL   H23712613   4.726   1.954   4.780  1.3766  0.5374 -0.6922
   29MOL   H23812614   4.640   1.716   4.725 -3.2063 -2.0951  1.4481
   29MOL   H23912615   4.560   1.768   4.873 -0.9048 -0.4209 -2.6782
   29MOL   H24012616   4.740   1.665   5.008 -0.5594  3.6181 -1.1067
   29MOL   H24112617   4.632   1.551   4.924  1.1939 -2.0018  0.4540
   29MOL   H24212618   4.836   1.457   5.140 -0.6048 -2.2924 -2.0644
   29MOL   H24312619   4.903   1.605   5.098 -0.3604 -0.3799 -0.0155
   29MOL   C24412620   5.059   1.458   5.148 -0.1775  0.6592 -0.0628
   29MOL   C24512621   5.090   1.302   5.141 -0.4547 -0.4076 -0.2358
   29MOL   C24612622   5.001   1.206   5.232  0.5108  0.6168 -0.0024
   29MOL   C24712623   5.031   1.058   5.205 -0.6978  0.6704 -0.1621
   29MOL   C24812624   5.177   1.028   5.230  0.0412  0.5111  0.4173
   29MOL   C24912625   5.270   1.125   5.154 -0.5187 -0.1325 -0.9568
   29MOL   C25012626   5.234   1.270   5.179 -0.2430  0.2910 -0.2099
   29MOL   C25112627   5.074   1.520   5.291  0.6182 -0.4203  0.1157
   29MOL   H25212628   5.139   1.500   5.086  1.4211  0.4789  1.8119
   29MOL   H25312629   5.074   1.276   5.037  0.8014  1.4943 -0.9344
   29MOL   H25412630   4.899   1.240   5.222 -0.6609 -1.6912  3.1378
   29MOL   H25512631   5.028   1.223   5.336  0.0871 -0.1983  0.2488
   29MOL   H25612632   4.966   0.993   5.263 -0.7662  1.5615  0.7721
   29MOL   H25712633   5.005   1.035   5.102 -0.3460  1.6020 -0.4640
   29MOL   H25812634   5.171   1.037   5.338 -0.0550  0.6455  0.4018
   29MOL   H25912635   5.202   0.923   5.211 -1.4439 -0.1643  2.0910
   29MOL   H26012636   5.281   1.106   5.047 -1.8128 -0.0859 -1.1082
   29MOL   H26112637   5.367   1.104   5.198 -1.1554 -0.1134  0.4640
   29MOL   H26212638   5.257   1.308   5.278  4.1510 -2.3874 -0.0478
   29MOL   H26312639   5.303   1.324   5.114  0.4173  1.7091  1.6582
   29MOL   H26412640   5.137   1.459   5.355  0.1759 -0.4459  0.5312
   29MOL   H26512641   4.975   1.507   5.336 -0.2902  2.5502 -0.8844
   29MOL   C26612642   5.113   1.664   5.293  0.0429  0.3607 -0.6817
   29MOL   C26712643   5.008   1.748   5.355  0.1215 -0.6016  0.6190
   29MOL   C26812644   5.012   1.901   5.319  0.1197  0.0162 -0.0431
   29MOL   C26912645   4.892   1.986   5.374  0.5371 -0.1030  0.4452
   29MOL   C27012646   4.890   1.967   5.520  0.4018 -0.1792 -1.1246
   29MOL   C27112647   4.873   1.823   5.562 -0.2742  0.8070 -0.1196
   29MOL   C27212648   4.989   1.733   5.508 -0.2583 -0.6515  0.2411
   29MOL   C27312649   5.251   1.689   5.354  0.5958  0.4194 -0.1865
   29MOL   H27412650   5.126   1.692   5.189  1.6854  0.7786 -0.3688
   29MOL   H27512651   4.911   1.722   5.313 -0.2846  1.2873  0.3202
   29MOL   H27612652   5.096   1.950   5.369 -0.8075  0.5908  0.9585
   29MOL   H27712653   5.026   1.916   5.212 -1.5034 -0.7162 -0.3620
   29MOL   H27812654   4.803   1.963   5.315  1.1813  0.1491 -0.6579
   29MOL   H27912655   4.916   2.091   5.356  0.5934 -0.4046 -1.3445
   29MOL   H28012656   4.984   2.006   5.558  1.5454 -3.9865  0.2263
   29MOL   H28112657   4.804   2.022   5.559  1.4039  0.8669 -0.3800
   29MOL   H28212658   4.774   1.793   5.528 -0.3588 -0.3881  1.1240
   29MOL   H28312659   4.872   1.814   5.670 -1.1193 -2.6848 -0.3464
   29MOL   H28412660   4.980   1.634   5.553  0.1726 -2.4615 -3.4591
   29MOL   H28512661   5.084   1.780   5.537 -0.7079  1.8369 -2.0767
   29MOL   H28612662   5.234   1.654   5.456 -1.0634  0.7060 -0.3557
   29MOL   H28712663   5.262   1.796   5.371 -0.8813  0.2805  1.7859
   29MOL   C28812664   5.373   1.626   5.284  0.3151 -0.3331 -0.4520
   29MOL   C28912665   5.495   1.619   5.375 -0.4588  0.0652 -0.2107
   29MOL   C29012666   5.544   1.754   5.438 -0.5169  0.1043  0.3184
   29MOL   C29112667   5.676   1.730   5.516  0.1295 -0.6101 -0.0098
   29MOL   C29212668   5.671   1.631   5.631  0.1472 -0.3565  0.4453
   29MOL   C29312669   5.622   1.497   5.572 -0.1716  0.3170 -0.0573
   29MOL   C29412670   5.486   1.516   5.499 -0.0551  0.7230 -0.5685
   29MOL   C29512671   5.404   1.709   5.157 -0.2897 -0.1036  0.0748
   29MOL   H29612672   5.354   1.526   5.245 -1.2440 -0.3032  0.2232
   29MOL   H29712673   5.564   1.574   5.305 -0.1325  0.6338 -0.2573
   29MOL   H29812674   5.554   1.830   5.360 -1.9481  0.3347  0.3424
   29MOL   H29912675   5.467   1.793   5.505 -1.5481  1.1017 -1.4061
   29MOL   H30012676   5.756   1.706   5.446  0.2883 -0.9773  0.2935
   29MOL   H30112677   5.697   1.828   5.559  0.5145 -0.4307 -0.5994
   29MOL   H30212678   5.598   1.662   5.706  0.1626 -5.0958  2.5821
   29MOL   H30312679   5.770   1.615   5.673  0.0231  0.0311  0.8826
   29MOL   H30412680   5.612   1.419   5.647 -0.4573  1.7790  1.4451
   29MOL   H30512681   5.700   1.463   5.504  0.2966 -0.4676  0.8555
   29MOL   H30612682   5.415   1.545   5.575 -0.7521  1.4019 -1.4686
   29MOL   H30712683   5.438   1.421   5.474 -2.2920  1.6576  0.1422
   29MOL   H30812684   5.309   1.713   5.104 -0.3277  1.0463  0.2108
   29MOL   H30912685   5.430   1.809   5.190  0.8477 -0.8358  1.4396
   29MOL   C31012686   5.512   1.667   5.055  0.2651 -0.2824 -0.4930
   29MOL   C31112687   5.469   1.540   4.982  0.6210 -0.5503 -0.6041
   29MOL   C31212688   5.355   1.556   4.872 -0.2941 -0.2035  0.3407
   29MOL   C31312689   5.303   1.410   4.823  0.1960 -0.5922 -0.2860
   29MOL   C31412690   5.425   1.337   4.762 -0.9955  0.2563  0.1034
   29MOL   C31512691   5.537   1.329   4.861  0.2772 -0.4842 -0.3227
   29MOL   C31612692   5.582   1.472   4.911  0.0353  0.3515 -0.4051
   29MOL   C31712693   5.566   1.782   4.959  0.6768  0.1598 -0.1443
   29MOL   H31812694   5.603   1.634   5.106  1.9215  0.6455 -2.7360
   29MOL   H31912695   5.425   1.475   5.057 -0.8567  0.5110 -0.5237
   29MOL   H32012696   5.269   1.605   4.918 -0.1661 -0.1004  0.4727
   29MOL   H32112697   5.385   1.623   4.791  1.2134 -1.2023  0.0401
   29MOL   H32212698   5.225   1.403   4.746  2.1829 -2.7966 -2.2149
   29MOL   H32312699   5.258   1.353   4.905 -0.2683 -1.0225 -0.8318
   29MOL   H32412700   5.395   1.236   4.736 -2.4029  0.1022  2.1949
   29MOL   H32512701   5.454   1.389   4.671  2.1492  2.8121  2.4175
   29MOL   H32612702   5.517   1.264   4.946 -0.4088  1.3770  0.9947
   29MOL   H32712703   5.631   1.297   4.816  0.9266 -0.7601  1.1928
   29MOL   H32812704   5.611   1.527   4.822 -0.4180  1.7295  0.2745
   29MOL   H32912705   5.672   1.469   4.973  0.5311 -1.2819 -1.1697
   29MOL   H33012706   5.485   1.835   4.908  1.0081 -0.6777 -1.5896
   29MOL   H33112707   5.612   1.743   4.868 -0.8983  1.5382 -1.5704
   29MOL   C33212708   5.666   1.880   5.024  0.6542 -0.3869  0.5940
   29MOL   C33312709   5.662   2.019   4.942  0.9111  0.1658  0.0297
   29MOL   C33412710   5.535   2.106   4.943 -0.8706 -0.2857  0.6238
   29MOL   C33512711   5.555   2.232   4.857  0.8494 -0.1057 -0.2875
   29MOL   C33612712   5.589   2.198   4.714 -0.1766  0.1469  0.2223
   29MOL   C33712713   5.723   2.116   4.706  0.1460  0.1313 -0.4906
   29MOL   C33812714   5.708   1.996   4.791 -0.0458  0.1393 -0.1071
   29MOL   C33912715   5.801   1.805   5.035 -0.0439  1.1890 -0.1885
   29MOL   H34012716   5.625   1.902   5.122 -2.4328  2.4297 -1.2065
   29MOL   H34112717   5.729   2.084   4.998 -0.7079  1.2616  0.7567
   29MOL   H34212718   5.450   2.047   4.906 -1.5086  1.1012 -0.1866
   29MOL   H34312719   5.497   2.135   5.041 -2.6995 -1.2878  0.2442
   29MOL   H34412720   5.465   2.293   4.867  1.0312  0.1743 -0.3613
   29MOL   H34512721   5.636   2.291   4.899 -0.1639 -0.0153  1.6025
   29MOL   H34612722   5.511   2.145   4.660  1.6487  0.6605 -3.0262
   29MOL   H34712723   5.613   2.289   4.658  0.1848  1.2104  2.0612
   29MOL   H34812724   5.811   2.171   4.739  0.2129 -0.2834  0.0172
   29MOL   H34912725   5.746   2.088   4.603 -1.1033  1.3367 -1.1147
   29MOL   H35012726   5.795   1.931   4.793  0.1121  0.3404 -0.4104
   29MOL   H35112727   5.635   1.934   4.739 -0.6251 -0.3137  1.2084
   29MOL   H35212728   5.814   1.751   4.941 -0.5708  1.0428 -0.1773
   29MOL   H35312729   5.793   1.720   5.103  2.6763 -0.4425 -1.8150
   29MOL   C35412730   5.924   1.896   5.072 -0.2190 -0.2233 -0.8449
   29MOL   C35512731   6.059   1.822   5.034  0.2721 -0.2312  0.1649
   29MOL   C35612732   6.088   1.831   4.880 -0.0725  0.1310  0.1320
   29MOL   C35712733   6.226   1.785   4.849 -0.0487  0.2948  0.3213
   29MOL   C35812734   6.240   1.638   4.895 -0.8789  0.1895  0.2627
   29MOL   C35912735   6.201   1.611   5.048  0.3971  0.2057 -0.5032
   29MOL   C36012736   6.066   1.677   5.078 -0.1525  0.4501  0.0780
   29MOL   C36112737   5.902   1.931   5.224  0.2844  0.3944  1.0378
   29MOL   H36212738   5.923   1.975   4.998  0.7404 -0.5335 -1.1983
   29MOL   H36312739   6.142   1.876   5.078  2.0952 -0.2953 -3.0343
   29MOL   H36412740   6.061   1.929   4.841 -0.3035  0.3044  0.7224
   29MOL   H36512741   6.020   1.772   4.818 -0.0636 -0.2144  0.4486
   29MOL   H36612742   6.255   1.790   4.744  0.4990  0.8574  0.4885
   29MOL   H36712743   6.301   1.846   4.900  2.5377 -1.2050 -1.5146
   29MOL   H36812744   6.190   1.578   4.820 -0.3111 -0.3240  0.2844
   29MOL   H36912745   6.347   1.618   4.890 -0.3943  2.5987  0.2556
   29MOL   H37012746   6.196   1.503   5.057  0.3762  0.3200  0.9950
   29MOL   H37112747   6.278   1.648   5.116  0.3524 -0.0642 -0.3070
   29MOL   H37212748   6.042   1.663   5.184  0.7437  0.4830  0.2905
   29MOL   H37312749   5.995   1.623   5.016 -0.2278  0.5119  0.1113
   29MOL   H37412750   5.929   1.842   5.281  5.4343  1.8156  1.0589
   29MOL   H37512751   5.796   1.955   5.239  0.1107  0.2805  0.0214
   29MOL   C37612752   5.999   2.049   5.256  0.0531 -0.2998 -0.1386
   29MOL   C37712753   5.999   2.178   5.171  0.0224 -0.3250 -0.1876
   29MOL   C37812754   6.116   2.284   5.189  0.7610 -0.3165  0.0110
   29MOL   C37912755   6.086   2.407   5.108 -0.5810  0.7045 -0.0716
   29MOL   C38012756   5.948   2.462   5.122 -0.5584 -1.2031  0.4623
   29MOL   C38112757   5.842   2.360   5.099 -0.0602 -0.1345 -0.0005
   29MOL   C38212758   5.859   2.244   5.197 -0.7135  0.5017  0.3005
   29MOL   C38312759   5.991   2.067   5.412 -0.1970 -0.1092  0.0501
   29MOL   H38412760   6.103   2.019   5.245  0.5462  1.3783 -0.0354
   29MOL   H38512761   5.996   2.152   5.065  0.1097  0.5175 -0.4001
   29MOL   H38612762   6.100   2.320   5.291  2.3525  1.6289 -0.3713
   29MOL   H38712763   6.214   2.236   5.180  0.1076 -1.9856  1.7082
   29MOL   H38812764   6.098   2.382   5.002 -0.3729 -2.7080  0.6930
   29MOL   H38912765   6.162   2.480   5.137 -0.7452  0.9669 -0.2987
   29MOL   H39012766   5.942   2.512   5.218 -0.3184  0.4894 -0.3809
   29MOL   H39112767   5.944   2.534   5.040 -0.8882 -2.1830 -0.3909
   29MOL   H39212768   5.746   2.407   5.120  0.8165  1.6770  0.0781
   29MOL   H39312769   5.846   2.330   4.994  2.3678  0.2976 -0.0560
   29MOL   H39412770   5.848   2.288   5.297 -1.9043  1.1784 -0.1226
   29MOL   H39512771   5.781   2.170   5.181 -0.6522  0.6442 -0.6333
   29MOL   H39612772   5.960   1.974   5.460 -0.8566  1.0355  1.9104
   29MOL   H39712773   5.908   2.137   5.423  0.5050  0.6327  0.7196
   29MOL   C39812774   6.117   2.120   5.495  0.4106  0.0113 -0.2644
   29MOL   C39912775   6.070   2.212   5.621 -0.0387 -0.2859  0.4521
   29MOL   C40012776   6.014   2.351   5.574  0.2137  0.4072  0.2319
   29MOL   C40112777   5.963   2.431   5.689 -0.0787  0.0648 -0.0364
   29MOL   C40212778   5.856   2.358   5.774 -0.5412 -0.0049  0.0167
   29MOL   C40312779   5.917   2.222   5.821  0.1775  0.4645 -0.9424
   29MOL   C40412780   5.960   2.135   5.700 -0.2191 -0.0564 -0.4174
   29MOL   C40512781   6.212   2.010   5.554 -0.3852 -0.0213 -0.1935
   29MOL   H40612782   6.182   2.184   5.435  0.1187 -0.6791 -1.3179
   29MOL   H40712783   6.156   2.230   5.685  0.4233 -0.7481 -0.0320
   29MOL   H40812784   5.945   2.329   5.493  0.4452 -1.6451  0.5572
   29MOL   H40912785   6.087   2.406   5.514  0.3365 -2.0476 -1.9668
   29MOL   H41012786   5.937   2.535   5.671  0.5447  0.3435  0.6337
   29MOL   H41112787   6.033   2.447   5.771 -1.8098 -0.3998  1.5823
   29MOL   H41212788   5.760   2.343   5.726  0.1348 -1.5394 -0.8865
   29MOL   H41312789   5.834   2.424   5.858  1.5169  1.1712 -0.3226
   29MOL   H41412790   5.992   2.240   5.897  0.6114 -0.3854 -1.1620
   29MOL   H41512791   5.836   2.172   5.875 -0.5285  0.0013 -2.3870
   29MOL   H41612792   5.989   2.033   5.727 -1.0863 -0.5009 -1.1498
   29MOL   H41712793   5.878   2.135   5.628  0.4987 -0.3974 -1.2515
   29MOL   H41812794   6.283   2.076   5.604 -2.3032  3.4952 -1.8694
   29MOL   H41912795   6.161   1.956   5.633  1.4739  0.5508  1.4426
   29MOL   C42012796   6.271   1.902   5.460 -0.3650 -1.0426 -0.3541
   29MOL   C42112797   6.349   1.795   5.537  0.7047  0.5209 -0.4874
   29MOL   C42212798   6.256   1.705   5.617 -0.2996  0.5576  0.4769
   29MOL   C42312799   6.334   1.603   5.696 -0.3544  0.2648 -0.4709
   29MOL   C42412800   6.452   1.662   5.779  0.0608 -0.2111  0.2847
   29MOL   C42512801   6.541   1.741   5.690 -0.0432  0.3208 -0.0319
   29MOL   C42612802   6.466   1.854   5.618  0.8472 -0.0011  0.1184
   29MOL   C42712803   6.363   1.973   5.354 -0.3617  0.0421  0.1699
   29MOL   H42812804   6.201   1.856   5.390 -2.2413  0.4925  0.4898
   29MOL   H42912805   6.395   1.715   5.479 -1.7360  0.3032 -2.2336
   29MOL   H43012806   6.209   1.772   5.689 -0.1283  1.1579  0.0332
   29MOL   H43112807   6.186   1.664   5.545 -0.3311 -2.4049  2.1304
   29MOL   H43212808   6.274   1.565   5.779 -0.4762  1.4143 -0.0120
   29MOL   H43312809   6.374   1.530   5.627 -1.0945  0.2730 -0.9065
   29MOL   H43412810   6.509   1.580   5.823  1.2213  0.3269 -0.1858
   29MOL   H43512811   6.422   1.731   5.858  1.5090 -1.1293  1.6934
   29MOL   H43612812   6.595   1.674   5.623 -0.0156  0.9074 -0.5929
   29MOL   H43712813   6.613   1.782   5.760  0.7173  1.3334 -1.3922
   29MOL   H43812814   6.429   1.929   5.688  0.5417  0.8869 -0.9694
   29MOL   H43912815   6.534   1.902   5.547  0.8459  0.7871  0.6488
   29MOL   H44012816   6.304   2.047   5.300  0.9720  1.2416  0.3149
   29MOL   H44112817   6.448   2.029   5.392 -1.4955  1.2868  0.8806
   29MOL   H44212818   6.410   1.904   5.283 -0.4517  0.9803 -0.8045
   30MOL     C112819   0.011   4.028   4.287 -0.3651  0.2921 -0.5217
   30MOL     C212820   0.045   4.180   4.283 -0.2168  0.0113 -0.0785
   30MOL     C312821   0.183   4.214   4.350  0.6556  0.8973  0.2383
   30MOL     C412822   0.218   4.360   4.335  0.1477 -0.4337  0.5512
   30MOL     C512823   0.103   4.445   4.397 -0.0667 -0.3029 -0.9705
   30MOL     C612824   7.743   4.416   4.330 -1.0362 -0.7548  0.3617
   30MOL     C712825   7.703   4.267   4.338 -0.2016  0.1781  0.4055
   30MOL     C812826   7.668   3.986   4.194  0.0794 -0.4776 -0.1951
   30MOL     H912827   0.100   3.977   4.252 -0.6057  0.6373 -1.6739
   30MOL    H1012828   0.064   4.204   4.179  0.0362  1.9665  0.4056
   30MOL    H1112829   0.188   4.192   4.457 -0.1720  2.9453  0.7343
   30MOL    H1212830   0.256   4.158   4.292 -0.8278  0.4693 -1.2512
   30MOL    H1312831   0.247   4.393   4.235 -1.0452 -0.9400  0.0363
   30MOL    H1412832   0.308   4.380   4.393 -0.6422  2.2847  0.9231
   30MOL    H1512833   0.140   4.547   4.399  2.6399 -1.2697  0.9550
   30MOL    H1612834   0.104   4.413   4.501 -0.5611 -0.5403 -1.0373
   30MOL    H1712835   7.665   4.475   4.380 -2.4979 -2.1908 -0.1905
   30MOL    H1812836   7.757   4.438   4.224 -3.4200 -2.2623 -0.3003
   30MOL    H1912837   7.610   4.254   4.282 -1.2023  0.6763  1.8795
   30MOL    H2012838   7.683   4.252   4.444  0.1180  0.1895  0.4654
   30MOL    H2112839   7.710   3.991   4.093  0.5320  1.3709  0.0580
   30MOL    H2212840   7.582   4.053   4.193  1.8008  1.7942 -1.6982
   30MOL    H2312841   7.762   3.999   4.389  0.8971  0.7484 -0.1186
   30MOL    C2412842   7.623   3.838   4.224 -0.4259  0.1762  0.1635
   30MOL    C2512843   7.540   3.822   4.353  0.5425  0.0235  0.2084
   30MOL    C2612844   7.492   3.680   4.388 -0.6307 -0.6709  0.1502
   30MOL    C2712845   7.421   3.678   4.523  0.2998  0.1459 -0.0403
   30MOL    C2812846   7.299   3.761   4.517  0.1779  0.8532 -0.2097
   30MOL    C2912847   7.326   3.906   4.475 -0.1201 -0.0456 -0.0449
   30MOL    C3012848   7.412   3.917   4.348 -0.7652 -0.1472 -0.1127
   30MOL    C3112849   7.566   3.770   4.095 -0.1361  0.8563 -0.1545
   30MOL    H3212850   7.716   3.790   4.252 -0.3121  0.0219 -0.4835
   30MOL    H3312851   7.591   3.868   4.438  0.6187  1.4378 -0.5875
   30MOL    H3412852   7.578   3.613   4.390  1.0765  1.4320 -1.1480
   30MOL    H3512853   7.420   3.659   4.309  0.4298 -2.7580 -0.3107
   30MOL    H3612854   7.395   3.579   4.560  0.8941  0.7087  1.9366
   30MOL    H3712855   7.480   3.720   4.604 -0.5101  0.3528  0.4542
   30MOL    H3812856   7.261   3.763   4.619 -2.6478 -2.1383 -1.1290
   30MOL    H3912857   7.223   3.728   4.447 -1.3467  4.7320 -0.4924
   30MOL    H4012858   7.235   3.964   4.459  0.0110 -0.4593 -2.5046
   30MOL    H4112859   7.372   3.950   4.564 -0.5060  2.2478 -0.9435
   30MOL    H4212860   7.351   3.910   4.259 -0.0696 -1.3660 -0.5099
   30MOL    H4312861   7.444   4.021   4.339 -0.4303 -0.3403 -1.3274
   30MOL    H4412862   7.475   3.823   4.066 -0.6763 -0.7910 -1.5296
   30MOL    H4512863   7.531   3.674   4.134 -1.9398  1.8447  0.7400
   30MOL    C4612864   7.658   3.736   3.981 -0.0630 -0.5127 -0.1330
   30MOL    C4712865   7.599   3.737   3.837 -0.3529 -0.0957 -0.2074
   30MOL    C4812866   7.533   3.869   3.793 -0.1619 -0.2516 -0.2114
   30MOL    C4912867   7.477   3.865   3.649  0.3964 -0.1578 -0.5705
   30MOL    C5012868   7.373   3.751   3.627 -0.0776  0.5236 -0.6033
   30MOL    C5112869   7.442   3.615   3.671  0.8172  0.2384  0.4913
   30MOL    C5212870   7.490   3.627   3.812  0.0808 -0.2435 -0.4520
   30MOL    C5312871   7.744   3.614   4.014 -0.5800  0.1508 -0.4276
   30MOL    H5412872   7.729   3.819   3.988 -0.5105 -0.3011  2.6237
   30MOL    H5512873   7.686   3.739   3.772  1.5862 -1.1199  2.2446
   30MOL    H5612874   7.452   3.887   3.864  0.3395 -1.4937  0.6983
   30MOL    H5712875   7.614   3.941   3.801  0.9558 -1.6227  1.0481
   30MOL    H5812876   7.561   3.857   3.580 -0.3703  0.4425 -1.5906
   30MOL    H5912877   7.432   3.962   3.625 -0.7167  0.1038  2.2850
   30MOL    H6012878   7.276   3.767   3.675 -0.8546  1.3559 -2.3866
   30MOL    H6112879   7.347   3.746   3.521 -0.7896  0.2365 -0.4154
   30MOL    H6212880   7.523   3.589   3.604 -0.0624  2.3524 -1.4495
   30MOL    H6312881   7.369   3.537   3.646  0.4195  0.0631  2.1282
   30MOL    H6412882   7.401   3.628   3.875 -0.3560 -0.9352 -1.0592
   30MOL    H6512883   7.534   3.530   3.836  0.7032  0.2845  0.5792
   30MOL    H6612884   7.676   3.532   4.035 -0.1378  0.0437  0.6451
   30MOL    H6712885   0.018   3.636   4.111 -0.9678 -0.2387 -0.1535
   30MOL    C6812886   0.093   3.568   3.933 -0.1983  0.0683  0.4222
   30MOL    C6912887   0.216   3.527   4.015  0.1293  0.1594 -0.5555
   30MOL    C7012888   0.288   3.645   4.085 -0.4762 -0.4841 -0.1570
   30MOL    C7112889   0.422   3.602   4.149  0.5418 -0.4929 -0.1529
   30MOL    C7212890   0.388   3.491   4.258 -0.1370  0.2363  0.0754
   30MOL    C7312891   0.323   3.370   4.192  0.5475  0.6295  1.0812
   30MOL    C7412892   0.192   3.413   4.118 -0.6351 -0.1662  0.1693
   30MOL    C7512893   0.052   3.452   3.833 -0.6446 -0.1146 -0.8797
   30MOL    H7612894   0.128   3.655   3.877  1.0715  0.1078  1.2430
   30MOL    H7712895   0.290   3.498   3.941  0.1562 -1.2363  0.0134
   30MOL    H7812896   0.233   3.685   4.171  1.6718 -0.4542  1.2488
   30MOL    H7912897   0.315   3.726   4.017  0.7784 -2.4647 -2.0675
   30MOL    H8012898   0.492   3.558   4.077 -0.1164 -2.4873  0.4057
   30MOL    H8112899   0.469   3.689   4.196  0.4346 -1.0660  1.0388
   30MOL    H8212900   0.322   3.536   4.332  1.3402  0.7744  1.0898
   30MOL    H8312901   0.480   3.464   4.310 -0.1565  0.8249  0.4123
   30MOL    H8412902   0.299   3.284   4.254 -3.0028 -0.0671 -1.0835
   30MOL    H8512903   0.391   3.335   4.114  0.8739  2.8485  0.3381
   30MOL    H8612904   0.125   3.453   4.194 -2.0305 -0.9207 -0.6480
   30MOL    H8712905   0.144   3.326   4.074 -1.1711  0.1762  0.0611
   30MOL    H8812906   0.009   3.368   3.886  1.5737 -1.0640 -0.5177
   30MOL    H8912907   7.741   3.500   3.782  0.2858  2.2491 -0.2788
   30MOL    C9012908   0.153   3.418   3.717  0.0178 -0.1037  0.2790
   30MOL    C9112909   0.136   3.270   3.662  0.0607  0.3271  0.2676
   30MOL    C9212910   0.153   3.155   3.764 -0.0034 -0.1264 -0.2563
   30MOL    C9312911   0.138   3.013   3.690 -0.5334 -0.3570 -0.1542
   30MOL    C9412912   0.004   3.007   3.615 -0.6295 -0.1672  0.2463
   30MOL    C9512913   7.763   3.122   3.512 -0.8239 -0.0256  0.0625
   30MOL    C9612914   7.770   3.253   3.583  0.0438 -0.1756 -0.6895
   30MOL    C9712915   0.162   3.535   3.610  0.1344 -0.0130 -0.5292
   30MOL    H9812916   0.254   3.420   3.760 -0.8630 -0.8197  2.4525
   30MOL    H9912917   0.213   3.259   3.586 -0.1200 -0.2374  0.1646
   30MOL   H10012918   0.077   3.162   3.841  1.9069 -0.1499  1.7037
   30MOL   H10112919   0.240   3.170   3.829  0.3871  2.0165 -1.2257
   30MOL   H10212920   0.146   2.933   3.763  0.0273  0.3840  0.6211
   30MOL   H10312921   0.224   3.002   3.623 -0.6593  0.7570 -0.5173
   30MOL   H10412922   7.696   2.991   3.686 -2.5337  4.2390 -0.7374
   30MOL   H10512923   7.759   2.925   3.545  1.0466 -1.1503  0.9637
   30MOL   H10612924   0.081   3.115   3.451 -0.8262  0.5843 -0.0071
   30MOL   H10712925   7.674   3.108   3.450 -1.0765  1.5750  0.0477
   30MOL   H10812926   7.753   3.331   3.509  0.5535  0.1751 -0.4355
   30MOL   H10912927   7.692   3.271   3.658  1.6840  3.1193  0.2864
   30MOL   H11012928   0.078   3.537   3.540 -0.0269  2.5310 -0.2993
   30MOL   H11112929   0.171   3.629   3.664  0.4683  0.6797 -1.7549
   30MOL   C11212930   0.284   3.535   3.511  0.3845 -0.1517 -0.1774
   30MOL   C11312931   0.424   3.530   3.581 -0.6311 -0.2988 -1.1398
   30MOL   C11412932   0.444   3.646   3.681 -0.0238 -0.1605 -0.0085
   30MOL   C11512933   0.583   3.648   3.750  0.1215 -0.0199  1.0008
   30MOL   C11612934   0.693   3.616   3.651  0.2502 -0.4794 -0.1975
   30MOL   C11712935   0.666   3.481   3.582  0.0510  0.8884  0.0776
   30MOL   C11812936   0.545   3.494   3.494  0.0500  0.3844 -0.0134
   30MOL   C11912937   0.274   3.653   3.410 -0.2469  0.1640  0.2737
   30MOL   H12012938   0.271   3.444   3.452 -1.2642 -1.2035  1.7512
   30MOL   H12112939   0.429   3.445   3.649 -0.1700 -0.1647 -1.0080
   30MOL   H12212940   0.375   3.646   3.766  0.1737  1.4547  0.1580
   30MOL   H12312941   0.431   3.745   3.638  1.9127  0.4728  0.8070
   30MOL   H12412942   0.598   3.739   3.807 -2.1953  0.4840  0.8585
   30MOL   H12512943   0.582   3.568   3.824 -1.0805  1.5086  2.6704
   30MOL   H12612944   0.713   3.686   3.570  0.2408  0.7078  0.8031
   30MOL   H12712945   0.779   3.626   3.717  0.7357 -0.6092 -0.8114
   30MOL   H12812946   0.746   3.459   3.511 -0.7866  0.1103 -0.6348
   30MOL   H12912947   0.646   3.395   3.646 -0.8866  1.4934  0.6107
   30MOL   H13012948   0.513   3.401   3.446  1.3092 -1.4559  2.5845
   30MOL   H13112949   0.565   3.570   3.418 -1.0521  0.3157 -0.3775
   30MOL   H13212950   0.359   3.718   3.429 -0.0966 -0.0134  0.1991
   30MOL   H13312951   0.181   3.711   3.418  0.3417  1.2320 -0.5268
   30MOL   C13412952   0.283   3.609   3.268 -0.2387 -0.4738 -0.4721
   30MOL   C13512953   0.347   3.712   3.170  0.2282  0.3053 -0.1306
   30MOL   C13612954   0.488   3.741   3.197  0.4620 -0.5351  0.6586
   30MOL   C13712955   0.550   3.830   3.089  0.6524  0.5225  0.0673
   30MOL   C13812956   0.475   3.961   3.053  0.0827 -0.6499 -0.2460
   30MOL   C13912957   0.320   3.926   3.042  0.1394 -0.9523  0.1285
   30MOL   C14012958   0.264   3.847   3.162 -0.4030 -0.0726  0.3292
   30MOL   C14112959   0.157   3.546   3.220 -0.4905 -0.0889  0.5176
   30MOL   H14212960   0.359   3.531   3.267 -0.2257 -0.4793  0.4139
   30MOL   H14312961   0.348   3.659   3.075  1.5307 -1.0293  0.6032
   30MOL   H14412962   0.478   3.807   3.284  1.3039  1.5409 -0.7772
   30MOL   H14512963   0.547   3.653   3.222  2.0866  0.4608  0.4271
   30MOL   H14612964   0.573   3.769   3.001 -0.4754 -0.5921  0.5237
   30MOL   H14712965   0.644   3.868   3.129  0.7461  1.2037 -0.7849
   30MOL   H14812966   0.499   4.040   3.123 -2.7815 -1.0457  1.2442
   30MOL   H14912967   0.519   3.991   2.958 -0.4727 -0.9548 -0.6073
   30MOL   H15012968   0.291   3.877   2.949  0.5816  0.9381 -1.0383
   30MOL   H15112969   0.273   4.024   3.030 -0.4213 -1.0355  1.5404
   30MOL   H15212970   0.273   3.906   3.253 -1.4242  1.1472 -0.3608
   30MOL   H15312971   0.155   3.838   3.161 -0.1556 -4.0133  0.0503
   30MOL   H15412972   0.082   3.626   3.223  0.1417  0.5846 -1.2922
   30MOL   H15512973   0.126   3.472   3.294 -0.2458  0.1180  0.8283
   30MOL   C15612974   0.145   3.476   3.082  0.2845  0.2367  0.1891
   30MOL   C15712975   0.017   3.388   3.062 -0.4404  0.1975 -0.1791
   30MOL   C15812976   0.001   3.264   3.155  0.0095  0.5451  0.6650
   30MOL   C15912977   7.638   3.198   3.128  0.8018 -0.5013 -0.1400
   30MOL   C16012978   7.516   3.292   3.143  0.0120 -0.0218 -0.5414
   30MOL   C16112979   7.529   3.401   3.033  0.3271 -0.1879  0.3240
   30MOL   C16212980   7.662   3.474   3.056 -0.8906 -0.0892  0.1387
   30MOL   C16312981   0.271   3.385   3.053 -0.2822 -0.1457  0.0595
   30MOL   H16412982   0.144   3.552   3.004 -0.9998 -1.4194 -1.4283
   30MOL   H16512983   0.021   3.351   2.959  1.4140  0.0892 -0.0766
   30MOL   H16612984   0.081   3.191   3.148 -1.4320 -1.1426  1.2837
   30MOL   H16712985   7.764   3.293   3.260 -0.4013  2.2351  0.1830
   30MOL   H16812986   7.642   3.144   3.034  0.9956  0.6429 -0.7934
   30MOL   H16912987   7.618   3.131   3.211 -2.2594 -1.5674 -1.6596
   30MOL   H17012988   7.519   3.337   3.242  0.6597  1.3190 -1.1554
   30MOL   H17112989   7.425   3.231   3.141 -0.8945  1.2838 -0.1008
   30MOL   H17212990   7.446   3.471   3.035  3.1635  3.2647  1.4106
   30MOL   H17312991   7.532   3.356   2.934 -1.5714 -1.4978  0.8328
   30MOL   H17412992   7.680   3.556   2.986 -1.5532  0.4929  0.6430
   30MOL   H17512993   7.654   3.531   3.149 -0.8977  0.4212 -0.1722
   30MOL   H17612994   0.266   3.299   3.120  0.2185  0.2725  0.6319
   30MOL   H17712995   0.361   3.438   3.080  0.9743 -1.6527 -1.0581
   30MOL   C17812996   0.291   3.352   2.899 -0.5624  0.4411  0.1531
   30MOL   C17912997   0.325   3.476   2.805 -0.4755 -0.3227 -0.4560
   30MOL   C18012998   0.295   3.437   2.663 -0.4227  0.0573 -0.4814
   30MOL   C18112999   0.330   3.558   2.567 -0.4266 -0.1662 -0.5262
   30MOL   C18213000   0.476   3.617   2.595  0.1626  0.1138 -0.1377
   30MOL   C18313001   0.473   3.667   2.747 -0.0269 -0.7153  0.7718
   30MOL   C18413002   0.456   3.545   2.836  0.5877  0.3454  0.1868
   30MOL   C18513003   0.393   3.245   2.883 -0.3417 -1.2912 -0.0142
   30MOL   H18613004   0.194   3.306   2.878  0.0272 -0.9513  0.4431
   30MOL   H18713005   0.252   3.550   2.836 -1.4364 -0.2463 -2.8167
   30MOL   H18813006   0.353   3.348   2.638 -2.2458 -2.1501  2.7805
   30MOL   H18913007   0.191   3.413   2.638 -0.9288  2.5071 -0.8967
   30MOL   H19013008   0.257   3.638   2.580 -0.6998 -0.3315 -1.0200
   30MOL   H19113009   0.317   3.529   2.463  1.4814 -3.3288  0.0558
   30MOL   H19213010   0.549   3.538   2.579 -0.0051 -0.3005  1.0320
   30MOL   H19313011   0.492   3.699   2.525 -1.3974  1.4362  1.0151
   30MOL   H19413012   0.395   3.743   2.756  0.7900  0.1066  0.9718
   30MOL   H19513013   0.571   3.713   2.759 -0.0736  0.4281 -2.6195
   30MOL   H19613014   0.537   3.473   2.825 -1.2089 -1.6942  0.0762
   30MOL   H19713015   0.469   3.575   2.940  1.2713  1.6548 -0.2614
   30MOL   H19813016   0.446   3.251   2.788 -0.9598 -0.3025 -0.2992
   30MOL   H19913017   0.472   3.276   2.951 -0.0206  0.1789 -1.0143
   30MOL   C20013018   0.359   3.094   2.901  0.2515 -0.4947 -0.3476
   30MOL   C20113019   0.262   3.042   2.792 -0.0075  0.1590  0.4517
   30MOL   C20213020   0.319   3.035   2.648 -1.0860 -0.3164  0.2657
   30MOL   C20313021   0.215   2.994   2.542 -0.0237 -0.1118  0.7855
   30MOL   C20413022   0.162   2.852   2.574 -0.7654  0.9040  0.0588
   30MOL   C20513023   0.093   2.865   2.711  0.1279 -0.0793  0.4496
   30MOL   C20613024   0.191   2.909   2.816  0.8780 -0.2279 -0.1976
   30MOL   C20713025   0.477   3.001   2.896 -0.1114  0.2024  0.4389
   30MOL   H20813026   0.305   3.090   2.995  3.0314  3.2448  1.5269
   30MOL   H20913027   0.179   3.114   2.795 -0.1579  0.1417 -2.0237
   30MOL   H21013028   0.397   2.958   2.648 -1.8787 -1.1318  0.3062
   30MOL   H21113029   0.373   3.125   2.620  0.9399 -1.9532 -1.2466
   30MOL   H21213030   0.134   3.065   2.524  0.2398  0.1207  0.5320
   30MOL   H21313031   0.258   2.989   2.443 -0.0217 -0.2027  0.7905
   30MOL   H21413032   0.091   2.818   2.498  0.8658 -3.2591  0.3114
   30MOL   H21513033   0.236   2.773   2.581 -1.6601  0.0831  0.4832
   30MOL   H21613034   0.017   2.943   2.703  2.2374  1.9485 -0.4649
   30MOL   H21713035   0.045   2.772   2.740 -0.6227  0.0298 -0.4441
   30MOL   H21813036   0.144   2.904   2.915  0.9677 -0.4305 -0.1643
   30MOL   H21913037   0.264   2.829   2.827  1.8721  0.5111 -1.3557
   30MOL   H22013038   0.463   2.895   2.873 -0.1863 -0.0315  1.5148
   30MOL   H22113039   0.527   3.039   2.807  0.4054 -1.6569 -0.0947
   30MOL   C22213040   0.571   3.010   3.021  0.1606 -0.0165  0.3252
   30MOL   C22313041   0.519   2.955   3.155 -0.0780  0.3151  0.2493
   30MOL   C22413042   0.428   2.831   3.127 -0.5150 -0.1601  0.0356
   30MOL   C22513043   0.355   2.778   3.250 -0.1920  0.8395  0.6317
   30MOL   C22613044   0.291   2.882   3.335 -0.3557  0.0500  0.2290
   30MOL   C22713045   0.407   2.982   3.379  0.2008  0.5568  0.4232
   30MOL   C22813046   0.467   3.057   3.259  0.6957  0.7588 -0.2222
   30MOL   C22913047   0.714   2.942   2.987 -0.3163  0.8084  0.1487
   30MOL   H23013048   0.598   3.114   3.038  1.5956 -0.0176 -1.8142
   30MOL   H23113049   0.605   2.911   3.206  0.4937  0.3032 -0.7068
   30MOL   H23213050   0.345   2.872   3.068 -0.2954 -0.4435 -0.4763
   30MOL   H23313051   0.468   2.752   3.063  1.6195 -0.1092  1.2861
   30MOL   H23413052   0.431   2.731   3.312 -0.7686  1.3630  1.7329
   30MOL   H23513053   0.295   2.693   3.215 -0.4659  1.5841 -0.7226
   30MOL   H23613054   0.218   2.935   3.273 -0.6950  2.5110  2.6183
   30MOL   H23713055   0.253   2.840   3.429 -0.8566 -1.5625 -0.6832
   30MOL   H23813056   0.473   2.918   3.437  1.0471  0.6676 -0.4098
   30MOL   H23913057   0.381   3.059   3.452  0.7066  0.4808  0.6872
   30MOL   H24013058   0.387   3.120   3.219  0.3332  1.9993  2.3432
   30MOL   H24113059   0.539   3.132   3.291  0.3132  1.2562 -0.5277
   30MOL   H24213060   0.686   2.842   2.953 -0.7867  0.9824  0.0168
   30MOL   H24313061   0.778   2.924   3.074 -1.6585 -1.9405  0.6501
   30MOL   C24413062   0.796   3.031   2.889  0.4145  0.8277  0.1849
   30MOL   C24513063   0.882   2.942   2.798 -0.0311 -0.8585 -0.3632
   30MOL   C24613064   0.798   2.860   2.697 -0.0354  0.0576 -0.4117
   30MOL   C24713065   0.882   2.781   2.601  0.3395 -0.1175  0.4518
   30MOL   C24813066   0.997   2.706   2.667  0.6866  0.4281 -0.2540
   30MOL   C24913067   1.085   2.798   2.754 -0.2603  0.5527 -0.6190
   30MOL   C25013068   0.996   2.863   2.870  0.4607  0.0371 -0.1308
   30MOL   C25113069   0.874   3.149   2.961  0.4211  0.3787  0.8161
   30MOL   H25213070   0.724   3.084   2.828  1.5093 -0.6006 -2.4410
   30MOL   H25313071   0.928   3.013   2.730  1.3112 -1.1045  0.2720
   30MOL   H25413072   0.745   2.930   2.631 -2.8677 -1.9560 -0.3864
   30MOL   H25513073   0.728   2.788   2.740  1.9090 -0.3017  2.2609
   30MOL   H25613074   0.833   2.708   2.536 -0.1698 -0.7859  1.5827
   30MOL   H25713075   0.921   2.843   2.520 -0.7395  2.8336  2.1104
   30MOL   H25813076   0.955   2.631   2.734 -1.7514  0.2385 -1.9314
   30MOL   H25913077   1.058   2.665   2.585  0.4132  1.7433 -1.1353
   30MOL   H26013078   1.135   2.870   2.689 -1.0799 -0.5270 -2.4880
   30MOL   H26113079   1.159   2.735   2.802 -0.2298  0.6666 -0.5155
   30MOL   H26213080   0.967   2.787   2.942 -1.1443  1.1304  0.4200
   30MOL   H26313081   1.051   2.930   2.936 -0.3929  0.9536 -0.3303
   30MOL   H26413082   0.979   3.126   2.945  0.0378 -1.1657  0.5114
   30MOL   H26513083   0.845   3.134   3.065  0.1190 -2.1479  0.3851
   30MOL   C26613084   0.830   3.292   2.931 -0.7975  0.3396 -0.1323
   30MOL   C26713085   0.881   3.388   3.048 -1.2328 -0.4036 -0.2179
   30MOL   C26813086   0.809   3.525   3.049 -0.3828 -0.1346  0.1938
   30MOL   C26913087   0.822   3.607   3.178  0.1146 -0.0719 -0.4157
   30MOL   C27013088   0.970   3.629   3.214  0.4183  0.0147 -0.2217
   30MOL   C27113089   1.055   3.504   3.212  0.3555 -0.3369 -0.1136
   30MOL   C27213090   1.031   3.410   3.085 -0.2579 -0.0068 -0.8238
   30MOL   C27313091   0.842   3.344   2.792 -0.6042  0.4711  0.6171
   30MOL   H27413092   0.724   3.286   2.954 -1.0665 -1.1634 -1.5791
   30MOL   H27513093   0.854   3.343   3.143 -0.4758 -1.7645 -0.6287
   30MOL   H27613094   0.838   3.587   2.964 -0.3209 -0.3432  0.0634
   30MOL   H27713095   0.702   3.511   3.037 -0.4168 -1.6059  2.1129
   30MOL   H27813096   0.778   3.549   3.259 -1.9542 -0.5683 -1.8589
   30MOL   H27913097   0.769   3.700   3.160  0.1976 -0.3272 -2.1465
   30MOL   H28013098   1.004   3.693   3.132  1.1069 -0.0193  0.0332
   30MOL   H28113099   0.980   3.677   3.311  0.6160  0.9916 -0.7088
   30MOL   H28213100   1.025   3.439   3.294  1.9157 -0.4558  0.3770
   30MOL   H28313101   1.163   3.521   3.222  0.2948  0.4474 -0.7718
   30MOL   H28413102   1.080   3.312   3.091 -0.1715 -0.1351 -3.0655
   30MOL   H28513103   1.086   3.464   3.008  1.1895  1.8922  1.4842
   30MOL   H28613104   0.774   3.429   2.787 -0.4956  0.7096  2.7899
   30MOL   H28713105   0.792   3.269   2.730 -0.7708  1.4760 -0.4729
   30MOL   C28813106   0.974   3.377   2.730  0.1671  0.3304  0.3834
   30MOL   C28913107   0.965   3.487   2.616  0.2435 -0.4668 -1.0081
   30MOL   C29013108   0.865   3.454   2.502 -0.2508 -0.3233 -0.2441
   30MOL   C29113109   0.861   3.565   2.393 -0.2323  0.3359 -0.0845
   30MOL   C29213110   0.834   3.707   2.444  0.6610  0.0304  0.0583
   30MOL   C29313111   0.922   3.740   2.563 -0.9074 -0.3952 -0.1852
   30MOL   C29413112   0.934   3.627   2.667 -0.3113  0.1808  0.4578
   30MOL   C29513113   1.043   3.248   2.680 -0.5841 -0.0509  0.3876
   30MOL   H29613114   1.041   3.416   2.807  2.9273 -1.8654 -0.8073
   30MOL   H29713115   1.061   3.506   2.568  0.2847 -1.5176 -1.3629
   30MOL   H29813116   0.888   3.353   2.467 -0.1405  0.2275 -1.7990
   30MOL   H29913117   0.766   3.455   2.547 -0.5391 -0.7512 -0.8434
   30MOL   H30013118   0.953   3.549   2.336  1.7371  0.0497  3.0862
   30MOL   H30113119   0.773   3.531   2.337 -0.5140  1.8090 -0.5576
   30MOL   H30213120   0.728   3.718   2.467  0.6871  0.2910  0.0463
   30MOL   H30313121   0.867   3.779   2.369  0.9311 -2.3347 -2.1717
   30MOL   H30413122   0.905   3.840   2.602  0.6457 -0.2966  0.2819
   30MOL   H30513123   1.022   3.758   2.522 -0.6097 -1.7827 -0.1219
   30MOL   H30613124   0.837   3.633   2.716  0.9995  0.7592  3.1054
   30MOL   H30713125   1.012   3.650   2.740  0.2463 -0.0973 -0.0472
   30MOL   H30813126   1.057   3.182   2.765 -1.2468  0.6476  1.0538
   30MOL   H30913127   0.979   3.198   2.608  1.3631 -2.3488  0.2218
   30MOL   C31013128   1.179   3.255   2.609 -0.7008  0.7322  0.9802
   30MOL   C31113129   1.295   3.309   2.699  0.5710  0.5280 -1.1081
   30MOL   C31213130   1.331   3.220   2.824  0.5042  0.2596  0.0072
   30MOL   C31313131   1.416   3.297   2.933 -0.7066  0.1978  0.0928
   30MOL   C31413132   1.547   3.337   2.865  0.9929 -0.5840  0.1749
   30MOL   C31513133   1.518   3.429   2.740  0.3857  0.5913  0.0435
   30MOL   C31613134   1.431   3.360   2.635 -0.2720 -0.5736  0.1422
   30MOL   C31713135   1.207   3.123   2.529  0.5575  0.4420  0.1736
   30MOL   H31813136   1.164   3.334   2.536 -0.9863 -0.2369 -0.0279
   30MOL   H31913137   1.249   3.397   2.744  0.9798 -0.4984  1.3713
   30MOL   H32013138   1.244   3.194   2.884  0.5802 -0.8624 -0.3587
   30MOL   H32113139   1.390   3.140   2.781 -3.7231 -0.7815 -4.3184
   30MOL   H32213140   1.430   3.247   3.029 -0.9354  0.1271  0.0886
   30MOL   H32313141   1.364   3.389   2.960  1.6126  1.8509 -0.8528
   30MOL   H32413142   1.601   3.404   2.931  3.2126 -3.1094  0.9994
   30MOL   H32513143   1.610   3.255   2.830  1.2651 -0.8156  1.1880
   30MOL   H32613144   1.464   3.519   2.769 -0.7272 -0.1885  0.4544
   30MOL   H32713145   1.616   3.459   2.704  2.3432 -1.4392  3.3512
   30MOL   H32813146   1.497   3.279   2.605  1.3445  0.2720  1.3548
   30MOL   H32913147   1.410   3.411   2.540  3.7210 -0.9409 -1.0340
   30MOL   H33013148   1.121   3.056   2.527  1.4163 -0.6739 -0.0151
   30MOL   H33113149   1.275   3.061   2.588  0.2169 -1.3037 -1.2153
   30MOL   C33213150   1.258   3.135   2.388  0.0315  0.5661 -0.7707
   30MOL   C33313151   1.150   3.187   2.292 -0.2658  0.2546  0.2932
   30MOL   C33413152   1.039   3.076   2.264 -0.0978 -0.1190 -0.2672
   30MOL   C33513153   0.919   3.142   2.190  0.4539  0.2315 -0.9340
   30MOL   C33613154   0.977   3.191   2.059  0.2921  0.9532 -0.1363
   30MOL   C33713155   1.089   3.289   2.072 -0.1014  0.2774 -0.4063
   30MOL   C33813156   1.205   3.247   2.162 -0.2247  0.2207  0.7132
   30MOL   C33913157   1.324   3.006   2.343  0.2169 -0.1100 -0.0965
   30MOL   H34013158   1.332   3.214   2.395  0.2255  0.1537  2.6647
   30MOL   H34113159   1.104   3.270   2.347 -1.2261  1.1065 -1.7699
   30MOL   H34213160   1.089   2.999   2.206  1.3869  1.1142 -0.6343
   30MOL   H34313161   1.010   3.041   2.363  0.5203  0.2190  0.0327
   30MOL   H34413162   0.848   3.061   2.176 -1.1888  1.6767 -1.0412
   30MOL   H34513163   0.878   3.228   2.243 -0.5712  0.3119 -1.8402
   30MOL   H34613164   1.005   3.111   1.991 -1.4810  1.1814 -1.1649
   30MOL   H34713165   0.893   3.227   1.999  0.3642 -1.1020 -1.5147
   30MOL   H34813166   1.060   3.384   2.116  1.6653  0.3138  0.7224
   30MOL   H34913167   1.127   3.321   1.975 -0.1698 -1.2519 -0.9498
   30MOL   H35013168   1.273   3.331   2.174 -0.9692  0.8986  0.2246
   30MOL   H35113169   1.264   3.173   2.108  0.6939  0.7650  0.9715
   30MOL   H35213170   1.349   3.012   2.237  3.4006  0.7244  0.6615
   30MOL   H35313171   1.260   2.918   2.350  0.8875 -0.5598  0.4500
   30MOL   C35413172   1.449   2.954   2.420 -0.3656 -0.4959  0.0557
   30MOL   C35513173   1.574   2.935   2.329  0.1636 -0.1756  0.0542
   30MOL   C35613174   1.631   3.066   2.270 -0.1845  0.5221 -0.1289
   30MOL   C35713175   1.748   3.045   2.180  0.0829 -0.6641 -0.7157
   30MOL   C35813176   1.724   2.946   2.071 -0.3571 -0.1149 -0.3920
   30MOL   C35913177   1.678   2.815   2.128  0.9200  0.0632 -0.2583
   30MOL   C36013178   1.558   2.829   2.215  0.2802  0.1382  0.3708
   30MOL   C36113179   1.422   2.827   2.505  0.4936  0.0801 -0.7146
   30MOL   H36213180   1.478   3.033   2.490 -1.4440 -0.5524  0.5781
   30MOL   H36313181   1.663   2.903   2.382  0.3121 -0.2134 -0.2157
   30MOL   H36413182   1.667   3.134   2.348  2.8129  1.1584 -2.0162
   30MOL   H36513183   1.550   3.119   2.221 -1.0890 -0.5738  0.1520
   30MOL   H36613184   1.793   3.133   2.135  0.8783 -1.0764 -0.7361
   30MOL   H36713185   1.833   3.005   2.236 -0.4182  0.7090  1.0748
   30MOL   H36813186   1.665   2.969   1.981  0.4750  1.5691 -0.5315
   30MOL   H36913187   1.822   2.942   2.024 -0.4293  0.9475 -0.6625
   30MOL   H37013188   1.670   2.732   2.058 -2.0338  0.4672 -0.4748
   30MOL   H37113189   1.751   2.771   2.196 -0.2021 -0.9286  0.3302
   30MOL   H37213190   1.534   2.734   2.263 -2.6472  0.0948 -1.0733
   30MOL   H37313191   1.473   2.855   2.152  1.5196  0.7345 -1.0603
   30MOL   H37413192   1.372   2.753   2.442  0.1211 -1.8934  1.8118
   30MOL   H37513193   1.350   2.848   2.584 -0.6933 -1.5307 -1.3533
   30MOL   C37613194   1.547   2.763   2.578  0.4537 -0.0683 -0.2472
   30MOL   C37713195   1.605   2.848   2.697 -0.0764 -0.0075  0.9417
   30MOL   C37813196   1.754   2.832   2.717  0.0312  0.0189 -0.7655
   30MOL   C37913197   1.806   2.944   2.808 -0.6664 -0.4703 -0.6653
   30MOL   C38013198   1.738   2.938   2.951  0.4408  0.2500  0.4490
   30MOL   C38113199   1.584   2.935   2.939 -0.2750 -0.1880 -0.5081
   30MOL   C38213200   1.529   2.843   2.829  0.2623 -0.5751 -0.1958
   30MOL   C38313201   1.522   2.619   2.627 -0.0956  0.1811 -0.9041
   30MOL   H38413202   1.612   2.743   2.493 -0.6429  0.6629 -1.2865
   30MOL   H38513203   1.588   2.954   2.677 -1.8491 -0.4801 -0.2060
   30MOL   H38613204   1.777   2.731   2.752 -0.3739 -0.0725 -0.7598
   30MOL   H38713205   1.809   2.842   2.624 -0.0729 -0.8377 -0.9270
   30MOL   H38813206   1.800   3.045   2.766  1.2654 -0.5051 -1.0573
   30MOL   H38913207   1.915   2.943   2.809 -0.6753 -0.9165 -0.3239
   30MOL   H39013208   1.784   2.860   3.012  0.3918 -0.0043  0.1663
   30MOL   H39113209   1.766   3.031   2.999 -1.6037  0.9047  0.4014
   30MOL   H39213210   1.545   2.895   3.033 -0.8711  0.1488 -0.6122
   30MOL   H39313211   1.536   3.032   2.928  0.2166 -0.1087 -2.0646
   30MOL   H39413212   1.537   2.739   2.863  1.8899  0.2576  2.0213
   30MOL   H39513213   1.423   2.857   2.806  0.3618  0.4380 -0.0378
   30MOL   H39613214   1.428   2.615   2.682  0.3842 -1.3069 -0.1901
   30MOL   H39713215   1.592   2.592   2.705 -2.5711 -1.4529  0.8039
   30MOL   C39813216   1.520   2.508   2.520  0.0683  0.1902  0.1470
   30MOL   C39913217   1.659   2.496   2.440 -0.1041  0.5369  0.7250
   30MOL   C40013218   1.767   2.445   2.537  0.0200 -0.1572 -0.4558
   30MOL   C40113219   1.902   2.441   2.469 -0.6942 -0.6011 -0.6651
   30MOL   C40213220   1.900   2.357   2.343  0.8281  0.3533  0.0717
   30MOL   C40313221   1.781   2.388   2.247 -0.0839  0.4504  0.4623
   30MOL   C40413222   1.645   2.400   2.318  0.0637  0.3883  0.0490
   30MOL   C40513223   1.469   2.380   2.584 -0.0994  0.4225  0.5247
   30MOL   H40613224   1.458   2.542   2.438  0.9392 -0.9336 -1.0053
   30MOL   H40713225   1.686   2.590   2.391  0.2387 -0.3676 -0.8494
   30MOL   H40813226   1.750   2.339   2.556 -0.1246  0.2577  1.9148
   30MOL   H40913227   1.768   2.499   2.632  3.2774  1.5465 -1.3820
   30MOL   H41013228   1.978   2.416   2.543 -0.9113  0.9684  0.0986
   30MOL   H41113229   1.926   2.546   2.454  0.7467 -0.6995  0.7766
   30MOL   H41213230   1.903   2.251   2.369  2.4034  0.1403 -0.9537
   30MOL   H41313231   1.988   2.365   2.279 -0.6695  1.2382 -1.9141
   30MOL   H41413232   1.805   2.483   2.199 -0.9724  0.8217  0.7549
   30MOL   H41513233   1.772   2.315   2.166  3.1573  0.2432  0.1834
   30MOL   H41613234   1.562   2.427   2.253 -0.5906 -0.0201  0.7126
   30MOL   H41713235   1.618   2.299   2.347 -0.4756  1.1671  2.3515
   30MOL   H41813236   1.487   2.297   2.515 -1.7188  0.2472  0.2789
   30MOL   H41913237   1.526   2.351   2.672  2.8176  0.7234 -1.2013
   30MOL   C42013238   1.318   2.363   2.622  0.0213 -0.7680  0.6737
   30MOL   C42113239   1.281   2.208   2.623  0.6090 -0.2390  0.1566
   30MOL   C42213240   1.125   2.190   2.656  0.6383  0.6857 -0.2518
   30MOL   C42313241   1.087   2.048   2.702 -0.0812 -0.6292  0.3701
   30MOL   C42413242   1.176   1.997   2.807  0.3448  0.0743  0.4640
   30MOL   C42513243   1.322   1.996   2.764  0.4184 -0.0203  0.2410
   30MOL   C42613244   1.365   2.136   2.739  0.0618 -0.2031 -0.4239
   30MOL   C42713245   1.227   2.438   2.529  0.2059  0.8826 -0.5996
   30MOL   H42813246   1.302   2.417   2.716 -2.3985 -0.8258  0.3320
   30MOL   H42913247   1.297   2.161   2.526 -0.9526 -0.5893  0.0625
   30MOL   H43013248   1.092   2.254   2.738 -2.8571  1.3718 -2.0719
   30MOL   H43113249   1.060   2.217   2.572 -1.1476  0.4058  0.9975
   30MOL   H43213250   0.983   2.019   2.720 -0.5112 -1.1468 -2.6894
   30MOL   H43313251   1.098   1.987   2.613  0.4046 -1.5324  1.0431
   30MOL   H43413252   1.153   1.897   2.842 -0.2822  0.3155  0.7506
   30MOL   H43513253   1.158   2.050   2.901 -0.9595 -1.8158  1.3138
   30MOL   H43613254   1.337   1.923   2.685 -3.4806  1.0825 -1.5906
   30MOL   H43713255   1.387   1.960   2.844  0.1633  1.4114  1.1215
   30MOL   H43813256   1.354   2.186   2.835  2.3242 -0.5237  0.0327
   30MOL   H43913257   1.473   2.126   2.727 -0.0358 -0.6947 -0.9031
   30MOL   H44013258   1.255   2.543   2.518  1.2274  0.8937  1.8251
   30MOL   H44113259   1.223   2.396   2.428  0.7207 -0.2005 -0.1794
   30MOL   H44213260   1.121   2.435   2.554  0.5486  0.7094  0.9005
   31MOL     C113261   2.030   4.667   1.993 -0.5993 -0.0696 -0.1247
   31MOL     C213262   1.936   4.641   1.870  0.1105 -0.1478 -0.4541
   31MOL     C313263   1.937   4.494   1.823 -0.1501 -0.4080 -0.3707
   31MOL     C413264   1.844   4.460   1.701 -0.3716 -0.4909  0.1152
   31MOL     C513265   1.876   4.559   1.589 -0.3864  0.2139  0.1766
   31MOL     C613266   1.865   4.708   1.637 -0.7825 -0.5244 -0.2537
   31MOL     C713267   1.959   4.738   1.752  0.0505 -0.3852  0.6781
   31MOL     C813268   1.989   4.599   2.123 -0.3170 -0.5043 -0.0250
   31MOL     H913269   2.128   4.629   1.964 -0.7390  0.0366 -0.7484
   31MOL    H1013270   1.841   4.663   1.919 -0.2022 -0.3380 -0.9789
   31MOL    H1113271   2.041   4.480   1.795  0.4999 -0.7037  2.0411
   31MOL    H1213272   1.919   4.418   1.900  1.4505 -0.3937  0.0536
   31MOL    H1313273   1.742   4.458   1.740  0.0514 -4.0883  1.2601
   31MOL    H1413274   1.853   4.358   1.665 -1.4540 -0.3470 -0.6019
   31MOL    H1513275   1.805   4.550   1.507 -1.4464  1.8553  0.8933
   31MOL    H1613276   1.970   4.544   1.536 -0.6956  2.2033 -0.9931
   31MOL    H1713277   1.880   4.776   1.553  3.2493  0.4159  1.1225
   31MOL    H1813278   1.763   4.728   1.671 -1.0210 -1.6610 -0.2890
   31MOL    H1913279   1.945   4.841   1.786 -1.6195 -0.7706  1.2217
   31MOL    H2013280   2.066   4.740   1.732  0.1193  0.4497  1.0753
   31MOL    H2113281   1.925   4.514   2.101 -2.4320  0.9308  0.3716
   31MOL    H2213282   1.921   4.667   2.175 -0.5654 -0.4622 -0.4045
   31MOL    H2313283   2.045   4.775   1.996 -2.4652  0.2530 -1.4964
   31MOL    C2413284   2.100   4.559   2.224 -0.5279 -0.7817 -0.3283
   31MOL    C2513285   2.055   4.587   2.366  0.3798 -0.6126 -0.1562
   31MOL    C2613286   1.923   4.516   2.413  0.0800  0.5134 -0.8073
   31MOL    C2713287   1.894   4.552   2.561 -0.4015  0.0037  0.4618
   31MOL    C2813288   1.869   4.702   2.570  0.7092 -0.1774  0.2582
   31MOL    C2913289   2.000   4.784   2.532  0.3830 -0.1507 -0.1615
   31MOL    C3013290   2.052   4.737   2.388 -0.4573 -0.1697 -1.1161
   31MOL    C3113291   2.149   4.411   2.205  0.8721  0.0922 -0.2478
   31MOL    H3213292   2.186   4.624   2.207  0.2279 -1.9009 -0.8784
   31MOL    H3313293   2.135   4.553   2.432 -0.5285 -0.9385  0.7929
   31MOL    H3413294   1.939   4.408   2.406  1.5260  0.7834 -1.9727
   31MOL    H3513295   1.839   4.545   2.350 -0.6423 -2.0344 -1.0763
   31MOL    H3613296   1.813   4.490   2.600  1.5798 -1.9074  1.6909
   31MOL    H3713297   1.984   4.523   2.616  1.1654 -0.7664 -2.4212
   31MOL    H3813298   1.833   4.727   2.670 -1.7500 -0.6946 -0.4621
   31MOL    H3913299   1.792   4.742   2.503 -1.3824 -2.5430  1.1809
   31MOL    H4013300   1.982   4.891   2.541 -0.0149 -0.4630  3.4133
   31MOL    H4113301   2.077   4.764   2.607  0.3951  4.0801  1.0967
   31MOL    H4213302   1.995   4.795   2.316 -0.8233 -0.2824 -0.9178
   31MOL    H4313303   2.153   4.776   2.372 -0.1380  0.4740  2.0349
   31MOL    H4413304   2.068   4.355   2.159  0.9461 -2.0478  2.0677
   31MOL    H4513305   2.170   4.366   2.303  1.4101  1.4284  0.2588
   31MOL    C4613306   2.277   4.388   2.133  0.6021 -0.1238 -0.4478
   31MOL    C4713307   2.272   4.255   2.061  0.4660 -0.6554  0.5148
   31MOL    C4813308   2.196   4.266   1.925 -0.0766 -0.3699 -0.2310
   31MOL    C4913309   2.198   4.130   1.850 -0.2746 -0.2978 -0.1390
   31MOL    C5013310   2.154   4.015   1.942 -0.3324  0.7628  0.8270
   31MOL    C5113311   2.235   4.004   2.064  0.2360 -0.1424  0.4907
   31MOL    C5213312   2.222   4.135   2.146  0.0612 -0.4181  0.1503
   31MOL    C5313313   2.396   4.397   2.229 -0.6152 -0.6788 -0.4021
   31MOL    H5413314   2.281   4.478   2.070 -0.1739  0.7147  0.6849
   31MOL    H5513315   2.372   4.228   2.026 -0.1550 -0.5985 -1.3791
   31MOL    H5613316   2.091   4.290   1.940 -0.1022 -0.5433 -0.1306
   31MOL    H5713317   2.235   4.347   1.863 -1.8067 -0.8852 -2.0319
   31MOL    H5813318   2.298   4.103   1.814  0.2990 -0.8436  1.8219
   31MOL    H5913319   2.131   4.134   1.764  1.8711 -1.6695 -1.9593
   31MOL    H6013320   2.049   4.024   1.971 -0.2475 -0.0857  1.4032
   31MOL    H6113321   2.162   3.926   1.879 -0.4003  2.8991 -2.3500
   31MOL    H6213322   2.337   3.998   2.023 -0.3937  2.2619 -1.5918
   31MOL    H6313323   2.203   3.924   2.130  1.7504 -1.7052 -0.6090
   31MOL    H6413324   2.120   4.154   2.181  0.1607  1.7613 -0.6463
   31MOL    H6513325   2.292   4.123   2.229 -0.6825  0.6971  0.9463
   31MOL    H6613326   2.423   4.295   2.253 -1.8725 -1.2660 -1.4247
   31MOL    H6713327   2.376   4.442   2.326  1.5051 -0.9711  0.2016
   31MOL    C6813328   2.529   4.454   2.166 -0.0832  0.0521 -0.1608
   31MOL    C6913329   2.522   4.606   2.115 -0.0063  0.3137 -0.2304
   31MOL    C7013330   2.505   4.716   2.213 -0.3578 -0.2068  0.0263
   31MOL    C7113331   2.491   4.856   2.140  0.0508  0.7300 -0.1763
   31MOL    C7213332   2.605   4.883   2.044 -0.7924  0.3333  0.0253
   31MOL    C7313333   2.631   4.765   1.941  0.3685 -1.0262 -0.1043
   31MOL    C7413334   2.636   4.627   2.010  0.3195 -0.0161 -0.9956
   31MOL    C7513335   2.647   4.432   2.263  0.3226 -0.0354 -0.1668
   31MOL    H7613336   2.541   4.394   2.076 -2.2956  1.0005 -1.1218
   31MOL    H7713337   2.435   4.618   2.051  0.7097  1.3953 -1.0331
   31MOL    H7813338   2.588   4.710   2.283 -1.2054  0.9563  1.1581
   31MOL    H7913339   2.415   4.683   2.265  0.1249  1.1273  1.7556
   31MOL    H8013340   2.392   4.859   2.094 -0.4246 -0.6585  0.7166
   31MOL    H8113341   2.486   4.941   2.207  1.3167  1.3761 -0.8972
   31MOL    H8213342   2.697   4.915   2.093  0.5097 -0.4258 -1.8491
   31MOL    H8313343   2.577   4.974   1.993 -1.1655  1.0238  1.4375
   31MOL    H8413344   2.725   4.788   1.891  1.4046 -0.7273  1.9174
   31MOL    H8513345   2.545   4.764   1.874 -0.6502  0.2536  1.1286
   31MOL    H8613346   2.737   4.609   2.047  0.2906 -0.4888 -1.1376
   31MOL    H8713347   2.627   4.545   1.939  0.4130 -0.1711 -0.8283
   31MOL    H8813348   2.727   4.498   2.228 -0.5759  0.3472 -1.5134
   31MOL    H8913349   2.623   4.465   2.364  1.3526  1.5356 -0.4110
   31MOL    C9013350   2.710   4.294   2.280 -0.8132 -0.1394 -0.6092
   31MOL    C9113351   2.726   4.209   2.148 -0.5042 -0.2840  0.1644
   31MOL    C9213352   2.808   4.269   2.033  0.6702 -0.3381  0.3557
   31MOL    C9313353   2.801   4.179   1.908 -0.0640 -0.1955 -0.4407
   31MOL    C9413354   2.859   4.041   1.946 -0.0854  0.6604  0.4050
   31MOL    C9513355   2.778   3.976   2.062 -0.4821 -0.1497  0.5371
   31MOL    C9613356   2.775   4.066   2.183 -0.4340 -0.9065  0.6046
   31MOL    C9713357   2.819   4.271   2.390 -0.0996  0.4650 -0.3016
   31MOL    H9813358   2.629   4.247   2.337 -3.2602  1.3363 -2.7998
   31MOL    H9913359   2.626   4.198   2.107 -1.0168  1.5626  0.8407
   31MOL   H10013360   2.909   4.285   2.071  0.8311 -0.6653  0.0615
   31MOL   H10113361   2.757   4.363   2.011 -0.0002 -0.6536  0.5720
   31MOL   H10213362   2.862   4.222   1.828 -0.5956 -0.7646 -1.1584
   31MOL   H10313363   2.699   4.178   1.870 -0.8183 -0.7869  1.5732
   31MOL   H10413364   2.958   4.056   1.988  0.0907  0.1843  0.1700
   31MOL   H10513365   2.867   3.970   1.863 -0.3009  1.2049 -0.0865
   31MOL   H10613366   2.677   3.952   2.027 -0.5605  1.2194 -0.2436
   31MOL   H10713367   2.817   3.879   2.091  0.8796  0.1122 -0.3547
   31MOL   H10813368   2.706   4.029   2.259 -0.0152 -2.3699  0.2752
   31MOL   H10913369   2.875   4.068   2.225  1.0068 -0.4187 -2.6863
   31MOL   H11013370   2.786   4.321   2.481  2.6314  0.8722  0.5023
   31MOL   H11113371   2.822   4.168   2.426 -0.4788  0.9908  1.2851
   31MOL   C11213372   2.965   4.322   2.365 -0.7680  0.1227 -0.2362
   31MOL   C11313373   3.056   4.292   2.491  0.4652 -0.1648  0.0923
   31MOL   C11413374   3.077   4.146   2.531 -0.1098 -0.0562 -0.0061
   31MOL   C11513375   3.157   4.125   2.656  0.5047  0.1770  0.4458
   31MOL   C11613376   3.132   4.224   2.768  0.2754  0.4952  0.9352
   31MOL   C11713377   3.127   4.369   2.716 -1.4205 -0.2568  0.1494
   31MOL   C11813378   3.025   4.382   2.605 -0.1107  0.3291 -0.2865
   31MOL   C11913379   2.972   4.465   2.304  0.5493 -0.3888 -0.1729
   31MOL   H12013380   2.998   4.247   2.294 -2.3003  1.3141 -2.2805
   31MOL   H12113381   3.155   4.323   2.457 -0.4316  2.6052 -0.1612
   31MOL   H12213382   3.126   4.080   2.459  0.2419  2.4113 -2.1091
   31MOL   H12313383   2.980   4.097   2.544 -0.4240  0.4298 -0.4959
   31MOL   H12413384   3.129   4.023   2.682 -0.8116 -0.8083 -4.3240
   31MOL   H12513385   3.262   4.112   2.628  0.7003 -1.2525  1.7389
   31MOL   H12613386   3.037   4.207   2.819 -1.4907  0.4440 -2.2606
   31MOL   H12713387   3.204   4.196   2.845 -0.2428  0.3984  1.3892
   31MOL   H12813388   3.111   4.442   2.794 -2.6704 -0.2488 -0.0932
   31MOL   H12913389   3.226   4.381   2.673 -0.7887 -1.0154  1.3801
   31MOL   H13013390   3.027   4.484   2.565 -0.3274 -0.0629 -1.3116
   31MOL   H13113391   2.923   4.367   2.641 -0.8332  1.1227 -1.9279
   31MOL   H13213392   2.911   4.522   2.374  0.5563  0.3749 -0.7855
   31MOL   H13313393   2.922   4.456   2.208 -0.3522  0.7562  0.1863
   31MOL   C13413394   3.112   4.535   2.280  0.4926  0.3610 -0.3102
   31MOL   C13513395   3.097   4.689   2.240  0.4015  0.2585 -0.2622
   31MOL   C13613396   3.081   4.770   2.367 -0.6494 -0.7218  0.2100
   31MOL   C13713397   3.084   4.921   2.338 -0.1462  0.0788 -0.6144
   31MOL   C13813398   2.988   4.970   2.222  0.0175  0.2011 -0.0718
   31MOL   C13913399   2.997   4.882   2.095 -0.0528 -0.2018 -0.1204
   31MOL   C14013400   2.988   4.738   2.136 -0.0091  0.6776 -0.0899
   31MOL   C14113401   3.201   4.454   2.172 -0.0843 -0.1522 -0.3910
   31MOL   H14213402   3.153   4.536   2.381  0.4505  0.7767 -0.2969
   31MOL   H14313403   3.191   4.719   2.194 -0.4124  0.0617 -2.0963
   31MOL   H14413404   2.987   4.751   2.420 -2.1060  0.5300 -1.8638
   31MOL   H14513405   3.153   4.744   2.445  0.4496 -0.3843 -0.6748
   31MOL   H14613406   3.185   4.945   2.305  0.5676  0.5070  1.8032
   31MOL   H14713407   3.080   4.979   2.430  1.1504  0.6019 -0.8736
   31MOL   H14813408   2.897   4.993   2.277 -0.0878 -2.1586  0.7995
   31MOL   H14913409   3.026   5.069   2.198  0.8134  0.4201  1.9913
   31MOL   H15013410   3.096   4.893   2.051  0.4789  2.2796  1.6530
   31MOL   H15113411   2.934   4.919   2.015 -1.3657 -1.1590  0.4554
   31MOL   H15213412   2.886   4.725   2.173  0.9214 -0.7245  2.0816
   31MOL   H15313413   3.009   4.672   2.051  0.5497 -0.7499  1.1292
   31MOL   H15413414   3.156   4.495   2.081 -0.3247  1.4287  0.4193
   31MOL   H15513415   3.171   4.350   2.176 -0.3016 -0.1024 -0.7588
   31MOL   C15613416   3.355   4.474   2.179  0.8234 -0.0473  0.1253
   31MOL   C15713417   3.414   4.428   2.036  0.7308 -0.4816 -0.1594
   31MOL   C15813418   3.351   4.295   1.983 -0.0465 -0.2534 -0.0378
   31MOL   C15913419   3.434   4.247   1.863 -0.6933  0.4173 -0.0860
   31MOL   C16013420   3.452   4.352   1.755 -0.0899 -0.5717 -0.2517
   31MOL   C16113421   3.493   4.485   1.813 -0.4214 -0.6987  0.1390
   31MOL   C16213422   3.409   4.526   1.927  0.0513  0.7294  0.3660
   31MOL   C16313423   3.424   4.388   2.292  0.5100  0.1681 -0.8694
   31MOL   H16413424   3.363   4.583   2.180 -2.3414  0.2384  1.2977
   31MOL   H16513425   3.519   4.403   2.047  0.4112 -2.1151 -0.6159
   31MOL   H16613426   3.351   4.217   2.059 -0.9984 -0.4630 -0.2424
   31MOL   H16713427   3.249   4.320   1.952 -0.0432  0.0049  0.1591
   31MOL   H16813428   3.535   4.222   1.893 -0.9991  0.1645  0.7351
   31MOL   H16913429   3.404   4.152   1.819 -1.5021  0.0154  1.2922
   31MOL   H17013430   3.371   4.369   1.683 -0.6603 -1.1133  0.2575
   31MOL   H17113431   3.539   4.330   1.694  0.8377  1.6209  0.2125
   31MOL   H17213432   3.501   4.558   1.732  1.3493 -0.6511  0.3246
   31MOL   H17313433   3.595   4.480   1.852  0.2258 -2.1205 -1.6659
   31MOL   H17413434   3.439   4.627   1.952 -0.0682  0.8127  0.1741
   31MOL   H17513435   3.307   4.536   1.890 -0.9487  0.5690  2.9759
   31MOL   H17613436   3.406   4.284   2.264  1.0645  0.4745 -2.4410
   31MOL   H17713437   3.376   4.408   2.387  2.3088 -0.4006  0.1838
   31MOL   C17813438   3.573   4.415   2.324  0.0795  1.2496  0.2404
   31MOL   C17913439   3.599   4.508   2.441  0.0188  0.4879 -0.2115
   31MOL   C18013440   3.515   4.638   2.444  0.6549 -0.1514  0.1062
   31MOL   C18113441   3.532   4.715   2.567 -0.2648 -0.9624 -0.2839
   31MOL   C18213442   3.679   4.765   2.595  0.4870  0.5910 -0.1882
   31MOL   C18313443   3.760   4.639   2.586 -0.6385  0.3994  0.7606
   31MOL   C18413444   3.739   4.567   2.452 -0.7090  0.2456 -0.2238
   31MOL   C18513445   3.651   4.278   2.345  1.0188 -0.4419 -0.1851
   31MOL   H18613446   3.605   4.475   2.239  0.7115  1.0985  0.3750
   31MOL   H18713447   3.570   4.457   2.533 -0.3803  0.7154 -0.2087
   31MOL   H18813448   3.537   4.696   2.354 -3.2853 -2.3694 -2.4518
   31MOL   H18913449   3.410   4.614   2.430  1.1008 -0.4922 -3.2869
   31MOL   H19013450   3.475   4.670   2.648 -4.2801  0.5024 -2.1235
   31MOL   H19113451   3.474   4.807   2.554  1.0688 -0.2649 -1.3357
   31MOL   H19213452   3.703   4.836   2.517 -0.8841 -1.9006 -2.9913
   31MOL   H19313453   3.696   4.812   2.692 -0.0753 -1.3929  0.9215
   31MOL   H19413454   3.733   4.574   2.669  1.4458 -0.4547  0.8096
   31MOL   H19513455   3.867   4.646   2.606 -0.4439 -0.1653 -0.0653
   31MOL   H19613456   3.766   4.625   2.363 -0.5916 -0.7285 -0.8358
   31MOL   H19713457   3.809   4.483   2.454  0.1693  0.9726  0.1137
   31MOL   H19813458   3.730   4.295   2.418 -0.3042 -0.5138  1.3204
   31MOL   H19913459   3.579   4.218   2.403  1.5961 -2.0909 -1.1480
   31MOL   C20013460   3.710   4.219   2.215  0.6435  1.1163 -0.3480
   31MOL   C20113461   3.832   4.307   2.167 -0.1396 -0.0805 -0.4702
   31MOL   C20213462   3.974   4.262   2.229  0.0979 -0.0645 -0.4458
   31MOL   C20313463   4.084   4.367   2.191 -0.2485  0.8838  0.5570
   31MOL   C20413464   4.076   4.408   2.039  0.1829  0.6087 -0.1518
   31MOL   C20513465   3.936   4.434   1.982  0.9815 -0.0203  0.6674
   31MOL   C20613466   3.843   4.319   2.020  0.3059  0.3077 -0.3773
   31MOL   C20713467   3.743   4.071   2.228 -0.5976 -0.0547  0.0773
   31MOL   H20813468   3.627   4.229   2.145  0.4770  1.2920 -0.1289
   31MOL   H20913469   3.805   4.410   2.191 -0.3557 -0.1041 -0.6137
   31MOL   H21013470   4.006   4.164   2.194 -0.2861 -0.9456  1.5725
   31MOL   H21113471   3.962   4.264   2.338  1.2174 -2.1164 -0.2656
   31MOL   H21213472   4.055   4.457   2.246 -0.9939  1.2523 -0.4157
   31MOL   H21313473   4.184   4.343   2.228 -0.3323  0.5697  0.5760
   31MOL   H21413474   4.134   4.499   2.023  0.6789  0.3004 -0.1322
   31MOL   H21513475   4.128   4.327   1.987  1.1464  0.8560  0.4034
   31MOL   H21613476   3.897   4.531   2.012 -0.5248 -0.4869  0.2384
   31MOL   H21713477   3.946   4.441   1.873 -0.5044  0.5979  0.5653
   31MOL   H21813478   3.744   4.323   1.975 -0.1102 -1.7708  0.3008
   31MOL   H21913479   3.884   4.228   1.976  0.3210  0.4717 -0.7002
   31MOL   H22013480   3.782   4.022   2.139  2.0260  1.8229  0.1284
   31MOL   H22113481   3.824   4.071   2.301 -0.9233 -2.8221  0.5318
   31MOL   C22213482   3.645   3.967   2.295  0.0916  0.1829 -0.6488
   31MOL   C22313483   3.503   3.973   2.219  0.3430  0.5490  0.3756
   31MOL   C22413484   3.381   3.938   2.317 -0.2606  0.1162 -0.0243
   31MOL   C22513485   3.242   3.957   2.254 -0.5947  0.6038 -0.3426
   31MOL   C22613486   3.239   3.868   2.124  0.3835  0.4236  0.3058
   31MOL   C22713487   3.355   3.902   2.026  0.1354  0.2339 -0.1997
   31MOL   C22813488   3.492   3.894   2.088 -0.1162 -0.3529 -0.4540
   31MOL   C22913489   3.710   3.819   2.286  0.5738 -0.3845  0.1119
   31MOL   H23013490   3.620   4.001   2.396 -1.3792  0.1607 -0.9945
   31MOL   H23113491   3.484   4.079   2.201  0.5644  1.2063  3.6554
   31MOL   H23213492   3.377   3.836   2.355 -0.4895  0.6102  1.2850
   31MOL   H23313493   3.379   3.995   2.409 -0.6274  1.9117 -1.1215
   31MOL   H23413494   3.226   4.062   2.230 -1.4222  0.9083  1.4182
   31MOL   H23513495   3.157   3.924   2.314  0.1758 -2.1448 -0.7251
   31MOL   H23613496   3.238   3.761   2.147 -1.1071  0.1636 -0.9164
   31MOL   H23713497   3.140   3.885   2.082 -0.8397 -1.7169  2.1966
   31MOL   H23813498   3.333   3.990   1.966  0.1519  0.0798 -0.4295
   31MOL   H23913499   3.350   3.825   1.950 -1.2314  1.7058 -1.6383
   31MOL   H24013500   3.527   3.792   2.103  1.6283  0.0464 -1.6666
   31MOL   H24113501   3.556   3.944   2.016 -0.5319 -0.3170 -0.8012
   31MOL   H24213502   3.726   3.808   2.179  2.2448 -0.3147  0.3511
   31MOL   H24313503   3.630   3.750   2.313  1.2653 -2.0544 -1.9897
   31MOL   C24413504   3.840   3.791   2.370  0.5485  0.2764  0.0489
   31MOL   C24513505   3.915   3.671   2.314 -0.3361  0.1538  0.4003
   31MOL   C24613506   3.984   3.696   2.181 -0.4724  0.6798  0.0777
   31MOL   C24713507   4.066   3.573   2.135  0.3077 -0.7121 -0.1850
   31MOL   C24813508   3.976   3.453   2.118 -0.0408 -0.2538 -0.4627
   31MOL   C24913509   3.898   3.417   2.244 -0.2354 -0.4138  0.1115
   31MOL   C25013510   3.824   3.546   2.296  0.0912  0.0348 -0.6680
   31MOL   C25113511   3.806   3.778   2.524  0.4048 -0.3457  0.5611
   31MOL   H25213512   3.914   3.870   2.357 -0.5414  1.3243  0.1489
   31MOL   H25313513   4.002   3.642   2.372 -1.3467 -1.4515  1.1477
   31MOL   H25413514   4.050   3.783   2.188 -0.9523  1.0036  0.7029
   31MOL   H25513515   3.914   3.719   2.100  0.1458  0.8579 -0.4079
   31MOL   H25613516   4.109   3.597   2.038 -1.4813  0.4278 -0.7359
   31MOL   H25713517   4.147   3.548   2.203 -1.3122 -0.0199  2.0988
   31MOL   H25813518   3.894   3.466   2.047 -0.3775 -1.4714 -0.3045
   31MOL   H25913519   4.032   3.374   2.067 -1.5089 -1.8591  0.3879
   31MOL   H26013520   3.979   3.389   2.311 -0.5159 -0.3100  0.4969
   31MOL   H26113521   3.835   3.328   2.239 -1.3624  0.4149 -0.8958
   31MOL   H26213522   3.753   3.572   2.217  0.5023  1.6441 -0.5411
   31MOL   H26313523   3.757   3.523   2.378 -2.1776  1.4734 -2.0418
   31MOL   H26413524   3.814   3.675   2.560  0.1780 -0.5941 -0.0957
   31MOL   H26513525   3.706   3.811   2.555  0.5029  1.3586 -0.9040
   31MOL   C26613526   3.908   3.860   2.611  0.0325  1.0563 -0.7746
   31MOL   C26713527   3.855   4.006   2.627  0.2418  0.3403  0.1644
   31MOL   C26813528   3.966   4.101   2.676  0.4584 -0.4810  0.0007
   31MOL   C26913529   3.914   4.248   2.683 -0.5220  1.0348 -0.5629
   31MOL   C27013530   3.801   4.252   2.786 -0.5573 -0.0210  0.4367
   31MOL   C27113531   3.692   4.157   2.744 -0.2692 -0.0549  0.6725
   31MOL   C27213532   3.740   4.015   2.733 -0.3828 -0.4571 -0.1767
   31MOL   C27313533   3.924   3.786   2.745  0.4529 -0.2216 -0.4148
   31MOL   H27413534   4.007   3.867   2.566  0.6009 -0.9104  0.1151
   31MOL   H27513535   3.820   4.041   2.530 -0.3488  0.5316  0.4452
   31MOL   H27613536   4.004   4.071   2.774  0.3049  4.1160  1.5944
   31MOL   H27713537   4.054   4.097   2.612  0.5387  1.0787 -0.0097
   31MOL   H27813538   3.879   4.287   2.588  1.9816 -1.4627 -2.5894
   31MOL   H27913539   4.000   4.309   2.714 -0.5299  1.1601 -0.7922
   31MOL   H28013540   3.816   4.242   2.894 -1.3469 -0.9906  0.4624
   31MOL   H28113541   3.762   4.352   2.769 -1.0196 -0.4346 -0.9319
   31MOL   H28213542   3.662   4.196   2.646  0.6929  1.4461  0.9525
   31MOL   H28313543   3.613   4.161   2.818 -0.8345 -3.8659  0.3850
   31MOL   H28413544   3.662   3.947   2.700 -1.0038 -0.4708  1.3098
   31MOL   H28513545   3.791   3.984   2.824 -0.6714  0.9291  0.4670
   31MOL   H28613546   3.822   3.766   2.776 -0.0419  0.4074 -1.5819
   31MOL   H28713547   3.971   3.854   2.816 -1.2124  1.9254 -1.2856
   31MOL   C28813548   4.005   3.661   2.740 -0.4056 -0.3872  0.1056
   31MOL   C28913549   3.942   3.528   2.803  0.1686  0.2253  0.0034
   31MOL   C29013550   3.902   3.546   2.958  0.7843  0.1059 -0.9831
   31MOL   C29113551   3.860   3.415   3.023 -0.1204  0.1127 -0.2650
   31MOL   C29213552   3.745   3.354   2.941  0.1059 -0.1884 -0.8917
   31MOL   C29313553   3.779   3.342   2.793  0.0953  0.6552  0.3583
   31MOL   C29413554   3.821   3.473   2.729  0.2840 -0.0039  0.5703
   31MOL   C29513555   4.145   3.684   2.797 -0.3945 -0.8611 -0.0680
   31MOL   H29613556   4.024   3.638   2.635  1.7668 -1.2764  0.6609
   31MOL   H29713557   4.013   3.446   2.793 -0.7666 -0.7349  1.1352
   31MOL   H29813558   3.976   3.599   3.017  0.6906  0.7327 -1.4155
   31MOL   H29913559   3.824   3.622   2.964  0.2258 -0.5612  0.3591
   31MOL   H30013560   3.934   3.334   3.022  0.3864  0.5825 -1.0726
   31MOL   H30113561   3.826   3.428   3.125  0.8355 -1.7996  0.3273
   31MOL   H30213562   3.647   3.401   2.941 -0.5540 -1.5133 -0.8306
   31MOL   H30313563   3.714   3.255   2.977 -1.8429  0.2765 -1.2145
   31MOL   H30413564   3.698   3.300   2.733 -0.6379  1.1882  0.9546
   31MOL   H30513565   3.863   3.276   2.776 -0.4019  0.9277 -3.5561
   31MOL   H30613566   3.740   3.546   2.727  0.1576 -0.1596 -0.1879
   31MOL   H30713567   3.852   3.448   2.628 -1.8149  2.1567 -0.6632
   31MOL   H30813568   4.127   3.732   2.893 -0.9146 -1.4652  0.1364
   31MOL   H30913569   4.187   3.588   2.827 -0.7709 -1.0986 -0.3184
   31MOL   C31013570   4.246   3.761   2.709 -0.6123 -0.6314  0.4152
   31MOL   C31113571   4.359   3.837   2.789 -0.2611  0.0257 -0.1513
   31MOL   C31213572   4.316   3.956   2.880  0.2922 -0.2581 -0.2185
   31MOL   C31313573   4.430   4.024   2.962  0.5183 -0.6994  0.2262
   31MOL   C31413574   4.521   3.923   3.032  0.1256 -0.5278 -0.8220
   31MOL   C31513575   4.564   3.815   2.928 -0.2400 -0.2615  0.9824
   31MOL   C31613576   4.444   3.739   2.867  0.2042  0.4229 -0.1090
   31MOL   C31713577   4.295   3.674   2.587 -0.2424 -0.2609 -0.6797
   31MOL   H31813578   4.188   3.839   2.661  0.3331  0.7828  1.5348
   31MOL   H31913579   4.427   3.884   2.717 -1.6789  0.9425 -0.9192
   31MOL   H32013580   4.268   4.038   2.827  2.9740  1.9173  0.6230
   31MOL   H32113581   4.239   3.918   2.948  0.8432  1.3359  1.3298
   31MOL   H32213582   4.388   4.098   3.031  0.8451 -1.1128  0.8746
   31MOL   H32313583   4.492   4.086   2.897 -2.1271  1.2675 -0.5162
   31MOL   H32413584   4.610   3.978   3.061 -0.2159 -0.4689  0.1166
   31MOL   H32513585   4.469   3.888   3.121  0.3546  3.1155  0.8293
   31MOL   H32613586   4.620   3.866   2.850 -0.0841  1.8029  2.4236
   31MOL   H32713587   4.641   3.754   2.977  0.1767 -0.4087  0.1517
   31MOL   H32813588   4.392   3.688   2.948  1.4127  0.8138  0.9163
   31MOL   H32913589   4.489   3.663   2.803 -0.4060 -1.4536  1.6197
   31MOL   H33013590   4.213   3.645   2.522 -0.0245 -0.9702 -0.6414
   31MOL   H33113591   4.317   3.578   2.633  0.6028  0.7766  1.1687
   31MOL   C33213592   4.415   3.727   2.508  0.1227  0.0542  0.1616
   31MOL   C33313593   4.385   3.864   2.446 -0.0526 -0.2657  0.3362
   31MOL   C33413594   4.280   3.859   2.337 -0.1798  0.1789 -0.1133
   31MOL   C33513595   4.266   4.004   2.286 -0.8641 -0.5463  0.0975
   31MOL   C33613596   4.403   4.049   2.229 -0.1683  0.2966  0.3469
   31MOL   C33713597   4.502   4.057   2.345 -0.5060  0.6736 -0.2273
   31MOL   C33813598   4.518   3.923   2.403 -0.2716  0.8747  0.4155
   31MOL   C33913599   4.456   3.618   2.403 -0.2550  0.1137 -0.5780
   31MOL   H34013600   4.497   3.739   2.579 -1.1848 -0.4101  1.7784
   31MOL   H34113601   4.349   3.926   2.527  0.5018 -1.6228  1.6575
   31MOL   H34213602   4.301   3.794   2.252 -1.7229 -2.7190  1.6440
   31MOL   H34313603   4.182   3.829   2.373 -0.1946  2.9191  2.3366
   31MOL   H34413604   4.187   4.001   2.211  0.4295  1.4093 -1.3800
   31MOL   H34513605   4.224   4.074   2.359  0.3182 -0.8062  1.0346
   31MOL   H34613606   4.437   3.987   2.146  1.7399  1.6789  0.0639
   31MOL   H34713607   4.409   4.145   2.178 -0.2718 -0.6082 -1.4135
   31MOL   H34813608   4.459   4.121   2.422 -2.6846 -1.1164  0.0549
   31MOL   H34913609   4.592   4.112   2.315  0.5700  0.1618  1.9274
   31MOL   H35013610   4.580   3.930   2.492  0.4059  0.8602 -0.0445
   31MOL   H35113611   4.589   3.869   2.340 -0.1541  3.5706 -1.8595
   31MOL   H35213612   4.488   3.661   2.308 -1.6291 -2.9286 -2.5139
   31MOL   H35313613   4.379   3.549   2.369  1.6771 -2.5848  0.2872
   31MOL   C35413614   4.567   3.527   2.449 -0.3313  0.9137  0.1037
   31MOL   C35513615   4.710   3.602   2.443  0.8995 -0.1705  0.1105
   31MOL   C35613616   4.779   3.609   2.304  0.1856  0.4818 -0.4979
   31MOL   C35713617   4.915   3.672   2.305 -0.5418 -0.3168 -0.3839
   31MOL   C35813618   5.008   3.606   2.407 -0.2223 -0.2364  0.1303
   31MOL   C35913619   4.943   3.597   2.542  0.6357 -0.6032 -0.3477
   31MOL   C36013620   4.806   3.533   2.541  0.5374  0.4021  1.0434
   31MOL   C36113621   4.565   3.384   2.404  0.0280  0.3997  0.0438
   31MOL   H36213622   4.540   3.516   2.554 -0.9184  1.7273  0.0414
   31MOL   H36313623   4.708   3.708   2.467  1.3157 -0.1567  0.0928
   31MOL   H36413624   4.719   3.669   2.237 -0.0569  0.4757 -0.2868
   31MOL   H36513625   4.787   3.505   2.272  0.3882  0.4359 -0.2986
   31MOL   H36613626   4.955   3.655   2.205 -1.3576  2.7848 -1.2940
   31MOL   H36713627   4.909   3.780   2.315 -0.7792 -0.4406  0.9995
   31MOL   H36813628   5.040   3.509   2.368  1.5158 -0.3789  1.8250
   31MOL   H36913629   5.103   3.657   2.423  0.3941 -1.3030 -0.0536
   31MOL   H37013630   5.012   3.533   2.596  1.4813 -0.3000 -1.0517
   31MOL   H37113631   4.942   3.697   2.584  2.5250 -0.9512  0.5636
   31MOL   H37213632   4.760   3.530   2.640 -0.3552 -0.3408  0.6079
   31MOL   H37313633   4.816   3.426   2.523  2.4698  0.7392 -0.0077
   31MOL   H37413634   4.661   3.337   2.422  0.2640  0.4924 -0.9336
   31MOL   H37513635   4.559   3.386   2.295 -1.6580  2.9605  0.1396
   31MOL   C37613636   4.453   3.292   2.462 -0.1460  0.5412 -0.1306
   31MOL   C37713637   4.367   3.230   2.340 -0.2153  0.1335  0.2717
   31MOL   C37813638   4.235   3.163   2.388 -0.2403 -0.5123  0.3408
   31MOL   C37913639   4.162   3.084   2.273 -0.7793 -0.1849 -0.3383
   31MOL   C38013640   4.256   2.993   2.187  0.3060 -0.2187 -0.3084
   31MOL   C38113641   4.370   3.076   2.135  0.2261 -0.6643 -0.3775
   31MOL   C38213642   4.447   3.127   2.258 -0.7263 -0.1172  0.2549
   31MOL   C38313643   4.512   3.182   2.559 -0.1864  0.5137  0.4061
   31MOL   H38413644   4.390   3.349   2.531 -0.3191 -0.4403  0.5224
   31MOL   H38513645   4.338   3.310   2.273 -1.4607 -0.7684 -0.2798
   31MOL   H38613646   4.243   3.089   2.467  3.2221 -0.6835 -0.0778
   31MOL   H38713647   4.176   3.241   2.437  0.0618 -1.8691  2.9435
   31MOL   H38813648   4.096   3.161   2.234  1.8186  1.7114 -1.1094
   31MOL   H38913649   4.093   3.009   2.313 -1.7648  0.5622 -0.6189
   31MOL   H39013650   4.288   2.905   2.243 -0.7248  1.2883  2.8270
   31MOL   H39113651   4.197   2.957   2.103 -0.5613 -1.0187  0.6147
   31MOL   H39213652   4.432   3.015   2.070  3.1037  2.3486 -0.5947
   31MOL   H39313653   4.331   3.161   2.079 -0.8006 -1.6060 -1.1102
   31MOL   H39413654   4.475   3.047   2.327  0.2421 -0.6003 -0.7053
   31MOL   H39513655   4.535   3.169   2.209 -1.0082  0.5780  0.3264
   31MOL   H39613656   4.606   3.143   2.521 -0.1821  0.9829 -0.0678
   31MOL   H39713657   4.436   3.104   2.558 -0.3850  0.7108  0.2749
   31MOL   C39813658   4.523   3.228   2.706  0.3951  0.0989  0.4445
   31MOL   C39913659   4.382   3.234   2.779 -0.5905  0.2216 -0.6095
   31MOL   C40013660   4.317   3.103   2.820  0.0680  0.3437 -0.3438
   31MOL   C40113661   4.177   3.120   2.889  1.1379 -0.3800 -0.0028
   31MOL   C40213662   4.197   3.203   3.017  0.5013 -0.1207  0.0333
   31MOL   C40313663   4.266   3.334   2.976 -0.3731 -0.2712 -0.5171
   31MOL   C40413664   4.395   3.330   2.898 -0.3572 -0.0946  0.1319
   31MOL   C40513665   4.630   3.144   2.772  0.0780 -0.3383  0.9879
   31MOL   H40613666   4.552   3.333   2.698  0.3427  0.0193 -0.9833
   31MOL   H40713667   4.306   3.281   2.715 -0.2698  1.1109 -0.3503
   31MOL   H40813668   4.385   3.047   2.885 -0.3582 -0.9770 -1.0230
   31MOL   H40913669   4.300   3.058   2.723 -1.7716  2.4865 -1.0430
   31MOL   H41013670   4.138   3.020   2.907 -0.2297  0.3443  1.1225
   31MOL   H41113671   4.102   3.170   2.828  1.8034  0.3092 -0.2724
   31MOL   H41213672   4.272   3.158   3.082 -0.9888  0.3901  2.1817
   31MOL   H41313673   4.108   3.218   3.079 -0.3380 -3.4942 -0.2592
   31MOL   H41413674   4.196   3.401   2.926 -1.0553 -0.9149 -0.4359
   31MOL   H41513675   4.280   3.389   3.069 -1.5284 -0.5486 -0.1719
   31MOL   H41613676   4.426   3.429   2.864  3.2620 -0.2687  2.5742
   31MOL   H41713677   4.486   3.311   2.955 -1.0855 -2.7088  0.4977
   31MOL   H41813678   4.617   3.144   2.881 -1.5510  1.3003  0.8221
   31MOL   H41913679   4.622   3.045   2.726 -1.4092  0.0548  0.3727
   31MOL   C42013680   4.771   3.201   2.752 -0.1522 -0.1434  0.3579
   31MOL   C42113681   4.879   3.087   2.728 -0.0207 -0.0222 -0.3431
   31MOL   C42213682   4.898   2.979   2.832  0.7564  1.1146  0.3381
   31MOL   C42313683   5.007   2.880   2.796  0.0406 -0.0544 -0.2131
   31MOL   C42413684   5.135   2.951   2.756 -0.0787 -0.0125  0.4234
   31MOL   C42513685   5.111   3.029   2.625  0.5315  0.4160  0.0820
   31MOL   C42613686   5.012   3.142   2.672 -0.3744  0.2055 -0.6323
   31MOL   C42713687   4.814   3.304   2.863 -0.5494 -0.0068  0.6647
   31MOL   H42813688   4.782   3.268   2.666 -0.6964  1.0069  1.1765
   31MOL   H42913689   4.847   3.034   2.639 -3.5491  0.7104  0.4194
   31MOL   H43013690   4.926   3.017   2.930  1.3318 -0.4463  0.8007
   31MOL   H43113691   4.807   2.920   2.837  2.2750 -1.5334 -1.7033
   31MOL   H43213692   5.035   2.814   2.878 -0.4843 -1.9408 -1.5001
   31MOL   H43313693   4.977   2.814   2.714 -1.2748  1.4698 -0.9800
   31MOL   H43413694   5.204   2.867   2.753  1.6314  1.3563  0.9143
   31MOL   H43513695   5.174   3.013   2.836 -1.7682 -0.7884  1.8822
   31MOL   H43613696   5.054   2.970   2.554 -0.4589 -1.2581  2.2047
   31MOL   H43713697   5.200   3.077   2.584  0.5633 -0.1901 -0.5547
   31MOL   H43813698   5.057   3.204   2.750  1.4065 -0.1532 -1.3302
   31MOL   H43913699   4.996   3.210   2.589 -1.5043 -1.1891 -1.5782
   31MOL   H44013700   4.741   3.384   2.879 -0.3466  0.5259 -0.8968
   31MOL   H44113701   4.834   3.252   2.956  0.4466 -1.1553 -0.1791
   31MOL   H44213702   4.902   3.362   2.833 -2.0534  1.4704 -0.9982
   32MOL     C113703   3.047   4.425   5.251  0.1643  0.3977 -0.3972
   32MOL     C213704   3.004   4.572   5.249 -0.7127  0.1406  0.4899
   32MOL     C313705   2.991   4.622   5.395  0.9517  0.0049  0.3231
   32MOL     C413706   2.952   4.779   5.399  0.1257  0.4611 -0.4775
   32MOL     C513707   2.830   4.809   5.313  0.2420 -0.0118  0.3103
   32MOL     C613708   2.835   4.748   5.173  0.2798  0.0531 -0.1421
   32MOL     C713709   2.871   4.604   5.176 -0.1400 -0.1126  0.0129
   32MOL     C813710   3.070   4.366   5.112 -0.4605  0.1097 -0.2185
   32MOL     H913711   3.140   4.425   5.308  0.0151 -1.5269 -0.1340
   32MOL    H1013712   3.088   4.631   5.215 -0.8298 -0.4831 -0.9028
   32MOL    H1113713   2.916   4.565   5.448  2.3684 -1.3310  0.9271
   32MOL    H1213714   3.086   4.605   5.446  0.6604 -1.1018  0.4910
   32MOL    H1313715   3.031   4.831   5.344 -0.0602  1.1326 -0.1138
   32MOL    H1413716   2.936   4.819   5.499 -0.3777  1.9682 -1.1303
   32MOL    H1513717   2.824   4.915   5.290  0.4233 -0.3642 -1.4080
   32MOL    H1613718   2.739   4.780   5.366  1.3204  1.2065  2.9109
   32MOL    H1713719   2.738   4.767   5.126 -0.0096 -1.1934 -0.0522
   32MOL    H1813720   2.906   4.808   5.116  1.0935  0.6286  1.4617
   32MOL    H1913721   2.871   4.560   5.076 -0.2072  0.1541 -0.1048
   32MOL    H2013722   2.786   4.548   5.216 -0.0389  0.2132  0.6910
   32MOL    H2113723   3.096   4.444   5.041 -0.4264  0.9445  0.6877
   32MOL    H2213724   2.976   4.324   5.079 -0.5595 -0.2880  0.5376
   32MOL    H2313725   2.973   4.365   5.304  1.6077  0.6145  1.9105
   32MOL    C2413726   3.157   4.244   5.097 -1.0266 -0.2358 -0.5997
   32MOL    C2513727   3.131   4.136   5.206 -0.0559  0.3360  0.1439
   32MOL    C2613728   3.248   4.034   5.223  0.1148  0.0885  0.4469
   32MOL    C2713729   3.216   3.929   5.342  0.1526 -0.1539 -1.1125
   32MOL    C2813730   3.080   3.858   5.317 -0.7717  0.4581 -0.3124
   32MOL    C2913731   2.973   3.962   5.292  0.7158 -0.2823 -0.1428
   32MOL    C3013732   2.995   4.064   5.178 -0.0419  0.2561 -0.1012
   32MOL    C3113733   3.143   4.189   4.950  0.0054  0.8385  0.4756
   32MOL    H3213734   3.259   4.284   5.103 -1.3663  0.7458 -1.3026
   32MOL    H3313735   3.122   4.175   5.307  1.2578  0.8037  0.0957
   32MOL    H3413736   3.343   4.085   5.236 -0.7182  2.0976 -1.0669
   32MOL    H3513737   3.262   3.975   5.133  1.5465  1.9626 -0.5788
   32MOL    H3613738   3.292   3.855   5.367  0.3739  0.4426  0.0083
   32MOL    H3713739   3.199   3.998   5.424  0.9633 -1.3525  0.0852
   32MOL    H3813740   3.057   3.808   5.411  0.2496  0.2320 -0.1697
   32MOL    H3913741   3.094   3.795   5.229  0.5996  1.2624 -0.6942
   32MOL    H4013742   2.876   3.915   5.276 -0.9298  2.7119  0.7235
   32MOL    H4113743   2.960   4.020   5.383  1.5606 -1.8091  0.9619
   32MOL    H4213744   3.005   4.009   5.084  1.1905  0.7593 -0.2749
   32MOL    H4313745   2.911   4.134   5.171 -1.4527 -1.2808  1.1967
   32MOL    H4413746   3.037   4.198   4.930 -0.1956  0.2973  1.2541
   32MOL    H4513747   3.171   4.083   4.948 -0.5711  0.6854  0.2840
   32MOL    C4613748   3.233   4.262   4.849  0.6571  0.3780 -0.0632
   32MOL    C4713749   3.171   4.256   4.704  0.2077  0.0834 -0.7075
   32MOL    C4813750   3.064   4.366   4.675  0.7232 -0.3641  0.8886
   32MOL    C4913751   3.027   4.365   4.529 -0.2516 -0.7460 -0.3842
   32MOL    C5013752   2.967   4.229   4.483  0.0460  0.4406 -0.2140
   32MOL    C5113753   3.059   4.112   4.520  0.3320  0.3748 -0.1709
   32MOL    C5213754   3.115   4.115   4.666 -0.3372  0.2679  0.3130
   32MOL    C5313755   3.376   4.213   4.850 -0.5258  0.0350 -0.4966
   32MOL    H5413756   3.230   4.369   4.872  0.4828 -0.2042  2.7404
   32MOL    H5513757   3.254   4.279   4.638  1.3846 -1.0699  0.3243
   32MOL    H5613758   2.968   4.351   4.724 -0.7206  2.3248 -0.9864
   32MOL    H5713759   3.102   4.459   4.716  0.9924  0.2434 -0.7031
   32MOL    H5813760   3.124   4.384   4.483 -0.6594  0.1673 -0.8752
   32MOL    H5913761   2.964   4.443   4.488  1.3893  0.4002 -0.8054
   32MOL    H6013762   2.865   4.208   4.515  0.1093 -1.6092 -1.2724
   32MOL    H6113763   2.953   4.228   4.375  1.3274  3.9519 -0.4792
   32MOL    H6213764   3.142   4.111   4.449  1.5049  0.0885  1.1688
   32MOL    H6313765   3.002   4.019   4.514  2.3313 -0.8814 -0.4224
   32MOL    H6413766   3.034   4.084   4.732  0.0002 -0.1531  0.5291
   32MOL    H6513767   3.197   4.044   4.674 -1.1477 -0.6530  0.6612
   32MOL    H6613768   3.428   4.200   4.755 -1.2249  0.6620 -0.9727
   32MOL    H6713769   3.386   4.119   4.904  4.4801  0.0333 -1.2012
   32MOL    C6813770   3.476   4.305   4.919  0.6424 -0.2675  0.1881
   32MOL    C6913771   3.608   4.225   4.960  0.0600 -0.4510  0.5136
   32MOL    C7013772   3.580   4.135   5.086  0.1528 -0.2677  0.3488
   32MOL    C7113773   3.717   4.082   5.136 -0.1272 -0.1955 -0.0067
   32MOL    C7213774   3.809   4.016   5.031  0.6140  0.2255 -0.0174
   32MOL    C7313775   3.812   4.092   4.900  0.6930 -0.1251 -0.2779
   32MOL    C7413776   3.677   4.146   4.853  0.1970 -0.6468 -0.3708
   32MOL    C7513777   3.524   4.426   4.827 -0.1311 -0.0923 -0.6169
   32MOL    H7613778   3.435   4.352   5.008  0.2123 -0.1297 -0.0788
   32MOL    H7713779   3.684   4.292   5.001  2.3105 -3.2149  1.0548
   32MOL    H7813780   3.510   4.057   5.059  1.5638 -0.2797 -3.6038
   32MOL    H7913781   3.533   4.200   5.161  0.1693  0.3359 -0.1575
   32MOL    H8013782   3.784   4.155   5.181 -0.5135 -0.3532  0.8327
   32MOL    H8113783   3.707   4.005   5.213  0.1375 -1.4200 -1.1736
   32MOL    H8213784   3.759   3.921   5.014  0.4744  0.4144 -0.6832
   32MOL    H8313785   3.908   3.994   5.071  0.3437  0.5898  0.8630
   32MOL    H8413786   3.856   4.042   4.814  0.9443 -0.9099  0.3017
   32MOL    H8513787   3.881   4.175   4.911 -0.4128  0.7510  0.1731
   32MOL    H8613788   3.626   4.051   4.833  0.6264 -0.7142 -1.1624
   32MOL    H8713789   3.690   4.207   4.764  0.2770  0.2544  0.2598
   32MOL    H8813790   3.585   4.386   4.746  0.8911  1.8780 -0.8601
   32MOL    H8913791   3.437   4.474   4.784  0.0113  0.8261  0.0829
   32MOL    C9013792   3.598   4.537   4.904  0.3990 -0.0583  0.1633
   32MOL    C9113793   3.704   4.613   4.822  0.7510 -0.5399 -0.4808
   32MOL    C9213794   3.820   4.514   4.793  0.3348  0.2282 -0.4908
   32MOL    C9313795   3.931   4.587   4.720 -0.3400  0.1830 -0.0023
   32MOL    C9413796   3.883   4.637   4.585 -0.0465 -0.1909  0.1675
   32MOL    C9513797   3.760   4.731   4.601 -0.7014  0.6559  0.3568
   32MOL    C9613798   3.650   4.670   4.686 -0.2892 -0.2718 -0.3452
   32MOL    C9713799   3.506   4.648   4.965  0.7834  0.2713 -0.2234
   32MOL    H9813800   3.646   4.491   4.990  0.4501  1.0210  0.7167
   32MOL    H9913801   3.740   4.700   4.876 -0.4382  0.1547 -0.7811
   32MOL   H10013802   3.790   4.427   4.736  1.1593  0.3084 -1.0587
   32MOL   H10113803   3.861   4.486   4.890 -1.3003  1.6769  0.6523
   32MOL   H10213804   4.018   4.521   4.711 -0.1961  0.5396 -1.3057
   32MOL   H10313805   3.953   4.670   4.787  1.1515 -0.2297  0.0499
   32MOL   H10413806   3.864   4.549   4.523 -0.9817  0.5409 -0.5854
   32MOL   H10513807   3.955   4.701   4.534 -0.7163  0.6305  0.2536
   32MOL   H10613808   3.797   4.825   4.641  0.7132  0.3204 -0.1459
   32MOL   H10713809   3.729   4.758   4.500 -1.4842 -3.2104 -0.5244
   32MOL   H10813810   3.567   4.739   4.702  0.1411 -0.2796  1.9855
   32MOL   H10913811   3.611   4.584   4.631 -0.8286  1.2734 -2.4566
   32MOL   H11013812   3.484   4.721   4.887 -0.2062 -0.7817 -0.9647
   32MOL   H11113813   3.409   4.603   4.985  0.4088 -0.3081 -3.1602
   32MOL   C11213814   3.554   4.716   5.095  0.2425 -0.0541 -0.9044
   32MOL   C11313815   3.567   4.629   5.224  0.0268  0.3417 -0.6678
   32MOL   C11413816   3.433   4.560   5.261  0.0542  0.2050  0.2962
   32MOL   C11513817   3.445   4.470   5.385  0.0297  0.5064  0.1618
   32MOL   C11613818   3.506   4.545   5.499 -0.4662 -0.3811  0.2145
   32MOL   C11713819   3.646   4.607   5.464  0.3283  1.1461  0.1591
   32MOL   C11813820   3.626   4.703   5.345 -0.3887 -0.2282  0.0151
   32MOL   C11913821   3.476   4.847   5.126 -0.4567 -1.2569  0.2766
   32MOL   H12013822   3.657   4.749   5.078  1.3714 -1.7908  2.2280
   32MOL   H12113823   3.636   4.549   5.196  0.9175 -0.6235  3.8201
   32MOL   H12213824   3.415   4.485   5.185 -2.1675  2.7965 -1.8432
   32MOL   H12313825   3.355   4.634   5.284 -1.5503 -1.6222  0.8332
   32MOL   H12413826   3.344   4.446   5.416 -0.1384 -0.4681 -1.1311
   32MOL   H12513827   3.502   4.379   5.366 -1.0627 -0.3663  0.9848
   32MOL   H12613828   3.449   4.634   5.524 -0.0194  0.0970 -0.4520
   32MOL   H12713829   3.509   4.491   5.594 -0.8811  2.8278  2.1090
   32MOL   H12813830   3.677   4.663   5.553  0.0691 -0.1738  1.1002
   32MOL   H12913831   3.721   4.530   5.446  1.0239  1.6268  0.9556
   32MOL   H13013832   3.727   4.738   5.323 -1.0672  1.8794  0.1591
   32MOL   H13113833   3.566   4.784   5.388 -0.2036 -0.2702  0.3495
   32MOL   H13213834   3.514   4.893   5.217 -1.0871 -2.0627  0.9580
   32MOL   H13313835   3.377   4.816   5.159 -0.7242  0.4616  1.1184
   32MOL   C13413836   3.462   4.962   5.022 -0.7621 -0.2540 -0.4774
   32MOL   C13513837   3.599   5.012   4.980 -0.4790 -0.1965  0.5912
   32MOL   C13613838   3.691   5.082   5.087 -0.2411 -0.1191 -0.1076
   32MOL   C13713839   3.836   5.106   5.032  0.2633 -0.3750  0.5465
   32MOL   C13813840   3.826   5.207   4.921  0.1353 -0.1126  0.4816
   32MOL   C13913841   3.734   5.147   4.808 -0.4436 -1.5904  0.1460
   32MOL   C14013842   3.595   5.105   4.855 -0.3811 -0.7937 -0.6810
   32MOL   C14113843   3.365   5.075   5.079 -0.6220  0.4342 -0.2811
   32MOL   H14213844   3.427   4.919   4.928 -1.5257 -2.4543  0.7763
   32MOL   H14313845   3.655   4.921   4.960 -1.4299 -0.5698 -0.4051
   32MOL   H14413846   3.646   5.170   5.132  0.5127  1.5785 -2.5824
   32MOL   H14513847   3.704   5.012   5.170 -1.4643 -1.8359 -1.2964
   32MOL   H14613848   3.884   5.016   4.993 -1.3449 -1.0293  0.0297
   32MOL   H14713849   3.908   5.146   5.104  0.3004 -0.1149  0.3658
   32MOL   H14813850   3.798   5.304   4.963  3.7805  2.3939 -2.4956
   32MOL   H14913851   3.929   5.224   4.888 -1.3800  1.9139 -3.5032
   32MOL   H15013852   3.781   5.059   4.762 -0.9120 -1.5799 -0.3586
   32MOL   H15113853   3.718   5.227   4.737  0.0297  0.6730  2.5267
   32MOL   H15213854   3.545   5.196   4.888  0.1026 -1.5515  2.3498
   32MOL   H15313855   3.523   5.075   4.780 -2.2935  0.0466  0.7870
   32MOL   H15413856   3.362   5.164   5.016 -0.5559 -0.7815 -2.0406
   32MOL   H15513857   3.422   5.108   5.166 -0.7759  1.9005 -0.7263
   32MOL   C15613858   3.220   5.038   5.118  0.4607 -0.0456  0.7324
   32MOL   C15713859   3.149   4.987   4.982 -0.4333 -0.8496 -0.0807
   32MOL   C15813860   3.156   4.832   4.965  0.5855 -0.4890  0.0523
   32MOL   C15913861   3.095   4.776   4.837  0.4614 -0.2816 -0.2263
   32MOL   C16013862   2.942   4.826   4.822 -0.2218  0.1715 -0.2527
   32MOL   C16113863   2.925   4.970   4.846  0.1851 -0.1653 -0.0650
   32MOL   C16213864   2.998   5.026   4.970 -0.7521 -0.1497  0.1153
   32MOL   C16313865   3.154   5.154   5.189  0.0253 -0.4794  0.4177
   32MOL   H16413866   3.211   4.951   5.183  2.7381 -0.9904 -0.1373
   32MOL   H16513867   3.189   5.044   4.898 -1.2766 -0.5058 -0.2537
   32MOL   H16613868   3.258   4.793   4.968  0.2564 -1.2664  1.5066
   32MOL   H16713869   3.109   4.791   5.055  0.1120  0.6315  0.3247
   32MOL   H16813870   3.149   4.807   4.747 -1.6003  3.0841 -0.4058
   32MOL   H16913871   3.089   4.667   4.840 -0.1486 -0.2927 -1.4105
   32MOL   H17013872   2.880   4.776   4.895 -0.9055  0.7533 -0.4296
   32MOL   H17113873   2.898   4.800   4.726 -0.1257 -1.6578  0.1800
   32MOL   H17213874   2.822   5.000   4.864  0.9592  2.3798  0.3448
   32MOL   H17313875   2.956   5.032   4.762  0.6110 -3.6124 -2.5426
   32MOL   H17413876   2.985   5.135   4.972  1.7843  0.1689  1.9752
   32MOL   H17513877   2.948   4.999   5.063  0.9191 -0.4794  0.9339
   32MOL   H17613878   3.050   5.126   5.201 -0.5286  2.0158  1.7696
   32MOL   H17713879   3.155   5.239   5.122  0.1763 -0.8139 -0.0063
   32MOL   C17813880   3.208   5.199   5.336 -0.0666  0.1772  0.0397
   32MOL   C17913881   3.116   5.311   5.392 -0.3809 -0.3072  0.0514
   32MOL   C18013882   2.962   5.283   5.390 -0.0492 -0.2489  0.4163
   32MOL   C18113883   2.884   5.395   5.464  0.1944 -0.0584  0.6318
   32MOL   C18213884   2.923   5.538   5.409  0.1126  0.6080  0.2611
   32MOL   C18313885   3.074   5.563   5.402  0.1982 -0.2736  1.0870
   32MOL   C18413886   3.154   5.451   5.336  0.1771 -0.0177  0.5704
   32MOL   C18513887   3.224   5.073   5.427  0.1309 -0.2293  0.1458
   32MOL   H18613888   3.302   5.252   5.322 -0.6339  0.4024 -3.2028
   32MOL   H18713889   3.152   5.305   5.495  0.8207  2.0359 -0.2256
   32MOL   H18813890   2.920   5.271   5.291 -0.1623 -2.9189  0.7682
   32MOL   H18913891   2.946   5.180   5.420  0.2522 -0.0720  1.2112
   32MOL   H19013892   2.916   5.406   5.568  0.3639  2.0613  0.3789
   32MOL   H19113893   2.777   5.379   5.450  0.2114 -0.7325  1.2367
   32MOL   H19213894   2.885   5.536   5.306 -1.4977 -2.6378  0.8609
   32MOL   H19313895   2.879   5.615   5.473  1.1125  0.3000  1.3214
   32MOL   H19413896   3.106   5.571   5.506  1.7286 -0.0834  0.6180
   32MOL   H19513897   3.098   5.656   5.350 -0.2408 -0.3205  0.8020
   32MOL   H19613898   3.125   5.468   5.232  2.3899  2.3411  0.2749
   32MOL   H19713899   3.260   5.473   5.346  0.1755 -0.3244  1.3004
   32MOL   H19813900   3.127   5.028   5.448  0.7990 -1.1706  1.2245
   32MOL   H19913901   3.281   5.003   5.366  1.6360 -0.0782  1.3605
   32MOL   C20013902   3.310   5.100   5.557  0.0632  0.4507 -0.3234
   32MOL   C20113903   3.271   5.004   5.669  0.1928  0.3927  0.1130
   32MOL   C20213904   3.136   5.042   5.727  0.1975 -0.3159 -0.0720
   32MOL   C20313905   3.105   4.951   5.846  0.2085 -0.9641  0.7160
   32MOL   C20413906   3.090   4.808   5.791  0.3701 -0.2530 -0.3002
   32MOL   C20513907   3.225   4.757   5.736 -0.0844  0.1207  1.1417
   32MOL   C20613908   3.288   4.850   5.632 -0.0560  0.9890  0.1281
   32MOL   C20713909   3.462   5.094   5.521 -0.0592  0.3220 -0.1206
   32MOL   H20813910   3.285   5.200   5.592  3.0762  0.4960  1.8923
   32MOL   H20913911   3.344   5.029   5.746 -0.9187  1.6885  0.7621
   32MOL   H21013912   3.068   5.019   5.645 -0.6993  1.4685  0.1434
   32MOL   H21113913   3.126   5.144   5.764  3.4626  0.1042 -0.2103
   32MOL   H21213914   3.179   4.959   5.925  1.4208  0.0976 -0.4890
   32MOL   H21313915   3.015   4.993   5.891  0.9400 -0.0232  1.3303
   32MOL   H21413916   3.038   4.742   5.861  0.3231 -0.1909 -0.2772
   32MOL   H21513917   3.028   4.807   5.702  2.0955 -1.1771 -1.5244
   32MOL   H21613918   3.292   4.746   5.821 -1.1499  0.6007  2.0559
   32MOL   H21713919   3.218   4.654   5.702 -1.6675  0.3297  0.8122
   32MOL   H21813920   3.393   4.830   5.612 -0.5941 -0.1336 -1.6907
   32MOL   H21913921   3.243   4.826   5.536 -0.7586  1.2130  0.3964
   32MOL   H22013922   3.492   4.992   5.497 -0.7280  0.4610 -1.6071
   32MOL   H22113923   3.475   5.145   5.426  1.0377  0.0532 -0.1177
   32MOL   C22213924   3.550   5.173   5.620 -0.3730 -0.8792  0.4970
   32MOL   C22313925   3.692   5.110   5.638 -0.7981  0.2961 -0.5293
   32MOL   C22413926   3.780   5.113   5.509 -1.4128 -0.1250 -0.5236
   32MOL   C22513927   3.914   5.045   5.542 -0.4468 -0.3306  0.4732
   32MOL   C22613928   3.902   4.904   5.599  0.0674  0.2361  0.4768
   32MOL   C22713929   3.820   4.912   5.727  0.1056  0.0173 -0.1942
   32MOL   C22813930   3.686   4.963   5.695  0.1768 -0.1007 -0.4062
   32MOL   C22913931   3.549   5.320   5.581  0.3859 -0.5421 -0.2320
   32MOL   H23013932   3.503   5.157   5.717  1.0420 -3.8642  0.7305
   32MOL   H23113933   3.741   5.167   5.717 -0.2094 -1.6336  0.5472
   32MOL   H23213934   3.739   5.047   5.431 -1.9543 -1.7871  1.1419
   32MOL   H23313935   3.785   5.211   5.462 -2.9269 -1.1821 -3.0321
   32MOL   H23413936   3.963   5.097   5.624 -0.3392 -1.6939  1.2880
   32MOL   H23513937   3.970   5.044   5.448 -1.3854 -0.1697 -0.0926
   32MOL   H23613938   3.841   4.850   5.527  0.5982  2.5900 -1.8245
   32MOL   H23713939   3.992   4.844   5.614 -0.3188 -1.0835 -2.2078
   32MOL   H23813940   3.871   4.981   5.794 -0.1387  0.2155 -0.2126
   32MOL   H23913941   3.819   4.811   5.768  0.5118 -0.5085 -1.4638
   32MOL   H24013942   3.637   4.891   5.629 -0.4305  0.4714 -0.5783
   32MOL   H24113943   3.625   4.969   5.784  1.0460  1.7064  0.0737
   32MOL   H24213944   3.468   5.358   5.519  0.9793 -0.7537 -1.1296
   32MOL   H24313945   3.632   5.325   5.511  1.8757 -1.4300  1.4079
   32MOL   C24413946   3.571   5.424   5.691 -0.3381  0.7505 -0.1630
   32MOL   C24513947   3.446   5.443   5.785  0.0920  0.2111 -0.4224
   32MOL   C24613948   3.319   5.504   5.720  0.0015  0.4154  0.3481
   32MOL   C24713949   3.203   5.514   5.813  0.6809 -0.2239  0.5622
   32MOL   C24813950   3.230   5.611   5.927 -0.1102  0.1692  0.3897
   32MOL   C24913951   3.356   5.557   5.996 -0.2373 -0.1866 -0.1621
   32MOL   C25013952   3.479   5.532   5.899 -0.5717  0.3259  0.1010
   32MOL   C25113953   3.611   5.557   5.620  0.0228  1.0204  0.4277
   32MOL   H25213954   3.656   5.391   5.751  1.0630  3.5742 -0.5364
   32MOL   H25313955   3.409   5.344   5.814 -0.0651  0.8911  1.7643
   32MOL   H25413956   3.294   5.419   5.656  0.3853 -0.1156  0.9023
   32MOL   H25513957   3.327   5.584   5.646 -0.9246  0.4745  0.3018
   32MOL   H25613958   3.105   5.527   5.768  0.6664 -1.1164  0.3084
   32MOL   H25713959   3.197   5.418   5.865 -0.6114  0.1221  1.0650
   32MOL   H25813960   3.254   5.707   5.883  0.4861 -0.3661 -0.4851
   32MOL   H25913961   3.141   5.630   5.988 -0.5011 -0.9948  0.1944
   32MOL   H26013962   3.334   5.462   6.045  0.1147  0.5048  1.3690
   32MOL   H26113963   3.374   5.624   6.080 -1.5473  0.0464 -0.0552
   32MOL   H26213964   3.513   5.626   5.856 -0.2913 -0.6868 -1.9306
   32MOL   H26313965   3.558   5.495   5.964 -1.7017 -0.0666  1.2816
   32MOL   H26413966   3.547   5.640   5.650 -0.4705  0.9231 -0.3654
   32MOL   H26513967   3.602   5.558   5.512 -1.0893  0.2496  0.5083
   32MOL   C26613968   3.740   5.625   5.669 -0.2305  0.2465 -0.6881
   32MOL   C26713969   3.863   5.548   5.623  0.1558 -0.3906  0.3214
   32MOL   C26813970   3.991   5.570   5.701  0.5578  0.6051 -0.1178
   32MOL   C26913971   4.105   5.482   5.665 -0.3034  0.5061 -0.0570
   32MOL   C27013972   4.137   5.507   5.515  0.2172 -0.5021  0.1276
   32MOL   C27113973   4.014   5.477   5.426 -0.7547 -0.3132 -0.4630
   32MOL   C27213974   3.890   5.557   5.472 -0.2382  0.2717  0.1247
   32MOL   C27313975   3.747   5.775   5.627 -0.7884  0.4153 -0.0109
   32MOL   H27413976   3.736   5.622   5.778 -0.5160 -1.2124 -0.7412
   32MOL   H27513977   3.837   5.444   5.640 -0.9757 -0.2902 -0.7056
   32MOL   H27613978   4.019   5.675   5.709 -0.7707  0.8993  0.8044
   32MOL   H27713979   3.969   5.541   5.804  0.3552  1.5165  0.1066
   32MOL   H27813980   4.074   5.378   5.679 -0.3179  0.5341  0.1201
   32MOL   H27913981   4.194   5.501   5.725 -0.4992  1.3321 -0.0241
   32MOL   H28013982   4.171   5.608   5.492  1.6250 -0.2331  3.1747
   32MOL   H28113983   4.218   5.442   5.483  1.2938  1.8820 -2.1217
   32MOL   H28213984   4.006   5.369   5.437 -3.9796 -0.0480  0.2213
   32MOL   H28313985   4.039   5.509   5.325  0.4354  0.2337 -0.0058
   32MOL   H28413986   3.802   5.514   5.424  0.0232 -1.2611  0.9573
   32MOL   H28513987   3.904   5.659   5.438  0.3860  0.2126  0.2043
   32MOL   H28613988   3.712   5.781   5.524 -1.6030 -0.5598  0.1979
   32MOL   H28713989   3.850   5.808   5.636 -0.8942  1.5279 -2.5790
   32MOL   C28813990   3.666   5.884   5.704 -0.5744  0.1427 -0.1683
   32MOL   C28913991   3.569   5.977   5.626  0.5180  0.0569 -1.3208
   32MOL   C29013992   3.635   6.056   5.521 -0.2427  0.2102  0.7496
   32MOL   C29113993   3.541   6.139   5.432 -0.2076 -0.3196  0.3849
   32MOL   C29213994   3.426   6.051   5.375  0.0146  0.0863  0.3362
   32MOL   C29313995   3.351   5.993   5.490  0.1735  0.0531  0.2896
   32MOL   C29413996   3.442   5.907   5.578 -0.3350 -0.0727 -0.5108
   32MOL   C29513997   3.761   5.963   5.803  0.6999 -0.1187  0.1635
   32MOL   H29613998   3.599   5.830   5.771 -0.0451 -0.3579 -0.0381
   32MOL   H29713999   3.536   6.042   5.707 -2.0360 -1.5262 -1.0438
   32MOL   H29814000   3.712   6.120   5.564  0.6814 -1.3841  1.4583
   32MOL   H29914001   3.692   5.988   5.458  0.6867  0.4854  1.2879
   32MOL   H30014002   3.498   6.222   5.489 -3.2227 -2.2292  0.9977
   32MOL   H30114003   3.598   6.184   5.351 -2.7128  1.7467 -0.3127
   32MOL   H30214004   3.468   5.973   5.311  0.9721  0.7520  0.1467
   32MOL   H30314005   3.357   6.111   5.315  0.8486  0.2364 -0.4867
   32MOL   H30414006   3.272   5.923   5.467  0.5227 -1.1456  2.5325
   32MOL   H30514007   3.324   6.087   5.539 -0.8977  0.1616 -0.5073
   32MOL   H30614008   3.465   5.820   5.516 -1.2752 -0.0338 -0.9201
   32MOL   H30714009   3.389   5.872   5.666 -0.8943 -0.5926 -1.0417
   32MOL   H30814010   3.857   5.916   5.823  1.5413  1.9683  1.0933
   32MOL   H30914011   3.791   6.052   5.750 -0.5105  0.7327  0.8760
   32MOL   C31014012   3.694   6.009   5.944 -0.2202  0.6311  0.5586
   32MOL   C31114013   3.658   5.895   6.042 -0.7819  0.2750 -0.0401
   32MOL   C31214014   3.789   5.822   6.082 -0.2565  0.0352  0.0125
   32MOL   C31314015   3.750   5.695   6.156  0.2055 -0.5892  0.7549
   32MOL   C31414016   3.663   5.734   6.276 -0.7176 -0.2696  0.2181
   32MOL   C31514017   3.545   5.827   6.251 -0.0893 -0.7886  0.6010
   32MOL   C31614018   3.585   5.944   6.170 -0.1064  0.3326  0.2201
   32MOL   C31714019   3.779   6.121   6.018  0.3940 -0.4369 -0.3697
   32MOL   H31814020   3.595   6.051   5.927 -0.1813  0.1939 -0.7955
   32MOL   H31914021   3.599   5.824   5.984  0.3007 -1.1464  0.5822
   32MOL   H32014022   3.854   5.796   5.999  1.9740 -4.4172  2.9778
   32MOL   H32114023   3.864   5.887   6.128 -0.0530 -0.2463  0.0769
   32MOL   H32214024   3.840   5.640   6.180  1.2144  0.2177 -1.0879
   32MOL   H32314025   3.694   5.637   6.083  1.8465 -1.8466  0.4887
   32MOL   H32414026   3.630   5.652   6.340 -1.0956  0.2977  0.7599
   32MOL   H32514027   3.734   5.786   6.341 -2.2655  0.9976  0.9388
   32MOL   H32614028   3.462   5.770   6.209 -1.5377  1.9527 -0.4093
   32MOL   H32714029   3.525   5.864   6.352 -2.2218 -0.6441  0.1511
   32MOL   H32814030   3.656   5.997   6.233  1.1036  0.3153 -1.1042
   32MOL   H32914031   3.500   6.010   6.150 -0.7673  0.0821  2.0765
   32MOL   H33014032   3.884   6.089   6.014  0.9624  0.8312  2.7016
   32MOL   H33114033   3.765   6.125   6.126 -2.1406  1.0299 -0.7186
   32MOL   C33214034   3.773   6.266   5.962 -0.6154  0.3517 -0.1976
   32MOL   C33314035   3.919   6.331   5.937  0.0911 -0.8590 -0.1054
   32MOL   C33414036   3.984   6.408   6.058  0.2886 -0.5714  0.5403
   32MOL   C33514037   4.119   6.467   6.036  0.8970  0.1459  0.2477
   32MOL   C33614038   4.122   6.551   5.908 -0.1972 -0.1809  0.2734
   32MOL   C33714039   4.065   6.480   5.788 -0.3499 -0.5225 -0.4551
   32MOL   C33814040   3.926   6.423   5.812 -0.0249 -0.3713  0.2809
   32MOL   C33914041   3.670   6.360   6.052  0.1401 -0.1893 -0.2562
   32MOL   H34014042   3.730   6.261   5.862 -0.0702  1.4000 -0.4957
   32MOL   H34114043   3.985   6.245   5.923 -0.3673 -1.4627  1.3741
   32MOL   H34214044   3.919   6.480   6.106  1.2956 -0.1572  1.3051
   32MOL   H34314045   3.989   6.341   6.144 -1.1345  0.3179  1.3237
   32MOL   H34414046   4.147   6.526   6.123  0.8968 -0.2948  0.5430
   32MOL   H34514047   4.186   6.382   6.024  1.2977  0.2651  1.5820
   32MOL   H34614048   4.067   6.644   5.926 -0.2919 -0.5612  1.9645
   32MOL   H34714049   4.225   6.584   5.891  0.2939  0.2419  3.6874
   32MOL   H34814050   4.128   6.395   5.761  1.2292  0.9329 -1.5101
   32MOL   H34914051   4.064   6.551   5.705  1.5653 -0.1204 -0.1625
   32MOL   H35014052   3.891   6.379   5.719 -1.7906  0.1043  0.6999
   32MOL   H35114053   3.854   6.503   5.830  0.9187  0.8436 -1.2335
   32MOL   H35214054   3.689   6.463   6.023  2.4395  0.0891  2.0711
   32MOL   H35314055   3.712   6.365   6.152 -0.3031  0.9505 -0.1198
   32MOL   C35414056   3.515   6.332   6.063  0.4865 -0.0260  0.1820
   32MOL   C35514057   3.454   6.334   5.919 -0.0584 -0.3249  0.3043
   32MOL   C35614058   3.447   6.472   5.852 -0.1123  0.5327  0.5834
   32MOL   C35714059   3.407   6.453   5.705  0.5628 -0.2835  0.1656
   32MOL   C35814060   3.264   6.392   5.698 -0.7922  0.3415  0.1278
   32MOL   C35914061   3.245   6.253   5.774  0.5035 -0.6802 -0.8921
   32MOL   C36014062   3.314   6.261   5.911  0.5895 -0.7255 -0.1370
   32MOL   C36114063   3.454   6.438   6.163  0.6920  0.0585 -0.3975
   32MOL   H36214064   3.500   6.233   6.107 -3.8353  0.0713 -0.7890
   32MOL   H36314065   3.521   6.284   5.850 -0.7065  1.5731 -1.7706
   32MOL   H36414066   3.547   6.513   5.861  0.1091  0.2403 -0.4761
   32MOL   H36514067   3.381   6.544   5.900  0.1215  1.5158 -0.5758
   32MOL   H36614068   3.402   6.551   5.657  2.1369 -0.3045 -0.0676
   32MOL   H36714069   3.476   6.391   5.648 -1.3477 -1.2013 -1.2168
   32MOL   H36814070   3.183   6.458   5.730 -2.9515 -2.2901  0.2935
   32MOL   H36914071   3.247   6.366   5.593 -1.4137 -1.6757  0.7085
   32MOL   H37014072   3.144   6.213   5.783 -0.4929  1.3322 -2.6104
   32MOL   H37114073   3.308   6.181   5.722  0.4737 -0.7810 -0.7903
   32MOL   H37214074   3.321   6.158   5.948 -0.2777 -0.2559  1.3891
   32MOL   H37314075   3.244   6.299   5.985  1.1531 -1.8542  0.9844
   32MOL   H37414076   3.355   6.460   6.122  1.9829  0.3519 -3.4231
   32MOL   H37514077   3.512   6.529   6.150  2.9182 -1.1174  0.9721
   32MOL   C37614078   3.438   6.409   6.318 -0.7809 -0.3295 -0.1648
   32MOL   C37714079   3.410   6.536   6.400 -0.0644  0.9090 -0.2641
   32MOL   C37814080   3.297   6.627   6.346 -0.3602  0.3986 -0.1520
   32MOL   C37914081   3.291   6.765   6.412 -0.5101  0.1090  0.2295
   32MOL   C38014082   3.427   6.834   6.435  1.0975  0.0796 -0.2083
   32MOL   C38114083   3.524   6.738   6.507  0.5153 -0.4085  0.6345
   32MOL   C38214084   3.548   6.614   6.417  0.0618  0.0818 -0.0673
   32MOL   C38314085   3.342   6.288   6.345  0.0799  0.3670  0.1910
   32MOL   H38414086   3.536   6.372   6.347 -1.3465 -2.1628 -0.5180
   32MOL   H38514087   3.392   6.505   6.503 -0.3126  0.9058 -0.3076
   32MOL   H38614088   3.321   6.630   6.239 -0.2635 -0.7832 -0.1710
   32MOL   H38714089   3.202   6.576   6.360 -1.6374  2.9274  0.6006
   32MOL   H38814090   3.240   6.765   6.508 -1.5935  0.0336 -0.3485
   32MOL   H38914091   3.222   6.823   6.350 -0.4756 -0.4008 -0.2843
   32MOL   H39014092   3.476   6.862   6.342 -0.0571 -0.5723 -1.0273
   32MOL   H39114093   3.405   6.916   6.503  0.5932 -0.2345  0.0081
   32MOL   H39214094   3.620   6.788   6.514  0.6590 -0.5778 -0.0726
   32MOL   H39314095   3.497   6.710   6.609 -1.5435  2.1924  0.8585
   32MOL   H39414096   3.602   6.635   6.324  0.4334  0.6170  0.2674
   32MOL   H39514097   3.614   6.548   6.473  2.3800  1.4066 -1.1649
   32MOL   H39614098   3.348   6.209   6.270 -1.2848  1.6165 -1.2713
   32MOL   H39714099   3.239   6.318   6.326  0.1328 -1.3393 -3.1383
   32MOL   C39814100   3.359   6.228   6.485  0.8254  0.7576 -0.9640
   32MOL   C39914101   3.234   6.145   6.531  0.2355 -0.6537 -0.4858
   32MOL   C40014102   3.131   6.241   6.593  0.2676  0.0353  0.3596
   32MOL   C40114103   3.005   6.173   6.647 -0.2645 -0.3442  0.2294
   32MOL   C40214104   2.932   6.091   6.536 -0.1677  0.7989 -0.3942
   32MOL   C40314105   3.037   5.985   6.485  0.3240 -0.4882  0.3148
   32MOL   C40414106   3.163   6.053   6.422 -0.0474 -0.2404 -0.0543
   32MOL   C40514107   3.497   6.148   6.496  0.0499  0.2902 -0.4788
   32MOL   H40614108   3.380   6.309   6.555 -1.8353  1.5805 -1.0291
   32MOL   H40714109   3.263   6.079   6.612  0.7626 -1.5387 -1.3835
   32MOL   H40814110   3.097   6.296   6.505  1.1750  1.7784  1.0772
   32MOL   H40914111   3.179   6.306   6.666 -0.2497 -0.2155  0.9293
   32MOL   H41014112   2.935   6.240   6.697 -1.5344 -1.0765 -0.5338
   32MOL   H41114113   3.038   6.106   6.726  4.1638  2.9682  1.4250
   32MOL   H41214114   2.904   6.164   6.460  1.4647  0.4343 -1.3516
   32MOL   H41314115   2.837   6.049   6.569 -0.0788  1.9015  1.3277
   32MOL   H41414116   3.074   5.926   6.569 -0.0062 -1.4902 -0.2392
   32MOL   H41514117   2.989   5.920   6.412 -0.8874 -0.1891  0.8307
   32MOL   H41614118   3.246   5.985   6.405 -0.3106 -0.8924  1.2870
   32MOL   H41714119   3.138   6.122   6.341 -1.0200 -1.8295 -1.1399
   32MOL   H41814120   3.481   6.041   6.503  4.1626 -0.3631 -0.0960
   32MOL   H41914121   3.555   6.138   6.404  0.0992  0.0906 -0.4258
   32MOL   C42014122   3.595   6.203   6.602  0.0284  0.2094  0.4844
   32MOL   C42114123   3.740   6.160   6.580  0.0647 -0.2801 -0.2636
   32MOL   C42214124   3.814   6.233   6.459  0.0385 -0.4230 -0.4435
   32MOL   C42314125   3.966   6.202   6.455  0.4863  0.1004 -0.5599
   32MOL   C42414126   3.987   6.049   6.455  0.7596 -0.7857 -0.1436
   32MOL   C42514127   3.917   5.982   6.576 -0.6225  0.6055  0.3274
   32MOL   C42614128   3.769   6.007   6.569  0.3254  0.8058 -0.8738
   32MOL   C42714129   3.545   6.175   6.746 -0.2434  0.1863 -0.0398
   32MOL   H42814130   3.608   6.311   6.594 -0.4741  0.2683  0.4530
   32MOL   H42914131   3.788   6.187   6.674 -1.4695  1.2075  0.1067
   32MOL   H43014132   3.769   6.193   6.368  0.7884 -1.0112 -0.5617
   32MOL   H43114133   3.812   6.342   6.457  2.2256 -0.3644 -0.0199
   32MOL   H43214134   4.015   6.253   6.372  3.2058  0.7291  1.3408
   32MOL   H43314135   3.990   6.240   6.555 -1.9384 -0.3085  0.1985
   32MOL   H43414136   4.094   6.028   6.452  0.5640 -1.8528  0.0893
   32MOL   H43514137   3.947   6.012   6.361 -0.2383 -0.1485  0.0265
   32MOL   H43614138   3.964   6.018   6.667  0.1813  3.0170 -0.9909
   32MOL   H43714139   3.924   5.874   6.584  0.5184  0.6836  0.4227
   32MOL   H43814140   3.729   5.978   6.471 -1.2398  0.8742 -0.2657
   32MOL   H43914141   3.730   5.951   6.654  2.5638 -1.0492 -1.0092
   32MOL   H44014142   3.498   6.077   6.751  0.8743 -0.4712 -1.9839
   32MOL   H44114143   3.609   6.203   6.830  0.9476 -0.3403 -0.7508
   32MOL   H44214144   3.460   6.241   6.763 -0.8696 -0.3562 -1.0690
   33MOL     C114145   0.684   5.483   1.723 -0.0059 -0.4703 -0.4322
   33MOL     C214146   0.552   5.425   1.790  0.3053  0.0337  0.3190
   33MOL     C314147   0.567   5.276   1.826  0.0649 -0.2953  0.3099
   33MOL     C414148   0.434   5.215   1.878 -0.5767 -0.3832  0.2921
   33MOL     C514149   0.320   5.246   1.781 -0.2898  0.2794 -0.2516
   33MOL     C614150   0.303   5.399   1.772  0.4748  0.4326  0.1795
   33MOL     C714151   0.427   5.458   1.711 -0.0622  0.0188  0.4391
   33MOL     C814152   0.681   5.635   1.715  0.0803 -0.7641  0.2533
   33MOL     H914153   0.772   5.456   1.781  1.2737  1.9025 -1.2012
   33MOL    H1014154   0.550   5.479   1.885  2.0561  0.1852  0.2891
   33MOL    H1114155   0.614   5.228   1.740  0.6574 -0.1754  0.5654
   33MOL    H1214156   0.637   5.277   1.910 -1.6477 -0.0399  1.7665
   33MOL    H1314157   0.416   5.260   1.976  2.4519 -0.4260  0.9263
   33MOL    H1414158   0.458   5.109   1.887 -0.0303 -0.4770 -2.0361
   33MOL    H1514159   0.227   5.195   1.808 -0.1583 -1.1077 -2.2911
   33MOL    H1614160   0.344   5.206   1.682 -1.9773  1.8652 -1.3452
   33MOL    H1714161   0.217   5.425   1.711  0.8955  1.2356 -0.0739
   33MOL    H1814162   0.291   5.439   1.873  1.2043 -0.9617  0.8313
   33MOL    H1914163   0.398   5.563   1.712  1.3660  0.4244  1.0749
   33MOL    H2014164   0.436   5.438   1.605  0.0714  1.0594  0.2430
   33MOL    H2114165   0.705   5.668   1.816  0.7553  0.4652 -0.3063
   33MOL    H2214166   0.581   5.678   1.701  0.3768 -0.4943 -1.1131
   33MOL    H2314167   0.700   5.430   1.629 -0.0347 -0.2153 -0.5799
   33MOL    C2414168   0.786   5.695   1.613  0.2045 -0.1500 -0.3371
   33MOL    C2514169   0.717   5.742   1.484  0.0273 -0.3183 -0.0516
   33MOL    C2614170   0.640   5.878   1.486 -0.2300 -0.0027  0.2297
   33MOL    C2714171   0.616   5.918   1.338 -0.7172  1.0109  0.5208
   33MOL    C2814172   0.529   5.812   1.275 -0.3656 -0.9729 -0.0847
   33MOL    C2914173   0.584   5.673   1.274 -0.4167 -0.5109  0.2851
   33MOL    C3014174   0.627   5.633   1.416 -0.1548  0.5487  0.0466
   33MOL    C3114175   0.884   5.797   1.680 -0.1920 -0.6812  0.4489
   33MOL    H3214176   0.852   5.613   1.583  1.9290  1.2543 -0.4543
   33MOL    H3314177   0.802   5.766   1.419  0.7272 -0.1194  0.9222
   33MOL    H3414178   0.696   5.956   1.537  2.8038 -2.7375  1.2332
   33MOL    H3514179   0.546   5.867   1.541 -0.1076 -0.3680  0.3672
   33MOL    H3614180   0.573   6.018   1.344  3.3042  2.8643  0.6261
   33MOL    H3714181   0.713   5.922   1.289 -0.8198  0.5818  0.2782
   33MOL    H3814182   0.506   5.829   1.170 -1.0164  0.1853  0.2371
   33MOL    H3914183   0.433   5.801   1.324  0.1865 -0.5743  1.1088
   33MOL    H4014184   0.501   5.609   1.243  0.7656 -1.2033 -1.5172
   33MOL    H4114185   0.666   5.667   1.202  0.2583  0.3047  0.9754
   33MOL    H4214186   0.535   5.621   1.473 -1.7018  0.5938 -2.3341
   33MOL    H4314187   0.678   5.537   1.423 -0.9897  0.0604 -0.4477
   33MOL    H4414188   0.835   5.876   1.737  0.2583 -1.2129  1.5917
   33MOL    H4514189   0.934   5.847   1.597 -0.5816  1.0798  1.2472
   33MOL    C4614190   0.996   5.732   1.769  1.0150  1.3514  0.3203
   33MOL    C4714191   1.045   5.816   1.886 -1.1159 -0.6655 -1.0847
   33MOL    C4814192   0.944   5.858   1.993  0.0920  0.4749 -1.0834
   33MOL    C4914193   1.006   5.924   2.120 -0.0900 -0.2219 -0.5408
   33MOL    C5014194   1.093   6.047   2.074 -0.3995 -0.2830 -0.5487
   33MOL    C5114195   1.189   6.010   1.960  0.6305  0.4623  0.3905
   33MOL    C5214196   1.120   5.939   1.842 -0.1119 -0.1848 -0.6160
   33MOL    C5314197   1.103   5.665   1.682 -0.1280 -0.2993 -0.0488
   33MOL    H5414198   0.949   5.648   1.822  1.6592 -0.3118 -1.6963
   33MOL    H5514199   1.118   5.747   1.929 -1.2314 -0.3697 -0.4110
   33MOL    H5614200   0.864   5.922   1.955 -2.8194 -2.2936  0.1655
   33MOL    H5714201   0.877   5.778   2.022  1.2994 -0.3295 -0.4564
   33MOL    H5814202   1.084   5.858   2.157  0.2382  0.3560 -0.1936
   33MOL    H5914203   0.936   5.954   2.198  0.5388  0.6487 -0.3037
   33MOL    H6014204   1.014   6.114   2.041  1.0165  0.0653 -3.2935
   33MOL    H6114205   1.150   6.086   2.159 -0.2711 -0.1748 -0.6845
   33MOL    H6214206   1.259   5.947   2.015  0.0019  0.5601  1.3064
   33MOL    H6314207   1.237   6.100   1.922  0.6124  0.4075  0.2331
   33MOL    H6414208   1.055   6.016   1.801 -0.1083  0.4875  0.5918
   33MOL    H6514209   1.196   5.931   1.765  0.2378 -0.8144 -0.2113
   33MOL    H6614210   1.148   5.754   1.638 -1.2845 -0.5678 -1.8521
   33MOL    H6714211   1.062   5.620   1.591 -2.0346 -1.3410  1.2882
   33MOL    C6814212   1.197   5.561   1.738 -0.5431 -0.4360  0.0561
   33MOL    C6914213   1.123   5.427   1.778  0.4387 -0.2248 -0.1998
   33MOL    C7014214   1.061   5.350   1.656 -0.8362 -0.1768 -0.4190
   33MOL    C7114215   0.977   5.225   1.706 -1.0818 -0.4200  0.2419
   33MOL    C7214216   1.078   5.137   1.776  0.0245  1.1214  0.6771
   33MOL    C7314217   1.125   5.206   1.906  0.6878 -0.3469 -0.4301
   33MOL    C7414218   1.213   5.332   1.866  0.5196 -0.2086 -0.6998
   33MOL    C7514219   1.324   5.534   1.658 -0.0538 -0.6120  0.1959
   33MOL    H7614220   1.229   5.609   1.831 -3.3185 -0.5042  1.0977
   33MOL    H7714221   1.032   5.465   1.824  1.3177  1.7839 -0.0645
   33MOL    H7814222   1.137   5.323   1.583  0.0732  2.1424 -0.3925
   33MOL    H7914223   1.002   5.420   1.597 -1.1755  1.0995  1.3641
   33MOL    H8014224   0.881   5.246   1.752 -0.6732  1.8210  0.1127
   33MOL    H8114225   0.940   5.171   1.619 -2.2759  1.0672 -0.1976
   33MOL    H8214226   1.156   5.120   1.702 -0.5570  1.7978 -0.0980
   33MOL    H8314227   1.026   5.045   1.801 -0.0038  0.3312 -2.1199
   33MOL    H8414228   1.186   5.142   1.969 -0.3619  0.0739  1.0277
   33MOL    H8514229   1.044   5.244   1.967  1.3822 -0.8998  0.8481
   33MOL    H8614230   1.297   5.293   1.810 -0.1379 -1.7845 -0.6092
   33MOL    H8714231   1.257   5.388   1.949 -0.9658 -0.2853  0.1691
   33MOL    H8814232   1.391   5.481   1.725  0.2441  0.4873  0.7783
   33MOL    H8914233   1.298   5.464   1.578  1.0093  0.9537 -1.5467
   33MOL    C9014234   1.397   5.664   1.595  0.5825 -0.0701 -0.5269
   33MOL    C9114235   1.547   5.661   1.602 -0.2832 -0.0750 -0.5110
   33MOL    C9214236   1.598   5.703   1.749  0.4338  0.3250  0.0547
   33MOL    C9314237   1.756   5.684   1.756  0.9474  0.0718  0.2988
   33MOL    C9414238   1.804   5.547   1.707  0.8133  0.2077  0.0196
   33MOL    C9514239   1.753   5.531   1.562 -0.8336  0.0391 -0.3742
   33MOL    C9614240   1.603   5.526   1.551 -0.3062  0.2006 -0.6676
   33MOL    C9714241   1.342   5.689   1.455  0.6068  0.1029  0.1445
   33MOL    H9814242   1.366   5.752   1.653  0.4170 -1.0321  0.8792
   33MOL    H9914243   1.578   5.742   1.535  0.3415  0.3943  0.3373
   33MOL   H10014244   1.550   5.626   1.808  3.1766 -2.9114 -1.7411
   33MOL   H10114245   1.568   5.802   1.784  0.6486  0.5952 -0.5087
   33MOL   H10214246   1.787   5.704   1.859 -0.3080  1.0341  0.5023
   33MOL   H10314247   1.804   5.767   1.704  1.0989  0.3788  0.9148
   33MOL   H10414248   1.768   5.462   1.766 -2.3063  0.6085 -1.2126
   33MOL   H10514249   1.913   5.537   1.704  0.9379  1.1765  0.9942
   33MOL   H10614250   1.803   5.613   1.510 -1.8306  0.7444 -0.2283
   33MOL   H10714251   1.794   5.434   1.534  2.2716  1.3933 -0.7802
   33MOL   H10814252   1.586   5.494   1.448 -0.5273 -2.2828  0.1094
   33MOL   H10914253   1.576   5.445   1.618  0.9690  1.0217  0.8812
   33MOL   H11014254   1.371   5.597   1.406 -0.7933  0.8174 -2.0964
   33MOL   H11114255   1.233   5.690   1.454  0.5178  0.2905  3.7642
   33MOL   C11214256   1.402   5.787   1.347 -0.4427  0.0086  0.0989
   33MOL   C11314257   1.399   5.939   1.387  0.0655  0.9358 -0.5129
   33MOL   C11414258   1.486   5.985   1.501  0.3583 -0.8972 -0.5712
   33MOL   C11514259   1.485   6.139   1.514  0.0962 -0.5269 -0.4156
   33MOL   C11614260   1.349   6.201   1.537  0.2239  0.0441 -0.3211
   33MOL   C11714261   1.265   6.153   1.419 -0.4944  0.1005  0.2049
   33MOL   C11814262   1.260   5.999   1.403 -0.0211 -0.0221 -0.1306
   33MOL   C11914263   1.358   5.764   1.204  0.0622 -0.1877  0.3103
   33MOL   H12014264   1.510   5.773   1.345 -0.3668  0.1931  2.0600
   33MOL   H12114265   1.440   5.997   1.304  0.1032  0.0937 -1.0840
   33MOL   H12214266   1.592   5.962   1.490  0.2343 -1.1532 -1.2512
   33MOL   H12314267   1.451   5.939   1.593  2.0645  2.1653  1.6898
   33MOL   H12414268   1.551   6.160   1.598 -2.6430  1.9258  1.2260
   33MOL   H12514269   1.526   6.186   1.424  1.0816 -1.2096 -0.3259
   33MOL   H12614270   1.304   6.157   1.626  0.4018 -1.0574 -0.7671
   33MOL   H12714271   1.356   6.309   1.547  1.8477  0.3369 -3.8157
   33MOL   H12814272   1.164   6.188   1.436 -1.3060 -1.3007 -1.6199
   33MOL   H12914273   1.294   6.197   1.324 -0.2178  1.2648  0.8247
   33MOL   H13014274   1.203   5.981   1.312 -1.9233 -0.8721  1.1829
   33MOL   H13114275   1.203   5.956   1.485 -1.3794  1.4531 -0.2818
   33MOL   H13214276   1.264   5.814   1.180 -0.4909 -0.9427  0.8652
   33MOL   H13314277   1.331   5.658   1.197 -1.0925  0.1528 -0.4289
   33MOL   C13414278   1.469   5.792   1.089 -0.6223 -0.0690 -0.0422
   33MOL   C13514279   1.419   5.779   0.942 -0.7049  0.8245  0.2822
   33MOL   C13614280   1.310   5.876   0.907 -0.0019 -0.0385 -0.9258
   33MOL   C13714281   1.258   5.881   0.764 -0.3902 -0.0084 -0.0098
   33MOL   C13814282   1.206   5.740   0.728  0.3582  0.1054  0.3612
   33MOL   C13914283   1.313   5.631   0.761  0.7733  0.0466  0.7601
   33MOL   C14014284   1.368   5.642   0.902  0.1080 -0.3481 -0.0867
   33MOL   C14114285   1.605   5.708   1.100 -0.2312  0.0454 -0.0121
   33MOL   H14214286   1.493   5.898   1.103  0.5588 -0.4889  1.2455
   33MOL   H14314287   1.500   5.808   0.875 -0.2893 -1.1189 -0.0636
   33MOL   H14414288   1.221   5.854   0.966  2.0400 -1.4659  1.7184
   33MOL   H14514289   1.351   5.972   0.939  0.4524 -0.7054  0.5158
   33MOL   H14614290   1.346   5.882   0.699 -1.0615 -4.0787 -1.1388
   33MOL   H14714291   1.186   5.961   0.748  0.5258  0.9695  0.6689
   33MOL   H14814292   1.121   5.710   0.789  1.4055 -2.8785  0.4577
   33MOL   H14914293   1.174   5.726   0.625  0.7411  1.5115  0.0516
   33MOL   H15014294   1.392   5.642   0.687 -0.5489 -1.3926 -0.9167
   33MOL   H15114295   1.277   5.531   0.737  3.0567 -0.4324 -0.8384
   33MOL   H15214296   1.293   5.615   0.976 -1.0409  0.4488 -0.9472
   33MOL   H15314297   1.438   5.559   0.915  1.7792  0.9921 -0.2837
   33MOL   H15414298   1.575   5.606   1.075  1.4011 -0.2154 -0.9915
   33MOL   H15514299   1.632   5.705   1.205 -1.7932 -1.0223  0.3719
   33MOL   C15614300   1.743   5.755   1.033 -0.1601 -1.4580  0.3646
   33MOL   C15714301   1.866   5.662   1.083 -0.1240 -0.1548  0.4379
   33MOL   C15814302   1.887   5.664   1.236  0.3570 -0.6800 -0.1401
   33MOL   C15914303   2.011   5.591   1.265 -0.4419  0.2979  0.0806
   33MOL   C16014304   2.003   5.443   1.210  0.5335 -0.5085 -1.0155
   33MOL   C16114305   1.965   5.432   1.058 -0.6649  0.0508  0.1747
   33MOL   C16214306   1.845   5.519   1.033 -0.6140  0.0333 -0.2300
   33MOL   C16314307   1.769   5.905   1.054  0.4767 -0.2006 -0.1501
   33MOL   H16414308   1.741   5.744   0.924 -0.4415  1.2704  0.0547
   33MOL   H16514309   1.949   5.686   1.017  1.1341 -3.6660  0.6360
   33MOL   H16614310   1.880   5.770   1.256 -1.6035 -0.4628 -1.7815
   33MOL   H16714311   1.801   5.610   1.275  0.9634 -1.0880  0.6456
   33MOL   H16814312   2.087   5.655   1.220 -2.2458  0.9906 -2.1019
   33MOL   H16914313   2.017   5.606   1.373  1.1348  0.7960 -0.0701
   33MOL   H17014314   1.933   5.384   1.269  1.9293  0.0942  1.3014
   33MOL   H17114315   2.102   5.405   1.234  0.4785  0.4573  0.8540
   33MOL   H17214316   1.966   5.326   1.033  2.3992 -0.1981  1.1611
   33MOL   H17314317   2.053   5.463   1.001 -0.0656 -1.0073  0.5151
   33MOL   H17414318   1.803   5.531   0.934 -1.6611  3.1938  0.5317
   33MOL   H17514319   1.758   5.484   1.088  0.0482 -1.1640  0.0924
   33MOL   H17614320   1.877   5.907   1.068  0.2857  1.3209  1.2456
   33MOL   H17714321   1.732   5.941   1.150 -0.7835  0.0221 -0.7057
   33MOL   C17814322   1.715   6.003   0.950 -0.8240  0.2286 -0.4936
   33MOL   C17914323   1.716   6.148   1.012  0.3257  0.6167 -0.0772
   33MOL   C18014324   1.824   6.184   1.121 -0.4676 -0.0787 -0.1805
   33MOL   C18114325   1.825   6.323   1.172 -0.3197  0.0160 -0.4829
   33MOL   C18214326   1.682   6.374   1.199  0.0656 -0.9658 -0.2657
   33MOL   C18314327   1.583   6.352   1.085  0.1400 -0.6271  0.7723
   33MOL   C18414328   1.580   6.209   1.040 -0.7065  1.2928  0.1645
   33MOL   C18514329   1.813   5.998   0.829  0.3427  0.5112 -0.4331
   33MOL   H18614330   1.625   5.967   0.899 -2.3700  2.8977  0.2170
   33MOL   H18714331   1.744   6.214   0.930  1.7771 -1.7915 -1.5727
   33MOL   H18814332   1.808   6.117   1.205 -1.9817 -2.3050 -2.1764
   33MOL   H18914333   1.918   6.157   1.072 -0.5729 -0.5119 -0.1521
   33MOL   H19014334   1.859   6.378   1.084 -0.2274  1.3401  0.3687
   33MOL   H19114335   1.891   6.328   1.259 -2.6499  1.3612  1.2873
   33MOL   H19214336   1.634   6.329   1.286  0.7877  0.1771  0.7383
   33MOL   H19314337   1.681   6.477   1.236 -0.1659 -0.9901 -0.1991
   33MOL   H19414338   1.621   6.413   1.003  2.6912 -3.3269 -0.1228
   33MOL   H19514339   1.484   6.383   1.119 -0.4706 -2.5462  0.8043
   33MOL   H19614340   1.520   6.146   1.106 -0.0501  0.5047  0.0199
   33MOL   H19714341   1.527   6.216   0.944  2.4116 -0.7417 -1.7965
   33MOL   H19814342   1.905   6.040   0.869  1.7427 -1.2103 -1.8177
   33MOL   H19914343   1.839   5.894   0.814 -3.2616 -0.6153  0.5468
   33MOL   C20014344   1.774   6.079   0.699  0.4365  0.1784  0.3608
   33MOL   C20114345   1.895   6.142   0.631  0.1768 -0.0319 -0.3092
   33MOL   C20214346   1.941   6.274   0.705 -0.1306 -0.0977 -0.1153
   33MOL   C20314347   2.070   6.333   0.645 -0.7274  0.6060 -0.1914
   33MOL   C20414348   2.172   6.223   0.625 -0.3174  1.4474 -0.4014
   33MOL   C20514349   2.123   6.105   0.536  0.0150  0.3425  0.5764
   33MOL   C20614350   2.005   6.036   0.603  0.1241 -0.8624 -0.0134
   33MOL   C20714351   1.678   6.000   0.608 -0.0458 -0.3473  0.1680
   33MOL   H20814352   1.722   6.172   0.722  1.9553  1.0529  0.3026
   33MOL   H20914353   1.864   6.181   0.534 -2.2931 -1.9343 -0.3381
   33MOL   H21014354   1.952   6.262   0.812 -0.7571 -1.5887 -0.2126
   33MOL   H21114355   1.860   6.347   0.697 -0.6857 -0.7718 -0.7549
   33MOL   H21214356   2.036   6.380   0.552 -0.3808  0.1180 -0.5661
   33MOL   H21314357   2.120   6.409   0.705  0.0369  0.2179 -0.3395
   33MOL   H21414358   2.252   6.274   0.570 -1.3297  0.3083 -3.0030
   33MOL   H21514359   2.213   6.186   0.719  1.2643 -0.6208 -1.8497
   33MOL   H21614360   2.113   6.141   0.434  0.1466  2.4603  1.2927
   33MOL   H21714361   2.206   6.034   0.542 -0.8738 -0.8986 -1.2697
   33MOL   H21814362   1.968   5.961   0.532  1.7132 -2.0903  0.4387
   33MOL   H21914363   2.034   5.973   0.687  3.0014  0.8817  0.3392
   33MOL   H22014364   1.734   5.922   0.556  1.8273  1.5218 -0.6501
   33MOL   H22114365   1.607   5.942   0.668  0.4244  1.0770  2.1347
   33MOL   C22214366   1.602   6.084   0.497  0.9919  0.1301  0.4962
   33MOL   C22314367   1.573   6.004   0.360  0.2807  0.1942 -0.7833
   33MOL   C22414368   1.472   5.894   0.395  0.2544 -0.4944 -0.6417
   33MOL   C22514369   1.428   5.819   0.267  0.3975  0.6694  0.3488
   33MOL   C22614370   1.546   5.763   0.190  0.3221 -0.1639 -0.0981
   33MOL   C22714371   1.648   5.878   0.162  0.4596 -0.2362  0.4461
   33MOL   C22814372   1.698   5.939   0.289 -0.1762  0.4175  0.4099
   33MOL   C22914373   1.483   6.157   0.570 -0.1965 -0.0940 -0.7665
   33MOL   H23014374   1.666   6.166   0.464 -2.9537  2.6106 -1.3104
   33MOL   H23114375   1.544   6.084   0.291  2.3890  2.5091  0.9215
   33MOL   H23214376   1.522   5.829   0.467  2.0081 -0.5493 -1.8902
   33MOL   H23314377   1.382   5.935   0.441  2.6512  1.3619  2.6151
   33MOL   H23414378   1.371   5.887   0.204  1.2769 -0.7911 -2.1226
   33MOL   H23514379   1.359   5.740   0.295  1.0438  0.4499  1.3339
   33MOL   H23614380   1.587   5.686   0.255 -1.8929 -2.5542 -1.4360
   33MOL   H23714381   1.516   5.716   0.096  0.5797 -0.5579  0.0197
   33MOL   H23814382   1.612   5.960   0.099  1.8356 -0.1804 -0.2812
   33MOL   H23914383   1.725   5.827   0.104 -1.0705 -3.0709  0.8021
   33MOL   H24014384   1.752   5.860   0.341 -2.4033 -2.1843 -1.1413
   33MOL   H24114385   1.775   6.011   0.262  0.4240  0.6878  2.7462
   33MOL   H24214386   1.520   6.198   0.663 -0.8079  0.1837 -0.6447
   33MOL   H24314387   1.404   6.088   0.599  0.6994  0.5773  3.5506
   33MOL   C24414388   1.425   6.271   0.495  0.2702  0.1474  0.1381
   33MOL   C24514389   1.503   6.407   0.510  0.0191 -0.3482 -0.0972
   33MOL   C24614390   1.653   6.412   0.452 -0.1226 -0.1479 -0.8778
   33MOL   C24714391   1.691   6.562   0.434  0.0875 -0.1140  0.8734
   33MOL   C24814392   1.669   6.645   0.561  0.1962 -0.0606 -0.0024
   33MOL   C24914393   1.545   6.625   0.645 -0.2009 -0.0351  0.0505
   33MOL   C25014394   1.506   6.473   0.647  0.3764  0.1817 -0.9289
   33MOL   C25114395   1.272   6.280   0.533  0.2663  0.0322  0.1272
   33MOL   H25214396   1.420   6.240   0.391  0.3203  0.0649  0.1604
   33MOL   H25314397   1.449   6.476   0.445  2.1114  0.6219 -0.8496
   33MOL   H25414398   1.654   6.363   0.355  0.7513  0.2888 -1.0992
   33MOL   H25514399   1.729   6.365   0.515 -2.3668  0.0098  2.0259
   33MOL   H25614400   1.790   6.578   0.391 -0.2325  0.1817  0.2440
   33MOL   H25714401   1.619   6.604   0.363 -1.5323 -1.5851  1.5846
   33MOL   H25814402   1.753   6.625   0.627 -0.0998  0.8336  0.6523
   33MOL   H25914403   1.677   6.751   0.539 -4.2781  0.8660  2.1906
   33MOL   H26014404   1.477   6.691   0.591 -0.3958  0.5340  0.9849
   33MOL   H26114405   1.550   6.667   0.745  0.4410  1.9061 -0.7579
   33MOL   H26214406   1.569   6.410   0.711 -0.8207  2.7738  2.9675
   33MOL   H26314407   1.409   6.468   0.698  0.4446  0.6909 -0.7541
   33MOL   H26414408   1.256   6.368   0.595  0.2279 -1.1865  1.8715
   33MOL   H26514409   1.236   6.205   0.603 -1.0395  0.4342 -0.0906
   33MOL   C26614410   1.163   6.277   0.412 -1.1426  0.3323 -0.9047
   33MOL   C26714411   1.128   6.139   0.361  0.1000  0.0912  0.6119
   33MOL   C26814412   1.039   6.145   0.229 -0.6741 -0.6536  0.2380
   33MOL   C26914413   0.997   6.010   0.176  0.4902  0.8050  0.0786
   33MOL   C27014414   0.931   5.935   0.287 -0.1263  0.6612 -0.1230
   33MOL   C27114415   1.018   5.918   0.413 -0.3693  0.1245  0.5902
   33MOL   C27214416   1.046   6.055   0.464 -0.6567  0.2675 -0.6672
   33MOL   C27314417   1.043   6.364   0.454 -0.4082 -0.3161 -0.5770
   33MOL   H27414418   1.207   6.334   0.331 -1.7814  1.0638 -0.7413
   33MOL   H27514419   1.222   6.088   0.340  0.1729  0.5686 -0.2443
   33MOL   H27614420   0.952   6.207   0.246 -0.6201  0.2520 -2.6003
   33MOL   H27714421   1.092   6.199   0.152 -1.5048 -0.2683 -0.0627
   33MOL   H27814422   1.080   5.950   0.139 -0.0581  0.6747 -0.9905
   33MOL   H27914423   0.929   6.023   0.091  0.7244 -0.2994 -0.2861
   33MOL   H28014424   0.834   5.975   0.314 -0.3172 -0.2424  0.5466
   33MOL   H28114425   0.928   5.830   0.259  0.0707  0.6883 -0.2516
   33MOL   H28214426   1.112   5.869   0.386 -0.4193  0.0083  0.6264
   33MOL   H28314427   0.958   5.853   0.477 -1.7227 -0.2616 -1.0414
   33MOL   H28414428   1.106   6.040   0.553 -1.0582  1.2202 -0.2342
   33MOL   H28514429   0.948   6.095   0.493 -0.4177 -0.6822  1.5420
   33MOL   H28614430   1.031   6.353   0.562  0.2632  0.7960 -0.3815
   33MOL   H28714431   0.947   6.325   0.422  0.1470 -2.1501 -0.0395
   33MOL   C28814432   1.054   6.523   0.428 -0.0344  0.3953 -0.1497
   33MOL   C28914433   0.999   6.601   0.557 -0.8467  0.0760 -0.1753
   33MOL   C29014434   1.043   6.751   0.550  0.1415 -0.2549  0.2753
   33MOL   C29114435   0.985   6.827   0.675 -0.7133 -0.5172  0.0609
   33MOL   C29214436   0.827   6.812   0.674  0.5631 -0.6810  0.5116
   33MOL   C29314437   0.800   6.666   0.708 -0.2807 -0.0703  0.6038
   33MOL   C29414438   0.844   6.589   0.579 -0.6091  0.0215 -0.4447
   33MOL   C29514439   0.988   6.565   0.297 -0.3898 -0.9718 -0.3066
   33MOL   H29614440   1.162   6.541   0.432  0.3354 -1.8675  1.6911
   33MOL   H29714441   1.045   6.557   0.646 -0.6544 -0.3707 -0.4945
   33MOL   H29814442   1.147   6.768   0.524 -0.0421 -0.9486 -0.9357
   33MOL   H29914443   0.995   6.803   0.467 -0.7910  0.5886  1.3260
   33MOL   H30014444   1.033   6.782   0.762 -1.3208 -0.8747  0.2130
   33MOL   H30114445   1.020   6.930   0.668 -0.1230 -0.7212 -0.0045
   33MOL   H30214446   0.778   6.856   0.587 -0.4944  0.0495  1.4686
   33MOL   H30314447   0.782   6.864   0.759 -0.8595 -0.1978 -0.5153
   33MOL   H30414448   0.693   6.659   0.727 -0.5244 -1.3056 -1.0777
   33MOL   H30514449   0.845   6.617   0.794 -0.4991 -2.7599 -0.7679
   33MOL   H30614450   0.786   6.630   0.497 -4.3594  1.0884  2.6044
   33MOL   H30714451   0.822   6.482   0.584 -0.7774  0.0781  0.0728
   33MOL   H30814452   0.882   6.543   0.284 -1.0804  2.3331 -0.6418
   33MOL   H30914453   0.979   6.673   0.305  0.8906 -0.8215 -0.8059
   33MOL   C31014454   1.058   6.531   0.164 -0.0230 -0.1303  0.5387
   33MOL   C31114455   0.972   6.560   0.041 -0.2722  1.0384  0.2870
   33MOL   C31214456   0.881   6.439   0.017 -0.3287  1.0038 -0.3088
   33MOL   C31314457   0.797   6.442   7.664 -0.1763 -0.2233 -0.0583
   33MOL   C31414458   0.720   6.575   7.642  0.2727 -0.4036 -0.8186
   33MOL   C31514459   0.802   6.698   7.672 -0.4449  0.3314 -0.1942
   33MOL   C31614460   0.881   6.682   0.031 -0.3867 -0.4773  0.3358
   33MOL   C31714461   1.186   6.619   0.168 -0.1096 -0.3099  0.0187
   33MOL   H31814462   1.097   6.430   0.164 -2.2183 -0.9948 -0.4367
   33MOL   H31914463   1.045   6.558   7.732 -0.4145 -0.5632  0.1851
   33MOL   H32014464   0.946   6.352   0.021 -0.3872  1.0003  1.0235
   33MOL   H32114465   0.816   6.429   0.105  0.6361  0.0689  0.3130
   33MOL   H32214466   0.722   6.365   7.682  0.1215 -0.2580  1.0333
   33MOL   H32314467   0.849   6.411   7.573  0.7366 -1.9133  1.0284
   33MOL   H32414468   0.683   6.589   7.540 -0.6918  0.4643 -0.3609
   33MOL   H32514469   0.639   6.568   7.715  0.2411  1.6038 -0.6196
   33MOL   H32614470   0.863   6.700   7.582 -1.4445 -0.0974 -0.8947
   33MOL   H32714471   0.736   6.785   7.674  0.7500  1.3670 -3.0457
   33MOL   H32814472   0.812   6.678   0.115  0.0982  2.2403  0.9261
   33MOL   H32914473   0.941   6.771   0.049 -0.9057  0.0301 -0.4373
   33MOL   H33014474   1.258   6.592   0.245  0.3889  2.1494  0.4426
   33MOL   H33114475   1.159   6.723   0.186  1.7645  0.4893 -1.6361
   33MOL   C33214476   1.277   6.625   0.037  0.7587  0.5816  0.0195
   33MOL   C33314477   1.325   6.482   7.758  0.2534  0.6236 -0.3820
   33MOL   C33414478   1.425   6.401   0.071  0.0114  0.0172  0.0777
   33MOL   C33514479   1.434   6.262   0.013 -0.5967 -0.3116 -0.3230
   33MOL   C33614480   1.480   6.269   7.641 -0.1477 -0.3686 -0.8744
   33MOL   C33714481   1.381   6.344   7.553  0.2160  0.5473  0.5336
   33MOL   C33814482   1.358   6.481   7.603  0.0231 -0.1071 -0.7117
   33MOL   C33914483   1.400   6.716   0.076 -0.0251  0.8404  0.2275
   33MOL   H34014484   1.218   6.674   7.733 -1.4282 -0.3636  1.0593
   33MOL   H34114485   1.234   6.423   7.753  1.4299 -1.3348  0.8946
   33MOL   H34214486   1.521   6.451   0.075 -0.8494  1.9459 -2.2667
   33MOL   H34314487   1.369   6.396   0.165 -1.9193  1.2637 -0.9782
   33MOL   H34414488   1.507   6.207   0.073  0.3079  1.9101  0.6895
   33MOL   H34514489   1.336   6.215   0.014 -0.5868 -0.3219  0.3160
   33MOL   H34614490   1.570   6.330   7.640  1.2612 -2.3859  0.7214
   33MOL   H34714491   1.506   6.166   7.621  0.1190 -0.6005  0.6185
   33MOL   H34814492   1.279   6.304   7.554  0.4621 -0.0908  0.2107
   33MOL   H34914493   1.400   6.325   7.447  0.4261  0.6517  0.5539
   33MOL   H35014494   1.279   6.528   7.546 -0.1304 -2.0715 -2.1659
   33MOL   H35114495   1.450   6.533   7.577 -0.4634  1.6659  1.0198
   33MOL   H35214496   1.465   6.658   0.141 -2.1835  0.6452  2.3082
   33MOL   H35314497   1.377   6.795   0.148  0.3941  0.9480  0.2412
   33MOL   C35414498   1.480   6.787   7.729 -0.3159  0.3865  0.1296
   33MOL   C35514499   1.629   6.835   7.770  0.0191 -0.2957 -1.0070
   33MOL   C35614500   1.728   6.718   7.769 -0.7190  0.2148  0.0014
   33MOL   C35714501   1.867   6.782   0.009 -0.1627  0.0377 -0.0222
   33MOL   C35814502   1.881   6.858   0.142  0.0940 -0.7344 -0.3205
   33MOL   C35914503   1.777   6.970   0.143 -0.4098  1.1296  0.2174
   33MOL   C36014504   1.636   6.925   0.120 -0.3464 -0.0727  0.2895
   33MOL   C36114505   1.402   6.914   7.685 -0.2303 -0.1434 -0.0487
   33MOL   H36214506   1.515   6.708   7.662 -0.7718 -0.5762  1.0187
   33MOL   H36314507   1.659   6.898   7.686 -0.1703  2.7094  1.1163
   33MOL   H36414508   1.720   6.650   7.684 -1.6251  1.5812 -1.0367
   33MOL   H36514509   1.717   6.659   0.087 -2.7616 -1.1281 -1.1030
   33MOL   H36614510   1.954   6.717   0.011  0.3185  0.6629 -0.3039
   33MOL   H36714511   1.884   6.838   7.690  1.6036  0.3452  0.4699
   33MOL   H36814512   1.875   6.793   0.229 -0.5587 -2.5128 -1.6529
   33MOL   H36914513   1.978   6.907   0.148 -0.0314 -0.4937 -0.2496
   33MOL   H37014514   1.794   7.020   0.238  0.4696 -0.2023  0.7881
   33MOL   H37114515   1.798   7.047   0.068  2.1035 -0.1655 -0.4868
   33MOL   H37214516   1.582   7.018   0.104  0.7454  0.7999  1.5354
   33MOL   H37314517   1.604   6.881   0.215  0.6092 -0.9109  0.2302
   33MOL   H37414518   1.471   6.997   7.673  0.8432 -0.4220  3.7620
   33MOL   H37514519   1.335   6.942   7.766  0.1992  0.5984  0.0486
   33MOL   C37614520   1.313   6.893   7.563 -0.3307 -0.6341 -0.6168
   33MOL   C37714521   1.170   6.965   7.579 -0.4767 -0.0824  0.7400
   33MOL   C37814522   1.072   6.939   7.465  0.0859  0.1956 -0.5121
   33MOL   C37914523   0.932   6.996   7.488  0.7392  0.1022  0.0643
   33MOL   C38014524   0.937   7.144   7.521  0.8066  0.2012 -0.6386
   33MOL   C38114525   1.023   7.166   7.640 -0.3202  0.6389  0.0308
   33MOL   C38214526   1.166   7.114   7.616  0.0688  0.7590  0.1851
   33MOL   C38314527   1.372   6.939   7.431 -0.8580 -0.3405  0.3822
   33MOL   H38414528   1.302   6.784   7.567  0.2854 -0.6685  0.5566
   33MOL   H38514529   1.124   6.917   7.666  1.0223 -3.3832 -0.2206
   33MOL   H38614530   1.104   6.968   7.365  2.3181 -1.7268 -0.4252
   33MOL   H38714531   1.057   6.831   7.461 -1.6541  0.4316 -0.5157
   33MOL   H38814532   0.877   6.935   7.560  0.5335 -0.0542 -0.2272
   33MOL   H38914533   0.870   6.984   7.399 -1.4199  1.5281  1.3261
   33MOL   H39014534   0.970   7.193   7.429 -1.9565  1.9174 -0.7985
   33MOL   H39114535   0.838   7.180   7.549  0.9684  0.0210  0.1778
   33MOL   H39214536   1.028   7.270   7.673  0.2382  0.0938  1.6600
   33MOL   H39314537   0.987   7.116   7.729 -1.0968 -0.3474 -0.8226
   33MOL   H39414538   1.220   7.162   7.534 -0.1022 -1.7710 -1.4783
   33MOL   H39514539   1.227   7.117   7.706  1.0488 -0.5042 -0.4074
   33MOL   H39614540   1.363   7.047   7.442  2.4335  0.2838 -2.2650
   33MOL   H39714541   1.303   6.904   7.354 -0.5972 -1.2178  0.5415
   33MOL   C39814542   1.516   6.893   7.394  0.6835  0.4127 -0.7403
   33MOL   C39914543   1.518   6.739   7.353 -0.2784  0.0743 -0.1108
   33MOL   C40014544   1.451   6.702   7.219  0.5141 -0.0744 -0.0731
   33MOL   C40114545   1.461   6.545   7.212  0.4260  0.4476 -0.1741
   33MOL   C40214546   1.599   6.488   7.229  0.1819  0.5849  0.2451
   33MOL   C40314547   1.666   6.536   7.360 -0.0550  0.2306  0.1880
   33MOL   C40414548   1.660   6.687   7.370  0.3334  0.1402 -0.9277
   33MOL   C40514549   1.582   6.993   7.304 -0.0442  0.1766  0.0285
   33MOL   H40614550   1.565   6.912   7.489  0.6640  1.4600 -0.9341
   33MOL   H40714551   1.453   6.690   7.426  0.8846  1.6128  2.0381
   33MOL   H40814552   1.498   6.750   7.133  0.2613 -0.1851 -0.2723
   33MOL   H40914553   1.343   6.721   7.219  0.8221  1.9386 -2.1783
   33MOL   H41014554   1.424   6.500   7.120 -1.5108 -2.7169  2.0636
   33MOL   H41114555   1.413   6.506   7.302  1.1612  0.4952  0.2441
   33MOL   H41214556   1.663   6.519   7.147 -1.4704  1.2963 -0.7916
   33MOL   H41314557   1.584   6.380   7.229 -0.6417  0.6946 -0.4024
   33MOL   H41414558   1.621   6.488   7.446 -0.2273  0.4969  0.2497
   33MOL   H41514559   1.764   6.489   7.363 -0.1320  0.1001  0.6344
   33MOL   H41614560   1.691   6.711   7.472 -2.5299  0.8229 -0.1838
   33MOL   H41714561   1.738   6.728   7.306  1.7737  0.6456  1.0908
   33MOL   H41814562   1.665   6.947   7.250 -0.7321 -1.1818  0.1086
   33MOL   H41914563   1.512   7.026   7.228  0.5291 -0.5704 -0.8345
   33MOL   C42014564   1.641   7.120   7.372 -0.1323 -0.7035 -0.0880
   33MOL   C42114565   1.638   7.252   7.291  0.4009  0.0827 -0.3713
   33MOL   C42214566   1.725   7.262   7.169  0.1049  0.5380  0.0481
   33MOL   C42314567   1.700   7.386   7.081  0.2687 -1.0531 -0.4875
   33MOL   C42414568   1.716   7.507   7.161  0.0080  0.1178 -0.1879
   33MOL   C42514569   1.639   7.506   7.299 -0.3082  0.1483  0.2407
   33MOL   C42614570   1.669   7.381   7.379  0.7884  0.3608  0.6031
   33MOL   C42714571   1.768   7.082   7.449 -0.2740  0.8183 -0.8511
   33MOL   H42814572   1.560   7.149   7.438  0.6061 -0.4589  0.7229
   33MOL   H42914573   1.534   7.270   7.265  0.7041  4.5876  1.1601
   33MOL   H43014574   1.830   7.258   7.200  0.1661 -2.1799 -0.3706
   33MOL   H43114575   1.702   7.176   7.107 -0.7364  1.1149 -0.4420
   33MOL   H43214576   1.773   7.374   7.001  1.4717 -0.7855  0.5630
   33MOL   H43314577   1.602   7.388   7.032 -0.7631 -1.3919  1.5167
   33MOL   H43414578   1.690   7.597   7.106 -1.2707 -0.1874 -0.0865
   33MOL   H43514579   1.822   7.512   7.187 -0.8008  0.4836  3.2163
   33MOL   H43614580   1.533   7.520   7.280 -0.1948  0.0322 -0.4663
   33MOL   H43714581   1.674   7.599   7.344  0.8972 -1.6107  3.0657
   33MOL   H43814582   1.774   7.376   7.409  1.3058  1.4949 -0.9151
   33MOL   H43914583   1.613   7.373   7.472  0.1094  1.6361  0.3035
   33MOL   H44014584   1.759   6.995   7.513  0.3627  1.5534  0.2549
   33MOL   H44114585   1.848   7.071   7.376  1.1581  0.8415  0.6843
   33MOL   H44214586   1.794   7.163   7.518 -1.6326 -0.7863  1.5826
   34MOL     C114587   2.486   1.029   4.917 -0.0434 -0.0348 -0.3715
   34MOL     C214588   2.550   0.953   4.796 -0.0094  0.2162 -1.0746
   34MOL     C314589   2.499   1.019   4.665 -0.0999 -0.0958  0.1779
   34MOL     C414590   2.556   0.954   4.537  0.4142 -0.0714 -0.2266
   34MOL     C514591   2.504   0.814   4.523  0.1871  0.1418  0.9175
   34MOL     C614592   2.532   0.735   4.649 -0.1641  0.6354 -0.0832
   34MOL     C714593   2.504   0.804   4.789 -0.5231  0.0949 -0.0376
   34MOL     C814594   2.550   1.165   4.944 -0.4234  0.2722  0.3460
   34MOL     H914595   2.379   1.042   4.906 -0.2097 -0.0565  1.0434
   34MOL    H1014596   2.659   0.949   4.793  0.1390  3.0876 -0.4925
   34MOL    H1114597   2.390   1.015   4.658 -0.3078 -3.6813  3.6159
   34MOL    H1214598   2.543   1.119   4.658  0.0059 -0.1444  0.1428
   34MOL    H1314599   2.664   0.957   4.550  0.3333 -1.4120  0.9385
   34MOL    H1414600   2.538   1.017   4.450 -1.3258 -0.7891 -0.4120
   34MOL    H1514601   2.544   0.769   4.432 -1.9864  0.6104 -0.3069
   34MOL    H1614602   2.395   0.819   4.518  0.1905 -0.6624 -0.3423
   34MOL    H1714603   2.487   0.636   4.649  0.5221  0.3230 -0.3827
   34MOL    H1814604   2.637   0.707   4.645 -0.2364  0.3421  0.0624
   34MOL    H1914605   2.548   0.744   4.869  1.3892 -2.2675 -2.7633
   34MOL    H2014606   2.400   0.802   4.821  0.1254 -0.5536  2.1631
   34MOL    H2114607   2.515   1.227   4.861 -0.5328  0.7316  0.7333
   34MOL    H2214608   2.658   1.157   4.938 -0.5578 -0.4639 -1.7692
   34MOL    H2314609   2.495   0.961   5.002 -1.5483  0.8326  0.5011
   34MOL    C2414610   2.503   1.238   5.076  0.4045 -0.1754 -0.0424
   34MOL    C2514611   2.535   1.161   5.210  0.3229 -0.1982 -0.4787
   34MOL    C2614612   2.454   1.206   5.337 -0.2435 -0.3797 -0.1462
   34MOL    C2714613   2.503   1.135   5.460  0.9161  0.4470 -0.7179
   34MOL    C2814614   2.654   1.142   5.484 -0.3100  0.0911 -0.6007
   34MOL    C2914615   2.731   1.089   5.362 -0.6546 -0.2727  0.9279
   34MOL    C3014616   2.694   1.156   5.236  0.4060 -0.3655 -0.2380
   34MOL    C3114617   2.557   1.381   5.085 -0.1360 -0.5949 -0.1976
   34MOL    H3214618   2.394   1.240   5.074  0.3334 -0.7409  2.3884
   34MOL    H3314619   2.499   1.061   5.188  0.3504 -0.3941  0.3525
   34MOL    H3414620   2.345   1.204   5.333 -0.3099 -1.3679  1.4401
   34MOL    H3514621   2.473   1.312   5.349  2.0913 -0.7475 -0.4254
   34MOL    H3614622   2.457   1.166   5.554  2.7621 -1.2834  0.7926
   34MOL    H3714623   2.462   1.036   5.440  0.2157  1.1520 -2.9285
   34MOL    H3814624   2.683   1.072   5.562  0.6972  1.1593 -0.0030
   34MOL    H3914625   2.696   1.239   5.511 -0.6006  0.1066 -0.2035
   34MOL    H4014626   2.836   1.081   5.388  0.2790 -1.5693 -2.8935
   34MOL    H4114627   2.695   0.986   5.360 -1.8505  0.1497 -0.2599
   34MOL    H4214628   2.733   1.257   5.248 -0.0612 -0.0866 -1.0215
   34MOL    H4314629   2.749   1.107   5.156  2.8343 -0.6391  1.5153
   34MOL    H4414630   2.666   1.383   5.079 -0.1830 -0.3531 -0.9508
   34MOL    H4514631   2.541   1.431   5.181 -1.1579 -1.3686  0.0429
   34MOL    C4614632   2.505   1.482   4.985  0.7143 -0.8148  0.8823
   34MOL    C4714633   2.590   1.599   4.945 -0.5225 -0.0007  0.6534
   34MOL    C4814634   2.703   1.562   4.848  0.1669  0.6743  0.3081
   34MOL    C4914635   2.780   1.683   4.807  0.5920  0.0595  0.5975
   34MOL    C5014636   2.836   1.755   4.936 -0.5713  0.5393  0.1329
   34MOL    C5114637   2.728   1.792   5.027  0.3599 -0.4557  0.0150
   34MOL    C5214638   2.637   1.674   5.069 -0.3563  0.4118 -0.5866
   34MOL    C5314639   2.356   1.529   5.018  0.5244  0.3570 -0.3558
   34MOL    H5414640   2.494   1.419   4.897 -2.2554 -0.1508  0.7496
   34MOL    H5514641   2.524   1.672   4.898 -0.4450  0.3879  1.1437
   34MOL    H5614642   2.767   1.498   4.909  1.8872  1.7982 -0.2908
   34MOL    H5714643   2.669   1.508   4.760 -0.5135  1.0380  0.3392
   34MOL    H5814644   2.715   1.755   4.758  0.4639  0.8911  1.9766
   34MOL    H5914645   2.845   1.650   4.725 -0.7483  1.6036 -1.1272
   34MOL    H6014646   2.914   1.693   4.981  0.8429  2.8492  0.9580
   34MOL    H6114647   2.880   1.849   4.902  0.0397 -0.7061 -2.6739
   34MOL    H6214648   2.671   1.875   4.984  0.8391 -0.2263 -0.1735
   34MOL    H6314649   2.769   1.835   5.119 -0.7069  1.1298 -0.2219
   34MOL    H6414650   2.700   1.608   5.129  1.3493  2.7126  0.2079
   34MOL    H6514651   2.553   1.716   5.123 -0.2321  0.0970 -0.1485
   34MOL    H6614652   2.364   1.623   5.073  0.9403 -0.6818  1.3944
   34MOL    H6714653   2.315   1.459   5.091 -0.0836  0.3809 -0.6675
   34MOL    C6814654   2.258   1.552   4.904 -0.4032 -0.4524  0.1565
   34MOL    C6914655   2.217   1.421   4.837 -0.1954 -0.3001  0.3971
   34MOL    C7014656   2.099   1.338   4.907  0.0194  0.3025  0.3808
   34MOL    C7114657   2.096   1.206   4.849 -0.0935  0.4829 -0.1818
   34MOL    C7214658   2.055   1.205   4.697  0.5046 -0.7816  0.6625
   34MOL    C7314659   2.151   1.295   4.617 -0.5453 -0.4978  0.4154
   34MOL    C7414660   2.176   1.434   4.688 -0.9861 -0.7217 -0.2011
   34MOL    C7514661   2.139   1.646   4.939 -0.9483 -0.8776 -0.3166
   34MOL    H7614662   2.324   1.598   4.829  0.1996  0.9946  1.5430
   34MOL    H7714663   2.306   1.359   4.826 -0.5475 -0.4360 -1.8876
   34MOL    H7814664   2.003   1.391   4.904 -0.5501 -0.6282  1.9981
   34MOL    H7914665   2.115   1.321   5.013 -1.5378 -2.2322  0.2539
   34MOL    H8014666   2.187   1.146   4.854  0.4079  1.2488 -0.0119
   34MOL    H8114667   2.030   1.142   4.908 -1.1819  1.1501 -0.6721
   34MOL    H8214668   1.951   1.237   4.686  0.3571 -0.7376  2.1732
   34MOL    H8314669   2.062   1.103   4.657 -0.7716 -1.3394  1.8089
   34MOL    H8414670   2.111   1.308   4.516  1.6891  0.9215 -0.3320
   34MOL    H8514671   2.243   1.242   4.592  0.6172  0.2222  3.0686
   34MOL    H8614672   2.086   1.494   4.679  0.1306  0.8538 -0.9510
   34MOL    H8714673   2.255   1.485   4.634 -0.9391 -0.1047  0.4440
   34MOL    H8814674   2.070   1.652   4.854 -0.0172  1.6279 -0.9381
   34MOL    H8914675   2.074   1.594   5.009 -1.2694  1.1068  0.9081
   34MOL    C9014676   2.166   1.789   4.986  0.2157 -1.1964  0.0969
   34MOL    C9114677   2.258   1.862   4.884 -0.2200 -0.4532  0.8691
   34MOL    C9214678   2.211   1.858   4.741  0.0090 -0.8632  0.1425
   34MOL    C9314679   2.328   1.901   4.651  0.4715 -0.1194 -0.1174
   34MOL    C9414680   2.375   2.046   4.676  0.5646 -0.2577 -0.4158
   34MOL    C9514681   2.403   2.061   4.831  0.2130 -0.0391 -0.4108
   34MOL    C9614682   2.287   2.010   4.916  0.1080  0.5544 -0.1630
   34MOL    C9714683   2.047   1.875   5.033  0.9370  0.2749 -0.2265
   34MOL    H9814684   2.227   1.794   5.077 -2.1555  2.0492  1.6536
   34MOL    H9914685   2.350   1.804   4.883  0.5967  0.8333  0.7166
   34MOL   H10014686   2.131   1.931   4.727  0.5437 -0.7856 -3.0631
   34MOL   H10114687   2.179   1.758   4.713  1.2715 -2.0992  2.9740
   34MOL   H10214688   2.293   1.888   4.548 -0.5187  1.4104  0.0221
   34MOL   H10314689   2.409   1.831   4.674  0.6060  0.4565  1.2260
   34MOL   H10414690   2.297   2.112   4.637  0.6678 -1.4985 -2.7798
   34MOL   H10514691   2.465   2.067   4.618  0.0008  2.4989 -0.3849
   34MOL   H10614692   2.498   2.016   4.858  0.2153  0.2252  0.0234
   34MOL   H10714693   2.422   2.164   4.863  1.4298 -0.8804  1.6577
   34MOL   H10814694   2.305   2.024   5.022  2.0549  0.1050 -0.4118
   34MOL   H10914695   2.197   2.063   4.884 -0.6620  1.0341  2.7145
   34MOL   H11014696   2.067   1.969   5.085 -1.9607  0.6459  0.2807
   34MOL   H11114697   2.004   1.921   4.945 -0.1300 -1.2379 -0.5216
   34MOL   C11214698   1.918   1.819   5.107 -0.0119 -0.5825 -0.4897
   34MOL   C11314699   1.789   1.896   5.077  0.3963 -0.4424  0.2273
   34MOL   C11414700   1.734   1.874   4.933 -0.4804  0.2235  0.6113
   34MOL   C11514701   1.608   1.948   4.896 -0.4201  0.3879 -0.8241
   34MOL   C11614702   1.613   2.096   4.939  0.7264 -0.3868 -0.0362
   34MOL   C11714703   1.663   2.123   5.079  0.1508  0.9132 -0.0941
   34MOL   C11814704   1.800   2.052   5.105 -0.3003 -0.1297  0.5542
   34MOL   C11914705   1.931   1.803   5.263  0.1171  0.5463 -0.6159
   34MOL   H12014706   1.893   1.718   5.073 -1.7741  0.0875 -1.2095
   34MOL   H12114707   1.718   1.862   5.153 -1.4001 -2.7875 -2.3916
   34MOL   H12214708   1.718   1.766   4.934  1.3801 -0.0709  2.8298
   34MOL   H12314709   1.808   1.898   4.856 -1.3800 -2.1264 -1.0916
   34MOL   H12414710   1.573   1.947   4.793 -1.2815  1.7021 -0.5578
   34MOL   H12514711   1.522   1.897   4.940  0.6539 -2.4059 -1.7872
   34MOL   H12614712   1.672   2.152   4.867  0.8952 -0.8457 -0.2553
   34MOL   H12714713   1.514   2.137   4.921  0.1328 -1.2391  1.1868
   34MOL   H12814714   1.675   2.229   5.103  1.9781  0.2138  2.3430
   34MOL   H12914715   1.584   2.084   5.144  2.4293 -1.6519  1.2358
   34MOL   H13014716   1.841   2.066   5.205  2.4163  0.1095 -0.5300
   34MOL   H13114717   1.883   2.087   5.044 -1.6664 -1.5861 -2.2209
   34MOL   H13214718   1.843   1.790   5.327  1.7955  2.4494  2.1955
   34MOL   H13314719   1.973   1.899   5.295  0.4236 -0.1911  1.2362
   34MOL   C13414720   2.035   1.693   5.310 -0.1190  0.8162 -0.0262
   34MOL   C13514721   1.972   1.548   5.292 -0.2230  0.1236 -0.4298
   34MOL   C13614722   1.866   1.513   5.404 -0.0833  0.2103  0.1248
   34MOL   C13714723   1.780   1.392   5.358 -0.4761 -0.3913 -0.1930
   34MOL   C13814724   1.875   1.278   5.354 -0.1247 -0.4856 -0.1758
   34MOL   C13914725   1.995   1.303   5.253  0.4265 -0.8844 -0.0195
   34MOL   C14014726   2.074   1.434   5.288  0.6270 -0.0460 -0.1164
   34MOL   C14114727   2.079   1.712   5.456  0.1349 -0.1218  0.0618
   34MOL   H14214728   2.122   1.689   5.244  0.1296  0.7554  0.3018
   34MOL   H14314729   1.915   1.556   5.199 -0.7575  0.4063 -0.0826
   34MOL   H14414730   1.906   1.497   5.504  0.3665 -3.3945 -0.5719
   34MOL   H14514731   1.793   1.594   5.410 -0.8825 -0.5514  0.9342
   34MOL   H14614732   1.742   1.419   5.259  1.8247  2.6875 -0.3309
   34MOL   H14714733   1.696   1.373   5.424 -0.4815  0.1907 -0.0259
   34MOL   H14814734   1.912   1.258   5.454 -0.3342 -0.1207 -0.0268
   34MOL   H14914735   1.820   1.191   5.317 -0.7704  0.4702 -1.5289
   34MOL   H15014736   1.953   1.301   5.152 -1.4817  0.3921  0.7074
   34MOL   H15114737   2.076   1.231   5.259  0.6045 -0.8550 -1.8661
   34MOL   H15214738   2.139   1.431   5.375  1.0703  0.8216 -0.4128
   34MOL   H15314739   2.147   1.453   5.209  1.8901  0.2984  1.1030
   34MOL   H15414740   2.114   1.616   5.493  1.3457  0.0725 -0.5261
   34MOL   H15514741   1.991   1.747   5.508 -0.7741 -2.5635  0.2256
   34MOL   C15614742   2.177   1.827   5.483  0.5759 -0.7081 -0.3589
   34MOL   C15714743   2.315   1.808   5.433 -0.0818 -0.5310 -0.3264
   34MOL   C15814744   2.384   1.941   5.411 -0.7538 -0.3390  0.5014
   34MOL   C15914745   2.522   1.930   5.345  0.1006 -0.3845 -0.3570
   34MOL   C16014746   2.611   1.839   5.430  0.7087 -0.5984  0.3174
   34MOL   C16114747   2.547   1.705   5.459 -0.4411 -0.3503  0.5934
   34MOL   C16214748   2.402   1.715   5.511 -0.1788 -0.1798  0.1442
   34MOL   C16314749   2.170   1.871   5.631  0.2381 -0.8460  0.8238
   34MOL   H16414750   2.136   1.908   5.423  3.0719  2.0664  1.4935
   34MOL   H16514751   2.303   1.756   5.337  1.3695  2.5166 -2.2242
   34MOL   H16614752   2.320   2.004   5.350 -1.6407 -0.5674  1.1792
   34MOL   H16714753   2.409   1.994   5.503 -3.0907  0.2700  0.8117
   34MOL   H16814754   2.505   1.896   5.243  0.0744  1.3478 -0.9373
   34MOL   H16914755   2.564   2.031   5.349 -1.3881  0.1935  1.0189
   34MOL   H17014756   2.638   1.891   5.522  0.7490  1.7992 -0.9870
   34MOL   H17114757   2.710   1.823   5.387  1.2849 -0.0029  1.3983
   34MOL   H17214758   2.615   1.639   5.513  1.0206  1.2638  0.7805
   34MOL   H17314759   2.539   1.662   5.359 -2.1576  0.6372  0.2977
   34MOL   H17414760   2.367   1.612   5.511  0.1732 -0.3018  0.3379
   34MOL   H17514761   2.394   1.750   5.614  0.3424  2.0909 -0.5578
   34MOL   H17614762   2.262   1.926   5.649 -0.0795 -0.3849  1.0627
   34MOL   H17714763   2.171   1.785   5.697 -0.9423 -0.0340  1.9357
   34MOL   C17814764   2.053   1.952   5.684 -0.6012 -0.0205  0.2713
   34MOL   C17914765   2.052   1.952   5.839  0.0646 -0.5083 -0.2191
   34MOL   C18014766   2.179   2.017   5.908 -0.3855 -0.1967  0.2331
   34MOL   C18114767   2.159   2.035   6.057  0.1586 -0.1549  0.0839
   34MOL   C18214768   2.115   1.911   6.128 -0.1162  0.1753 -0.4944
   34MOL   C18314769   1.996   1.838   6.055  0.3139  0.0252  0.2617
   34MOL   C18414770   2.028   1.818   5.902 -0.1989  0.3251 -0.0089
   34MOL   C18514771   2.064   2.089   5.626 -0.0772  0.1259 -0.7192
   34MOL   H18614772   1.963   1.899   5.654 -0.7162 -0.0082  0.5938
   34MOL   H18714773   1.962   2.008   5.867  1.2770  1.5249 -0.2699
   34MOL   H18814774   2.265   1.956   5.881 -0.3391 -0.6433  1.3500
   34MOL   H18914775   2.189   2.119   5.869 -0.0214 -1.5157 -3.2223
   34MOL   H19014776   2.090   2.116   6.079 -1.1937 -1.6435  1.4391
   34MOL   H19114777   2.257   2.060   6.096 -0.6573  1.5916  1.0374
   34MOL   H19214778   2.198   1.841   6.127  0.7012  1.1451 -0.8581
   34MOL   H19314779   2.088   1.913   6.234 -0.4535  0.8679 -0.5901
   34MOL   H19414780   1.899   1.886   6.068 -0.6807 -2.1826  1.2300
   34MOL   H19514781   1.984   1.743   6.107  0.8965 -1.2292 -1.8351
   34MOL   H19614782   2.112   1.751   5.884 -0.0300  1.5891 -4.4397
   34MOL   H19714783   1.946   1.772   5.847 -1.2514  1.0772  0.8950
   34MOL   H19814784   2.166   2.123   5.643 -0.9117  3.0855 -1.3790
   34MOL   H19914785   2.059   2.084   5.518  3.4865  1.2268 -0.9754
   34MOL   C20014786   1.967   2.198   5.685  0.0223 -0.1699 -0.2132
   34MOL   C20114787   1.997   2.339   5.636 -0.8799 -0.5037  0.3684
   34MOL   C20214788   2.111   2.407   5.699 -0.1336 -0.0204  0.3871
   34MOL   C20314789   2.129   2.554   5.653 -0.2844 -0.4643 -0.0289
   34MOL   C20414790   2.128   2.580   5.501 -0.0808  0.3310 -0.1833
   34MOL   C20514791   2.007   2.506   5.441  0.5193 -0.3783 -0.1803
   34MOL   C20614792   1.999   2.363   5.485  0.7091  0.1505  0.0131
   34MOL   C20714793   1.815   2.156   5.664 -0.3402  0.2671 -0.7729
   34MOL   H20814794   1.982   2.203   5.793 -0.9228 -1.5241 -0.0139
   34MOL   H20914795   1.911   2.397   5.671 -0.3777  0.9777 -0.8533
   34MOL   H21014796   2.203   2.351   5.682 -0.4382 -0.3292 -0.2567
   34MOL   H21114797   2.089   2.409   5.806  2.3342 -0.7219  0.9547
   34MOL   H21214798   2.047   2.613   5.694  0.4931  0.4850  0.2005
   34MOL   H21314799   2.228   2.586   5.686  0.0570 -2.0160  0.5151
   34MOL   H21414800   2.139   2.686   5.480 -0.1457 -0.2948 -3.5475
   34MOL   H21514801   2.221   2.542   5.459  0.9556 -0.3835  2.6169
   34MOL   H21614802   1.918   2.559   5.476  0.1323  0.7271 -2.7381
   34MOL   H21714803   1.999   2.509   5.332 -0.6273 -2.8814 -0.2248
   34MOL   H21814804   1.923   2.301   5.437  2.6543 -1.3409 -1.2062
   34MOL   H21914805   2.091   2.312   5.456  0.6396  0.1661 -0.2319
   34MOL   H22014806   1.792   2.157   5.557 -3.2011 -1.2146 -0.2155
   34MOL   H22114807   1.796   2.051   5.682 -1.3982  0.8579  1.7546
   34MOL   C22214808   1.708   2.229   5.754  0.3392  0.0820  0.8551
   34MOL   C22314809   1.595   2.289   5.670 -0.1388  0.4693 -0.3318
   34MOL   C22414810   1.513   2.178   5.601  0.1943  0.3009 -0.6785
   34MOL   C22514811   1.393   2.233   5.518 -1.0133 -0.3016 -0.6891
   34MOL   C22614812   1.427   2.347   5.421  0.1173 -0.2665 -0.0741
   34MOL   C22714813   1.498   2.456   5.500 -0.1118  0.2078  1.1301
   34MOL   C22814814   1.625   2.406   5.576  0.7776 -0.5227 -0.7239
   34MOL   C22914815   1.666   2.134   5.872 -0.7103 -0.5606  0.2743
   34MOL   H23014816   1.755   2.313   5.806  0.3412  2.2090 -2.3953
   34MOL   H23114817   1.527   2.350   5.729 -0.6815  1.2529 -1.7401
   34MOL   H23214818   1.559   2.101   5.539 -2.1024 -1.8905  0.2462
   34MOL   H23314819   1.474   2.110   5.676 -0.6431  0.4293 -0.9984
   34MOL   H23414820   1.333   2.274   5.599 -1.0843  1.5276 -1.6424
   34MOL   H23514821   1.348   2.144   5.473  0.1985 -0.6019 -1.3328
   34MOL   H23614822   1.493   2.306   5.344 -1.5647  0.5377 -1.9871
   34MOL   H23714823   1.343   2.386   5.364 -1.2017 -1.2492  1.1581
   34MOL   H23814824   1.435   2.509   5.572  1.0871  1.7431  1.0809
   34MOL   H23914825   1.526   2.539   5.436  0.0565 -0.0544  0.8615
   34MOL   H24014826   1.700   2.379   5.502  0.4122  1.0600 -1.6835
   34MOL   H24114827   1.678   2.490   5.620 -1.3254  0.8271 -0.6840
   34MOL   H24214828   1.753   2.078   5.906  1.3236  0.5576 -2.8049
   34MOL   H24314829   1.611   2.046   5.837 -0.6871 -1.2752  2.0027
   34MOL   C24414830   1.596   2.213   5.983 -0.4740 -0.2422 -0.4424
   34MOL   C24514831   1.685   2.231   6.113  0.2490  0.0800 -0.0987
   34MOL   C24614832   1.831   2.290   6.104  0.2892  0.3667 -0.4536
   34MOL   C24714833   1.899   2.313   6.235 -0.0864 -0.2502 -0.3716
   34MOL   C24814834   1.908   2.188   6.316 -0.2620  0.2543  0.6011
   34MOL   C24914835   1.773   2.118   6.321  0.3376  0.0880  0.2390
   34MOL   C25014836   1.691   2.104   6.188  0.5049  0.1153  0.1111
   34MOL   C25114837   1.451   2.163   6.012 -0.2240 -0.4796 -0.2328
   34MOL   H25214838   1.577   2.313   5.945 -1.1696  0.1148  0.8279
   34MOL   H25314839   1.627   2.303   6.170 -0.8518  0.1934 -1.3609
   34MOL   H25414840   1.830   2.372   6.032  1.4333  0.3234 -0.5208
   34MOL   H25514841   1.887   2.214   6.050 -0.0729 -1.2880  1.4381
   34MOL   H25614842   1.994   2.350   6.198 -0.5627 -0.4270 -1.8348
   34MOL   H25714843   1.846   2.397   6.281  0.7923 -0.5186  1.1487
   34MOL   H25814844   1.983   2.124   6.270 -1.6062 -0.4222 -0.6700
   34MOL   H25914845   1.939   2.224   6.414  3.8893 -0.8183 -0.2381
   34MOL   H26014846   1.702   2.160   6.392  1.5390 -0.4343  1.7930
   34MOL   H26114847   1.786   2.015   6.354 -0.2997  0.6618  2.3626
   34MOL   H26214848   1.722   2.017   6.130  1.6405  1.8009 -1.8749
   34MOL   H26314849   1.591   2.073   6.219  0.7044  0.4563  1.0995
   34MOL   H26414850   1.457   2.057   6.036  0.7756 -1.2689 -3.7771
   34MOL   H26514851   1.403   2.175   5.915 -0.0230 -0.4505 -0.3271
   34MOL   C26614852   1.357   2.239   6.118 -0.0578  0.1985  0.8787
   34MOL   C26714853   1.311   2.386   6.085  0.2725 -0.1319 -0.3698
   34MOL   C26814854   1.257   2.400   5.944 -0.0438  0.1817 -0.1157
   34MOL   C26914855   1.213   2.543   5.916  0.3017 -0.0582  0.1260
   34MOL   C27014856   1.317   2.646   5.938 -0.0352 -0.3613  0.0266
   34MOL   C27114857   1.370   2.633   6.081 -0.1571  0.3867  0.3155
   34MOL   C27214858   1.422   2.494   6.109  0.0032  0.5380  0.1475
   34MOL   C27314859   1.252   2.150   6.181 -0.1755  0.4608  0.4187
   34MOL   H27414860   1.423   2.247   6.204  2.3154  1.5793 -0.9772
   34MOL   H27514861   1.229   2.413   6.152  0.5308  0.1889 -0.1825
   34MOL   H27614862   1.324   2.366   5.865  0.2543 -1.0211  0.6353
   34MOL   H27714863   1.180   2.326   5.921  3.5016 -2.8552 -3.0210
   34MOL   H27814864   1.139   2.576   5.990  0.3072  0.4013 -0.0720
   34MOL   H27914865   1.163   2.557   5.820  0.9428 -1.6920 -0.4615
   34MOL   H28014866   1.397   2.629   5.865 -0.9204 -0.8551 -0.8428
   34MOL   H28114867   1.301   2.753   5.919  2.6780  0.8271  3.8304
   34MOL   H28214868   1.304   2.671   6.160 -0.2048  2.2811 -0.6004
   34MOL   H28314869   1.457   2.699   6.086 -2.3504  3.2507  2.3503
   34MOL   H28414870   1.465   2.478   6.207  0.8697  1.3496 -0.1011
   34MOL   H28514871   1.504   2.480   6.038  1.1050  2.3877  1.0479
   34MOL   H28614872   1.228   2.200   6.274  1.3065  0.0339  1.0458
   34MOL   H28714873   1.297   2.051   6.192 -1.5630 -0.9487 -4.7902
   34MOL   C28814874   1.118   2.123   6.109  0.1491 -0.1980 -0.4647
   34MOL   C28914875   0.994   2.093   6.202 -0.8070  0.0959  0.1364
   34MOL   C29014876   0.990   1.962   6.274 -0.6315  0.4352  0.3521
   34MOL   C29114877   0.853   1.946   6.340 -0.0416 -0.5210  0.1498
   34MOL   C29214878   0.833   2.061   6.443  0.2502  0.1682  0.4450
   34MOL   C29314879   0.849   2.201   6.387 -0.5233 -0.6304  0.0106
   34MOL   C29414880   0.978   2.214   6.303  0.2064 -0.0149  0.1043
   34MOL   C29514881   1.144   2.021   5.992 -0.2118 -0.2402 -0.3161
   34MOL   H29614882   1.086   2.211   6.052 -0.3805 -0.6558 -0.8775
   34MOL   H29714883   0.910   2.088   6.133 -0.4828 -3.2683 -0.1139
   34MOL   H29814884   0.999   1.889   6.193 -2.8592  0.9955 -0.4459
   34MOL   H29914885   1.083   1.947   6.328  0.2814 -0.9171 -1.5185
   34MOL   H30014886   0.777   1.936   6.263  0.1286  0.5745 -0.1720
   34MOL   H30114887   0.853   1.847   6.386 -0.1737 -0.2266  0.7846
   34MOL   H30214888   0.903   2.041   6.523 -0.8994  0.0918  1.4414
   34MOL   H30314889   0.732   2.055   6.484 -0.0338 -0.0127 -0.2706
   34MOL   H30414890   0.849   2.275   6.467 -0.8739  1.8678 -2.2531
   34MOL   H30514891   0.766   2.231   6.324  0.4147  1.1492 -0.4188
   34MOL   H30614892   1.050   2.210   6.384 -0.9550  3.3649  1.3411
   34MOL   H30714893   0.973   2.308   6.249 -0.0339  0.2045  0.5175
   34MOL   H30814894   1.218   2.073   5.931  1.7841 -0.2879  1.9745
   34MOL   H30914895   1.201   1.936   6.031  2.1549  1.1909 -0.6123
   34MOL   C31014896   1.043   1.954   5.902 -0.2684 -0.0566 -1.2447
   34MOL   C31114897   0.944   2.057   5.844 -0.6192 -0.5973 -0.5733
   34MOL   C31214898   0.992   2.153   5.733 -0.0136 -0.2397 -0.0715
   34MOL   C31314899   0.888   2.257   5.710 -0.3874 -0.3991  0.3728
   34MOL   C31414900   0.752   2.201   5.662  0.4319 -0.2251  0.9263
   34MOL   C31514901   0.707   2.097   5.765  0.3145  0.4574 -0.6259
   34MOL   C31614902   0.815   1.989   5.797 -0.3869 -0.6276 -0.7809
   34MOL   C31714903   1.108   1.861   5.800  0.0648 -0.5166 -0.0495
   34MOL   H31814904   0.978   1.893   5.964  0.4379  0.3374 -0.1069
   34MOL   H31914905   0.907   2.121   5.925  0.3366  1.6869 -1.8924
   34MOL   H32014906   1.083   2.209   5.754 -0.5875  1.5710 -2.1673
   34MOL   H32114907   1.004   2.099   5.639  2.7709  0.1454  0.0320
   34MOL   H32214908   0.930   2.313   5.626  1.5087 -2.1949  0.0948
   34MOL   H32314909   0.875   2.319   5.799 -0.4233 -1.2999  0.9942
   34MOL   H32414910   0.690   2.289   5.640  1.4903  0.2788 -0.0807
   34MOL   H32514911   0.759   2.136   5.575 -1.0390 -1.0564  1.4101
   34MOL   H32614912   0.682   2.151   5.856  0.6756 -2.2252  1.1010
   34MOL   H32714913   0.613   2.053   5.729  1.1867 -0.5870 -1.6688
   34MOL   H32814914   0.843   1.929   5.710  1.7081 -0.8035 -0.0092
   34MOL   H32914915   0.778   1.923   5.875  1.0936  0.6755  1.0428
   34MOL   H33014916   1.196   1.915   5.763  0.9198 -1.1789  0.9887
   34MOL   H33114917   1.044   1.853   5.712  0.2410  2.8614 -0.5760
   34MOL   C33214918   1.159   1.721   5.845 -0.3260 -0.3753 -0.6151
   34MOL   C33314919   1.292   1.677   5.775  1.0416 -0.4039  0.3705
   34MOL   C33414920   1.415   1.742   5.845 -0.5806  1.0155  1.0299
   34MOL   C33514921   1.547   1.690   5.779 -0.0859  0.4365 -0.3949
   34MOL   C33614922   1.542   1.710   5.629 -0.2833 -0.2923  0.3444
   34MOL   C33714923   1.420   1.634   5.562  0.8286 -0.9602  0.2564
   34MOL   C33814924   1.295   1.691   5.621  0.7712 -0.3837  0.1624
   34MOL   C33914925   1.053   1.617   5.836 -0.5601  0.6612 -0.0768
   34MOL   H34014926   1.180   1.719   5.952  1.7144 -1.2218 -1.0223
   34MOL   H34114927   1.299   1.570   5.790  1.4283 -0.5610 -0.9090
   34MOL   H34214928   1.415   1.851   5.853 -3.2733  1.2829 -1.7309
   34MOL   H34314929   1.400   1.714   5.949  1.5267  1.5732  1.5075
   34MOL   H34414930   1.626   1.749   5.825 -0.5330  1.1936 -0.5876
   34MOL   H34514931   1.564   1.586   5.809  1.9123  0.8736  0.0566
   34MOL   H34614932   1.548   1.817   5.610 -0.2789 -0.1787  0.9796
   34MOL   H34714933   1.628   1.658   5.587  0.6960  1.6933 -0.1728
   34MOL   H34814934   1.414   1.526   5.576 -3.0563 -0.6626  1.6612
   34MOL   H34914935   1.418   1.655   5.455 -1.9286  0.8070  0.6037
   34MOL   H35014936   1.210   1.644   5.572  0.3124 -0.9238  1.4344
   34MOL   H35114937   1.297   1.798   5.598 -2.1746 -0.1270  0.9208
   34MOL   H35214938   1.065   1.575   5.736 -0.7990  0.5372 -0.0520
   34MOL   H35314939   0.956   1.666   5.845 -0.6567  0.1969  1.5446
   34MOL   C35414940   1.065   1.511   5.952 -0.6513 -1.2040  0.2583
   34MOL   C35514941   1.019   1.370   5.894 -0.1180  0.1946 -0.2928
   34MOL   C35614942   1.126   1.309   5.810 -0.3865 -0.0060  0.2604
   34MOL   C35714943   1.104   1.151   5.792  0.2814  0.8817  0.5160
   34MOL   C35814944   0.972   1.130   5.721 -0.3165  0.5320 -0.1363
   34MOL   C35914945   0.856   1.199   5.796  0.1995  0.1058  0.2386
   34MOL   C36014946   0.880   1.353   5.830 -0.1953 -0.5597 -0.3496
   34MOL   C36114947   0.985   1.561   6.071 -0.4551 -0.2408  0.0597
   34MOL   H36214948   1.169   1.502   5.982 -0.6529 -0.7030  0.4179
   34MOL   H36314949   1.026   1.300   5.978  0.7868  3.5099  2.5246
   34MOL   H36414950   1.229   1.324   5.843 -0.9016  0.2313  1.7895
   34MOL   H36514951   1.114   1.357   5.713  0.8529 -0.6797 -0.2440
   34MOL   H36614952   1.179   1.105   5.728 -1.3549  0.4606 -1.1278
   34MOL   H36714953   1.106   1.096   5.886 -2.1600 -3.9465 -2.0836
   34MOL   H36814954   0.984   1.174   5.623  1.9297 -1.6334 -0.8952
   34MOL   H36914955   0.952   1.023   5.717  1.1094  0.2599 -0.5483
   34MOL   H37014956   0.777   1.181   5.724 -0.2760 -0.2981  0.8546
   34MOL   H37114957   0.836   1.135   5.882 -1.2867  0.8378  0.4586
   34MOL   H37214958   0.808   1.393   5.900  0.5942  1.1496 -0.4880
   34MOL   H37314959   0.864   1.397   5.732 -0.3180 -0.1311 -0.1335
   34MOL   H37414960   0.885   1.568   6.029 -0.9168 -1.8089  0.8307
   34MOL   H37514961   1.006   1.665   6.094 -0.0473 -0.5709  1.2469
   34MOL   C37614962   1.004   1.480   6.199 -0.8140 -0.0940 -0.1631
   34MOL   C37714963   1.149   1.480   6.258  0.1724 -0.1224 -0.4386
   34MOL   C37814964   1.169   1.350   6.350  0.1374 -0.6938 -0.5915
   34MOL   C37914965   1.309   1.349   6.423  0.6736 -0.4349 -0.3700
   34MOL   C38014966   1.341   1.484   6.492 -0.1837  0.6875 -0.1231
   34MOL   C38114967   1.323   1.599   6.395 -0.0350 -0.1056  0.4314
   34MOL   C38214968   1.184   1.612   6.329  0.2288 -0.0578  0.5549
   34MOL   C38314969   0.893   1.511   6.304  0.4646 -0.3003  0.0441
   34MOL   H38414970   0.996   1.377   6.167  0.9768 -0.8699  1.7723
   34MOL   H38514971   1.226   1.476   6.181  0.0481  2.1847 -0.7367
   34MOL   H38614972   1.105   1.355   6.438  0.3215  0.2602 -0.4988
   34MOL   H38714973   1.147   1.259   6.295 -1.0858 -1.4801  1.1853
   34MOL   H38814974   1.394   1.335   6.357 -0.7943  1.2573 -2.7084
   34MOL   H38914975   1.317   1.265   6.492  2.0086 -0.0992 -0.1030
   34MOL   H39014976   1.278   1.494   6.581  2.8240 -0.6451  2.2261
   34MOL   H39114977   1.442   1.489   6.531  0.3446 -2.2258 -1.0024
   34MOL   H39214978   1.336   1.690   6.455  0.2162 -0.4039  0.8341
   34MOL   H39314979   1.415   1.601   6.337 -1.1630  1.0679 -1.3556
   34MOL   H39414980   1.105   1.647   6.395 -1.0760  1.2543 -1.6125
   34MOL   H39514981   1.180   1.692   6.254  1.4095  0.0171  0.5672
   34MOL   H39614982   0.878   1.617   6.325 -1.2278 -0.2218 -1.4618
   34MOL   H39714983   0.921   1.474   6.403 -0.8493  0.3303  0.6575
   34MOL   C39814984   0.744   1.463   6.289 -0.5703  0.5083  0.4826
   34MOL   C39914985   0.674   1.544   6.176  0.2816 -0.1527 -0.2105
   34MOL   C40014986   0.522   1.523   6.179 -0.1281  0.4594 -0.8949
   34MOL   C40114987   0.441   1.597   6.078 -0.0301 -0.5990  0.0054
   34MOL   C40214988   0.469   1.752   6.076  0.2191 -0.8937  0.1855
   34MOL   C40314989   0.620   1.771   6.063  0.1611  0.6199  0.0757
   34MOL   C40414990   0.701   1.694   6.173  0.6714  0.1579  0.4748
   34MOL   C40514991   0.746   1.314   6.258  0.3979  0.4057  0.6497
   34MOL   H40614992   0.689   1.493   6.378 -1.2797  0.3095  0.1137
   34MOL   H40714993   0.705   1.497   6.083 -0.5803  0.8498 -1.0262
   34MOL   H40814994   0.492   1.557   6.279  1.8423 -0.4289  0.0102
   34MOL   H40914995   0.499   1.417   6.163  1.1476  0.0676 -0.1396
   34MOL   H41014996   0.332   1.594   6.082 -0.1551  1.6191 -0.8380
   34MOL   H41114997   0.477   1.562   5.981  0.0884 -0.5798  0.0424
   34MOL   H41214998   0.426   1.798   6.165  2.2797  2.3693 -0.4256
   34MOL   H41314999   0.422   1.784   5.983  0.2609 -0.6077  0.2634
   34MOL   H41415000   0.659   1.749   5.964  1.8121  0.3681  0.7561
   34MOL   H41515001   0.629   1.879   6.080  2.7855  0.9707 -3.0757
   34MOL   H41615002   0.806   1.724   6.164  0.4502  1.6704  2.5966
   34MOL   H41715003   0.683   1.740   6.270 -0.8307 -1.0324  0.7652
   34MOL   H41815004   0.645   1.281   6.231  0.6156 -0.3900  0.7987
   34MOL   H41915005   0.801   1.308   6.165  0.8717 -0.0692  0.9593
   34MOL   C42015006   0.793   1.217   6.368  0.8175  0.6356  0.1916
   34MOL   C42115007   0.808   1.068   6.306 -0.2138 -0.0901  0.5284
   34MOL   C42215008   0.913   1.067   6.190  0.2760  0.2670 -0.5770
   34MOL   C42315009   0.939   0.926   6.143 -0.7019 -0.2408  0.3426
   34MOL   C42415010   0.818   0.865   6.088 -0.6708 -0.0764  0.3248
   34MOL   C42515011   0.707   0.867   6.192  0.2861  0.0698 -0.3720
   34MOL   C42615012   0.682   1.011   6.244  0.0376  0.0087 -0.7474
   34MOL   C42715013   0.711   1.222   6.489  0.3590 -0.8864  0.7270
   34MOL   H42815014   0.893   1.252   6.396  0.8883 -0.5977  1.5299
   34MOL   H42915015   0.846   0.995   6.377 -0.2373 -1.1658 -0.5344
   34MOL   H43015016   0.890   1.137   6.109 -1.8809 -1.3365 -1.4068
   34MOL   H43115017   1.015   1.096   6.215  0.1067  0.9021 -0.6079
   34MOL   H43215018   1.018   0.932   6.068 -0.2385  1.0000  0.9043
   34MOL   H43315019   0.977   0.856   6.217 -0.5148 -1.1836 -0.6317
   34MOL   H43415020   0.832   0.764   6.049  0.3645  0.9462 -2.0190
   34MOL   H43515021   0.789   0.928   6.004  0.4981  0.2790  0.1819
   34MOL   H43615022   0.723   0.796   6.272 -0.4861 -2.1246 -2.1195
   34MOL   H43715023   0.619   0.835   6.136  0.6214 -1.2198 -0.1678
   34MOL   H43815024   0.640   1.080   6.170 -1.7784 -0.6660 -0.3696
   34MOL   H43915025   0.602   0.998   6.317 -2.5436  2.7483 -2.9680
   34MOL   H44015026   0.736   1.142   6.559 -1.5551 -2.2201 -0.0706
   34MOL   H44115027   0.738   1.316   6.538  0.0506 -1.0811  1.2730
   34MOL   H44215028   0.604   1.228   6.468  0.4670 -1.0945  0.1089
   35MOL     C115029   2.768   0.947   7.422  0.0197 -0.0599 -1.2853
   35MOL     C215030   2.627   0.954   7.367  0.2969  0.0612  1.0097
   35MOL     C315031   2.630   0.888   7.223 -0.0710  0.1075 -0.8681
   35MOL     C415032   2.492   0.919   7.155  0.2222 -0.7761 -0.0364
   35MOL     C515033   2.455   1.072   7.152 -0.2006  0.3693  0.4657
   35MOL     C615034   2.427   1.111   7.295 -0.2529  0.3769 -0.6793
   35MOL     C715035   2.559   1.095   7.370 -0.0414 -0.5703  0.6304
   35MOL     C815036   2.768   0.945   7.579 -0.3797 -0.0366 -0.1216
   35MOL     H915037   2.827   0.860   7.393  0.9055  0.2134 -0.3540
   35MOL    H1015038   2.559   0.889   7.422  0.0052  0.6240  1.3207
   35MOL    H1115039   2.713   0.927   7.164  1.7502 -1.4715  0.6152
   35MOL    H1215040   2.653   0.782   7.224 -0.1985  0.0847 -0.5038
   35MOL    H1315041   2.413   0.861   7.201  0.6529 -0.9546  0.4719
   35MOL    H1415042   2.480   0.896   7.049 -3.4036  2.2830 -0.3881
   35MOL    H1515043   2.363   1.099   7.100 -0.4391  2.0305  1.7149
   35MOL    H1615044   2.526   1.133   7.097 -0.5417  1.7301  1.5204
   35MOL    H1715045   2.386   1.212   7.295 -1.0442  0.0630  0.3459
   35MOL    H1815046   2.354   1.047   7.344  1.2452 -2.1778 -1.6596
   35MOL    H1915047   2.553   1.138   7.470  0.0794  1.1747 -0.0880
   35MOL    H2015048   2.637   1.157   7.325  1.0597 -2.4986 -0.2047
   35MOL    H2115049   2.747   0.843   7.610 -1.4856  0.1016 -0.4134
   35MOL    H2215050   2.692   1.014   7.616 -0.2525  0.4465 -0.7431
   35MOL    H2315051   2.824   1.033   7.385 -1.4563  0.4688 -2.3633
   35MOL    C2415052   2.906   0.985   7.647  0.6374 -0.1016  0.0208
   35MOL    C2515053   2.950   1.133   7.636 -0.9379 -0.2012 -1.0453
   35MOL    C2615054   3.100   1.144   7.653 -0.5290 -0.2462  0.1292
   35MOL    C2715055   3.158   1.285   7.639 -0.1633  0.2557  0.2598
   35MOL    C2815056   3.082   1.388   7.728 -0.8168  0.5236  0.3069
   35MOL    C2915057   2.930   1.381   7.714 -0.0953 -0.2748  0.1450
   35MOL    C3015058   2.878   1.232   7.733  0.5691  0.3951  0.6317
   35MOL    C3115059   2.917   0.920   0.022  0.1812  0.0578 -0.0606
   35MOL    H3215060   2.970   0.928   7.580  0.6057 -1.4053  1.0724
   35MOL    H3315061   2.935   1.158   7.531 -2.2219 -0.2205 -0.8732
   35MOL    H3415062   3.162   1.077   7.595 -1.2569 -0.9105  0.1039
   35MOL    H3515063   3.121   1.123   7.758 -1.9112 -1.7784  0.1208
   35MOL    H3615064   3.266   1.280   7.650 -0.1121  0.5312 -0.0952
   35MOL    H3715065   3.141   1.317   7.536  0.2929  3.1927  1.0623
   35MOL    H3815066   3.118   1.488   7.704 -0.6246  0.0936 -1.2919
   35MOL    H3915067   3.107   1.372   0.060  1.3432 -2.2843 -0.5685
   35MOL    H4015068   2.885   1.445   0.018  0.1354 -1.3546  1.2115
   35MOL    H4115069   2.894   1.411   7.616  0.0412 -1.1272 -0.1674
   35MOL    H4215070   2.903   1.221   0.067 -1.2019  0.6208  1.0905
   35MOL    H4315071   2.771   1.219   7.715  0.9709 -0.7470 -1.0137
   35MOL    H4415072   2.813   0.918   0.054  0.8035  0.3305  2.0751
   35MOL    H4515073   2.965   0.990   0.091  0.8326 -1.9335  1.5357
   35MOL    C4615074   2.981   0.778   0.035  1.0194  0.1778 -0.1705
   35MOL    C4715075   2.952   0.702   0.172 -0.3379 -0.1127  0.7215
   35MOL    C4815076   2.834   0.609   0.161  1.2151  0.2888  0.6794
   35MOL    C4915077   2.819   0.518   0.278 -0.2266  0.6574 -0.1613
   35MOL    C5015078   2.814   0.601   0.407  0.2730  0.2004  0.3164
   35MOL    C5115079   2.924   0.700   0.422 -0.1789 -0.2975  0.7030
   35MOL    C5215080   2.947   0.785   0.301  0.3288  0.0823  0.2003
   35MOL    C5315081   3.126   0.783   7.769 -0.6432 -0.2106 -0.6044
   35MOL    H5415082   2.929   0.716   7.735 -0.8336  1.9530 -0.4129
   35MOL    H5515083   3.030   0.626   0.177 -1.0333 -1.0797 -1.9846
   35MOL    H5615084   2.742   0.663   0.138  1.0378 -0.9311 -1.6886
   35MOL    H5715085   2.837   0.542   0.075 -0.2495  0.7218  0.2572
   35MOL    H5815086   2.906   0.454   0.292  1.0323  1.7780 -2.3623
   35MOL    H5915087   2.733   0.453   0.265 -0.8382  1.2030  1.1012
   35MOL    H6015088   2.717   0.649   0.422 -0.4579 -0.7294 -1.3217
   35MOL    H6115089   2.826   0.530   0.488 -0.0375 -0.1020  0.0948
   35MOL    H6215090   3.016   0.647   0.449  0.1118  0.0988  0.4875
   35MOL    H6315091   2.909   0.773   0.501 -2.2293  2.1742 -1.8738
   35MOL    H6415092   2.860   0.848   0.281  1.0729  0.2694 -2.5166
   35MOL    H6515093   3.030   0.855   0.317 -0.0309  0.4464  0.5000
   35MOL    H6615094   3.186   0.773   0.087  0.1782  0.4900 -1.0752
   35MOL    H6715095   3.152   0.878   7.724  1.1843 -0.0063  0.8440
   35MOL    C6815096   3.165   0.663   7.677  0.6870  0.3162 -0.4578
   35MOL    C6915097   3.119   0.681   7.529  0.5706 -0.2139 -0.5647
   35MOL    C7015098   3.204   0.775   7.444  0.4761 -0.0108  0.7095
   35MOL    C7115099   3.126   0.788   7.314  0.1774  0.0309 -0.2277
   35MOL    C7215100   3.089   0.659   7.243  0.1012 -0.7581 -0.1381
   35MOL    C7315101   3.044   0.536   7.333  0.2147  0.2100  0.0490
   35MOL    C7415102   3.113   0.540   7.466 -0.4777  0.1713 -0.3128
   35MOL    C7515103   3.315   0.620   7.694 -0.9609  0.2623  0.3633
   35MOL    H7615104   3.105   0.588   7.729  0.9654  0.6365  0.3484
   35MOL    H7715105   3.013   0.707   7.524  1.0967  2.3703  0.9805
   35MOL    H7815106   3.305   0.742   7.421  0.5605 -1.1339  2.6433
   35MOL    H7915107   3.224   0.868   7.497 -0.2403  0.2327  0.5619
   35MOL    H8015108   3.028   0.835   7.326  0.0363 -0.6423  1.3633
   35MOL    H8115109   3.176   0.848   7.238  0.0753 -1.7338 -1.7098
   35MOL    H8215110   3.174   0.628   7.182  0.8759 -1.3015  1.2103
   35MOL    H8315111   3.008   0.671   7.170  0.9895  0.3342 -0.9671
   35MOL    H8415112   3.069   0.445   7.280  0.9735  0.2625  0.3113
   35MOL    H8515113   2.935   0.528   7.341  0.1859  0.8270  0.3375
   35MOL    H8615114   3.212   0.496   7.452 -1.0081 -0.3721 -2.7066
   35MOL    H8715115   3.052   0.472   7.523  0.9509 -2.0924 -1.4022
   35MOL    H8815116   3.354   0.547   7.623  2.0121  0.5509  1.6408
   35MOL    H8915117   3.371   0.708   7.661  1.7875 -0.6517  2.4298
   35MOL    C9015118   3.361   0.584   0.072  0.2517  0.0478 -0.2280
   35MOL    C9115119   3.301   0.448   0.116  0.1347  0.6942 -0.7538
   35MOL    C9215120   3.365   0.324   0.056  0.3470  0.6623 -0.2097
   35MOL    C9315121   3.267   0.204   0.083 -0.0351 -0.5287 -0.2925
   35MOL    C9415122   3.227   0.189   0.231  0.3982  0.0457  0.4979
   35MOL    C9515123   3.193   0.313   0.310  0.0966 -0.1997  0.0822
   35MOL    C9615124   3.284   0.434   0.268  0.1767 -0.2743  0.3102
   35MOL    C9715125   3.519   0.592   0.081 -0.0023 -0.4253  0.0309
   35MOL    H9815126   3.329   0.655   0.148 -1.0551 -0.1756 -0.5541
   35MOL    H9915127   3.196   0.453   0.086  0.1267 -0.6699 -0.9776
   35MOL   H10015128   3.467   0.296   0.084  0.0522 -0.0666  0.1497
   35MOL   H10115129   3.370   0.346   7.721  3.1745 -2.4998 -0.8237
   35MOL   H10215130   3.318   0.109   0.067 -0.5285 -0.8900  0.2457
   35MOL   H10315131   3.181   0.196   0.017  1.1555  0.4944 -2.0076
   35MOL   H10415132   3.307   0.146   0.291 -0.1829 -0.9651  0.5663
   35MOL   H10515133   3.146   0.117   0.240 -0.6202  1.0686 -0.3492
   35MOL   H10615134   3.089   0.338   0.289  0.2379  1.5386  1.2753
   35MOL   H10715135   3.201   0.308   0.419 -0.9796 -0.9490  0.1315
   35MOL   H10815136   3.244   0.526   0.311 -1.9827 -0.4655 -1.1900
   35MOL   H10915137   3.380   0.413   0.315  0.6922 -1.6872 -1.3085
   35MOL   H11015138   3.540   0.511   0.152  1.7219  0.0449  0.0790
   35MOL   H11115139   3.560   0.556   7.758  1.6102  0.8887  0.1987
   35MOL   C11215140   3.587   0.721   0.142  0.2951 -0.3231  0.5058
   35MOL   C11315141   3.622   0.833   0.040 -0.5692 -0.2175  0.2878
   35MOL   C11415142   3.514   0.938   0.017  0.4366 -0.1730 -0.2999
   35MOL   C11515143   3.572   1.056   7.709 -0.1983 -0.4872  0.4659
   35MOL   C11615144   3.618   0.996   7.572 -0.2919 -0.5907 -0.1417
   35MOL   C11715145   3.732   0.889   7.588 -0.3132 -0.0267 -0.0555
   35MOL   C11815146   3.679   0.785   7.677 -0.0841  0.2782  0.5597
   35MOL   C11915147   3.715   0.679   0.225  0.0935 -0.4006  0.7100
   35MOL   H12015148   3.523   0.761   0.221  0.3284 -1.1377  0.9518
   35MOL   H12115149   3.704   0.887   0.088 -0.8289  0.0379  0.4469
   35MOL   H12215150   3.477   0.978   0.111  0.1055  2.8729 -1.6388
   35MOL   H12315151   3.430   0.901   7.730  0.5513 -0.1986 -0.4489
   35MOL   H12415152   3.496   1.133   7.694  1.2605  1.1989  1.3608
   35MOL   H12515153   3.645   1.110   7.770  2.7372 -2.0190 -1.5417
   35MOL   H12615154   3.538   0.946   7.518  0.3062 -0.0296 -1.5766
   35MOL   H12715155   3.659   1.071   7.504  0.5419  0.1584  1.1787
   35MOL   H12815156   3.777   0.852   7.496  2.1369 -0.6056  1.3342
   35MOL   H12915157   3.814   0.939   7.641 -0.4244  1.1493 -0.9649
   35MOL   H13015158   3.753   0.708   7.700 -3.2382 -3.2645 -0.7392
   35MOL   H13115159   3.602   0.744   7.612  1.2795 -2.2649  0.4805
   35MOL   H13215160   3.781   0.765   0.238 -0.4111  0.4159 -1.8000
   35MOL   H13315161   3.768   0.620   0.149  0.2544  1.3701 -0.5964
   35MOL   C13415162   3.696   0.603   0.357 -0.0296 -0.5394 -0.0032
   35MOL   C13515163   3.703   0.692   0.490  0.9635  0.0859 -0.6304
   35MOL   C13615164   3.604   0.813   0.490  0.9303  0.4287 -0.5887
   35MOL   C13715165   3.578   0.864   0.628  0.6573  0.4406 -0.1259
   35MOL   C13815166   3.717   0.915   0.697  0.4459 -0.1140 -0.4661
   35MOL   C13915167   3.834   0.811   0.688 -0.3811 -0.0800  0.1860
   35MOL   C14015168   3.838   0.744   0.546 -0.0617 -0.9100  0.7037
   35MOL   C14115169   3.794   0.480   0.362  0.8199 -0.0431  0.4412
   35MOL   H14215170   3.598   0.556   0.363  0.8571 -2.7411 -2.1525
   35MOL   H14315171   3.665   0.627   0.569 -1.6525  1.6256 -0.5372
   35MOL   H14415172   3.629   0.903   0.433 -0.0145  0.2643 -1.2819
   35MOL   H14515173   3.507   0.785   0.448  0.2904 -2.4963  2.5735
   35MOL   H14615174   3.526   0.789   0.689  0.2093  1.7732  1.1787
   35MOL   H14715175   3.508   0.948   0.619  0.2533 -0.1000 -2.1876
   35MOL   H14815176   3.743   1.009   0.650 -1.0135  0.8692  0.6627
   35MOL   H14915177   3.694   0.941   0.801 -1.2540 -0.8855 -0.6230
   35MOL   H15015178   3.823   0.729   0.759  1.2087  0.7532  1.4282
   35MOL   H15115179   3.930   0.852   0.720  0.2247 -0.5184 -1.0094
   35MOL   H15215180   3.882   0.818   0.478 -0.8033 -0.2795  0.8978
   35MOL   H15315181   3.914   0.667   0.532 -1.0513 -1.9375  0.9969
   35MOL   H15415182   3.898   0.511   0.370  1.1399 -0.4021 -2.0937
   35MOL   H15515183   3.774   0.426   0.270 -0.6161  1.8133 -0.3697
   35MOL   C15615184   3.773   0.374   0.480 -0.3378  0.4618  0.1004
   35MOL   C15715185   3.901   0.299   0.517 -0.0866  0.5229  0.3292
   35MOL   C15815186   3.956   0.228   0.391  0.0140  0.9232 -0.3018
   35MOL   C15915187   4.080   0.143   0.429 -0.3502 -0.2144  0.2078
   35MOL   C16015188   4.188   0.230   0.501  0.1313 -0.0078 -0.7119
   35MOL   C16115189   4.122   0.295   0.631 -0.1088  0.6598  0.4609
   35MOL   C16215190   3.999   0.383   0.604 -0.0928 -0.7426  0.1228
   35MOL   C16315191   3.649   0.282   0.482 -0.1892 -0.0875  0.0518
   35MOL   H16415192   3.759   0.435   0.569 -0.0061  0.0506  0.4396
   35MOL   H16515193   3.865   0.216   0.578 -0.4928  0.6621  0.2786
   35MOL   H16615194   3.889   0.159   0.341 -1.4445  1.2240  1.2013
   35MOL   H16715195   3.980   0.306   0.319  1.5656  1.1906  0.4633
   35MOL   H16815196   4.055   0.051   0.482 -1.4198  1.3260  2.5051
   35MOL   H16915197   4.129   0.116   0.336 -0.4489 -0.6649  0.2875
   35MOL   H17015198   4.221   0.306   0.429 -2.8238  3.8944  1.7984
   35MOL   H17115199   4.277   0.173   0.524  1.1025  1.3964 -0.9157
   35MOL   H17215200   4.202   0.351   0.680  0.6707 -0.3528  0.3739
   35MOL   H17315201   4.087   0.221   0.702 -1.8048  1.3390  0.3435
   35MOL   H17415202   3.954   0.422   0.696 -0.2360  0.4532 -0.4439
   35MOL   H17515203   4.025   0.479   0.559 -1.4405 -1.6934 -2.8239
   35MOL   H17615204   3.658   0.199   0.412 -1.3883  0.6252 -0.9790
   35MOL   H17715205   3.564   0.336   0.441 -1.4986 -1.7197  0.6004
   35MOL   C17815206   3.597   0.221   0.622  0.5719 -0.0416  0.3228
   35MOL   C17915207   3.573   0.327   0.732  0.0674 -0.1772  0.3507
   35MOL   C18015208   3.561   0.263   0.871 -0.5439 -0.3708  0.1728
   35MOL   C18115209   3.547   0.365   0.987 -0.5121  0.2321  0.5166
   35MOL   C18215210   3.431   0.462   0.958 -0.1759  0.3069 -0.3977
   35MOL   C18315211   3.444   0.533   0.820  0.6377 -0.2312  0.1947
   35MOL   C18415212   3.457   0.430   0.710 -0.1625  0.4793 -0.0332
   35MOL   C18515213   3.472   0.125   0.582 -0.0954 -0.5348 -0.1457
   35MOL   H18615214   3.679   0.154   0.649  1.8520  1.6152  0.6181
   35MOL   H18715215   3.667   0.381   0.741  0.2472 -0.8439  2.6426
   35MOL   H18815216   3.480   0.190   0.874 -1.6119  0.5551 -3.6126
   35MOL   H18915217   3.650   0.204   0.892  0.2271  0.6570 -0.2213
   35MOL   H19015218   3.639   0.423   0.993  0.2567 -0.6415 -2.3059
   35MOL   H19115219   3.526   0.311   1.079  0.4677  0.5334  0.9276
   35MOL   H19215220   3.330   0.421   0.964  0.0941 -0.1926  0.7485
   35MOL   H19315221   3.442   0.540   1.034  0.7198  0.8959 -1.1175
   35MOL   H19415222   3.527   0.603   0.820  1.5509 -1.3009 -0.2220
   35MOL   H19515223   3.351   0.588   0.805  1.6990  1.4449 -0.4114
   35MOL   H19615224   3.360   0.381   0.719 -0.5536  1.6800  2.7709
   35MOL   H19715225   3.454   0.479   0.612  1.9241  3.4291  1.2954
   35MOL   H19815226   3.383   0.181   0.554  0.1495  0.5932  1.2616
   35MOL   H19915227   3.500   0.085   0.485  0.5748  0.9606 -0.5890
   35MOL   C20015228   3.432   0.011   0.684 -0.1425  0.4093  0.2427
   35MOL   C20115229   3.286   0.026   0.720  0.0629 -0.3800  0.0109
   35MOL   C20215230   3.183   7.740   0.615 -0.4607 -0.3687 -0.1727
   35MOL   C20315231   3.040   7.769   0.660 -0.1722  0.8922 -0.4617
   35MOL   C20415232   3.004   7.716   0.801 -0.5799 -0.4605 -0.2732
   35MOL   C20515233   3.110   7.767   0.893  0.6705 -0.1286 -0.4634
   35MOL   C20615234   3.251   7.743   0.858 -0.0578  0.2769  0.3335
   35MOL   C20715235   3.475   7.644   0.625 -0.1828 -0.2173 -0.2189
   35MOL   H20815236   3.496   0.017   0.773  0.2730  0.6823 -0.0698
   35MOL   H20915237   3.269   0.134   0.717 -1.4421 -0.6321 -1.0093
   35MOL   H21015238   3.195   7.632   0.614 -0.6886 -0.3935 -0.4103
   35MOL   H21115239   3.200   7.769   0.511 -0.3996  1.1691  0.2545
   35MOL   H21215240   3.025   0.104   0.655  0.3992  0.9441 -1.0222
   35MOL   H21315241   2.964   7.728   0.592 -1.2764 -1.8352  2.3183
   35MOL   H21415242   2.903   7.745   0.831 -0.5554 -1.7476  1.1573
   35MOL   H21515243   3.010   7.607   0.804 -0.2541 -0.4401 -0.0971
   35MOL   H21615244   3.100   0.101   0.915  0.3154 -0.5642  1.5264
   35MOL   H21715245   3.106   7.716   0.989 -2.2514  0.5823 -0.1729
   35MOL   H21815246   3.326   0.020   0.921 -0.5911  1.0258  0.3925
   35MOL   H21915247   3.280   7.640   0.877 -2.3139 -0.3798  0.3891
   35MOL   H22015248   3.431   7.563   0.682 -2.2901  2.4636  2.0518
   35MOL   H22115249   3.424   7.631   0.529  2.7260 -1.0369 -1.7174
   35MOL   C22215250   3.626   7.609   0.595  0.2735  0.7315 -0.9147
   35MOL   C22315251   3.736   7.630   0.709  0.2500  0.1340 -0.1601
   35MOL   C22415252   3.877   7.648   0.652  0.7927 -0.4024  0.5997
   35MOL   C22515253   3.966   7.703   0.763 -0.0823  0.6867 -0.0011
   35MOL   C22615254   3.985   7.588   0.857  0.4750 -0.4165  0.4948
   35MOL   C22715255   3.854   7.560   0.923  0.5344 -0.1361 -0.4181
   35MOL   C22815256   3.744   7.529   0.824  0.0277 -0.2470 -0.2258
   35MOL   C22915257   3.636   7.471   0.524 -0.3482  0.2806 -0.7678
   35MOL   H23015258   3.657   7.668   0.509  2.8439 -0.5729 -0.9435
   35MOL   H23115259   3.709   7.732   0.737  3.0775  1.3317 -1.5396
   35MOL   H23215260   3.924   7.560   0.608  0.0310 -0.5175  0.0100
   35MOL   H23315261   3.879   7.717   0.567  0.0754 -1.3088 -0.1706
   35MOL   H23415262   3.914   0.009   0.818 -0.1284  0.3223  0.4694
   35MOL   H23515263   4.068   7.726   0.732  0.3879  0.0399  1.0413
   35MOL   H23615264   4.017   7.495   0.811 -1.1230 -0.7516  0.0050
   35MOL   H23715265   4.059   7.619   0.930  3.8119 -1.6910 -2.2299
   35MOL   H23815266   3.825   7.649   0.979  0.1739 -1.1032  0.9635
   35MOL   H23915267   3.872   7.476   0.990 -0.3912 -0.4217 -0.5210
   35MOL   H24015268   3.780   7.438   0.776 -1.4230 -1.9532  1.8324
   35MOL   H24115269   3.648   7.516   0.873 -0.0058 -0.2237 -0.2861
   35MOL   H24215270   3.606   7.401   0.601  0.8422  0.6589  0.0587
   35MOL   H24315271   3.741   7.451   0.499  0.9947  2.1635  3.0775
   35MOL   C24415272   3.563   7.437   0.391 -0.1981  0.1009  0.4554
   35MOL   C24515273   3.586   7.285   0.349  0.3767  0.5834  0.1399
   35MOL   C24615274   3.542   7.181   0.453  0.1830  0.5532  0.0829
   35MOL   C24715275   3.561   7.039   0.406  0.0202 -0.3082 -0.5993
   35MOL   C24815276   3.700   7.010   0.361 -0.0119  0.2271 -0.3493
   35MOL   C24915277   3.738   7.109   0.247  0.3779  0.0546  0.2872
   35MOL   C25015278   3.730   7.252   0.298 -0.3838  0.0043 -0.5624
   35MOL   C25115279   3.598   7.541   0.287 -0.1591  0.5585  0.3757
   35MOL   H25215280   3.459   7.449   0.422 -0.3733 -0.5611  0.1365
   35MOL   H25315281   3.520   7.276   0.263 -0.7385  1.5365  0.8939
   35MOL   H25415282   3.437   7.193   0.480  0.5229  2.6208  0.5549
   35MOL   H25515283   3.587   7.187   0.552 -0.9046 -1.5475  0.7441
   35MOL   H25615284   3.529   6.975   0.489 -0.2232  2.0974  1.1911
   35MOL   H25715285   3.485   7.005   0.335 -0.4248  0.7017 -0.6062
   35MOL   H25815286   3.771   7.021   0.443 -1.3133  1.0257  0.6869
   35MOL   H25915287   3.714   6.909   0.323  3.9683  0.7719 -0.5876
   35MOL   H26015288   3.662   7.102   0.169 -0.1224  2.2173  0.5457
   35MOL   H26115289   3.837   7.082   0.210  0.4593 -2.9079  2.4764
   35MOL   H26215290   3.801   7.272   0.379 -2.3285  0.0605  1.1932
   35MOL   H26315291   3.771   7.319   0.222  2.5006 -1.8711 -0.7313
   35MOL   H26415292   3.705   7.540   0.262 -0.3420  2.5302 -0.6429
   35MOL   H26515293   3.577   7.642   0.323 -0.3962  0.0075  1.7830
   35MOL   C26615294   3.527   7.521   0.149  0.8529  0.4381  0.1132
   35MOL   C26715295   3.375   7.500   0.149  0.3410  0.6695  0.1220
   35MOL   C26815296   3.311   7.458   0.012  0.8101  0.3967  0.5238
   35MOL   C26915297   3.165   7.413   0.027 -0.1523  0.2985  0.1654
   35MOL   C27015298   3.085   7.520   0.092 -0.2355 -0.2085  0.0330
   35MOL   C27115299   3.149   7.572   0.222 -0.3794  0.1405 -0.0783
   35MOL   C27215300   3.298   7.613   0.209 -0.4343  0.0347  0.8390
   35MOL   C27315301   3.568   7.625   0.040 -0.0970 -0.5154 -0.1550
   35MOL   H27415302   3.562   7.426   0.109  2.3062  0.4830  1.2275
   35MOL   H27515303   3.353   7.415   0.214  2.0788 -0.3873 -0.6473
   35MOL   H27615304   3.307   7.540   7.713 -0.6933  0.1777  0.3500
   35MOL   H27715305   3.372   7.384   7.732  1.3973 -0.0674  1.8395
   35MOL   H27815306   3.172   7.325   0.091  0.0453  0.0633 -0.1741
   35MOL   H27915307   3.128   7.387   7.700  0.0053  0.9906 -0.0778
   35MOL   H28015308   3.065   7.603   0.024 -0.1352 -0.0495  0.1989
   35MOL   H28115309   2.982   7.501   0.122  0.0082 -0.7081  0.5490
   35MOL   H28215310   3.136   7.502   0.305  0.3887 -0.6570 -0.6109
   35MOL   H28315311   3.094   7.662   0.247  2.1234  2.3077 -2.0841
   35MOL   H28415312   3.345   7.653   0.299 -0.2612 -3.2505  2.2529
   35MOL   H28515313   3.299   7.695   0.136 -0.0116 -0.8115 -0.1142
   35MOL   H28615314   3.567   7.726   0.081 -0.9426 -0.9514  0.9114
   35MOL   H28715315   3.494   7.630   7.733 -1.5447 -3.7239  0.9108
   35MOL   C28815316   3.706   7.612   7.745  0.1296  0.4039  0.2390
   35MOL   C28915317   3.783   7.743   7.726  0.3210  0.9145 -0.2030
   35MOL   C29015318   3.704   0.088   7.663  0.5706  0.3669 -0.3351
   35MOL   C29115319   3.792   0.209   7.619 -0.0109 -0.8401 -0.3643
   35MOL   C29215320   3.876   0.253   7.742 -0.6669  0.4495  0.2326
   35MOL   C29315321   3.957   0.132   0.027 -0.1576  0.0691  0.5996
   35MOL   C29415322   3.865   0.018   0.076 -0.9493 -0.2209  0.7227
   35MOL   C29515323   3.690   7.534   7.612  0.0044 -0.1327  0.1016
   35MOL   H29615324   3.773   7.553   0.036  0.6160 -0.0661 -0.6927
   35MOL   H29715325   3.867   7.727   7.659  1.2532 -0.4820  1.2518
   35MOL   H29815326   3.638   0.046   7.587 -0.1742  1.1857 -0.1525
   35MOL   H29915327   3.635   0.128   7.737  0.3869  3.4537 -2.0441
   35MOL   H30015328   3.862   0.185   7.539 -1.0379 -3.1167 -0.5906
   35MOL   H30115329   3.737   0.295   7.580  0.0982  0.6427  2.5316
   35MOL   H30215330   3.808   0.289   0.047 -0.0307  1.4457  0.3396
   35MOL   H30315331   3.945   0.331   7.713 -1.3359  1.0424  0.2380
   35MOL   H30415332   4.006   0.171   0.117 -2.2019  1.8512  0.9655
   35MOL   H30515333   4.019   0.089   7.721 -1.7590 -2.7691  0.8239
   35MOL   H30615334   3.792   0.042   0.153 -1.2194 -0.9867  0.7086
   35MOL   H30715335   3.930   7.709   0.108 -1.3588 -0.1716  1.7101
   35MOL   H30815336   3.632   7.446   7.638  0.3937 -0.7691 -1.1826
   35MOL   H30915337   3.626   7.599   7.552  0.9647  1.2768  0.5672
   35MOL   C31015338   3.815   7.470   7.541  0.4552  0.6399 -0.5699
   35MOL   C31115339   3.806   7.313   7.510 -0.6122 -0.8095  0.0923
   35MOL   C31215340   3.784   7.213   7.623 -0.2409 -0.5502 -0.2265
   35MOL   C31315341   3.761   7.074   7.577 -0.3575  0.1366 -0.0177
   35MOL   C31415342   3.642   7.050   7.477  0.1048 -0.9514 -0.2344
   35MOL   C31515343   3.681   7.139   7.353  0.3512 -0.1137 -0.3714
   35MOL   C31615344   3.696   7.292   7.396 -0.1354  0.6372  0.0074
   35MOL   C31715345   3.852   7.563   7.427  0.1275 -0.1922 -0.0964
   35MOL   H31815346   3.904   7.479   7.605 -0.0365  0.9776  0.0751
   35MOL   H31915347   3.906   7.286   7.477 -0.0268  2.7852 -1.3083
   35MOL   H32015348   3.863   7.218   7.699 -0.5785 -0.5986  0.1279
   35MOL   H32115349   3.690   7.230   7.675 -0.4029  1.5864 -1.1672
   35MOL   H32215350   3.735   7.013   7.664 -0.7941  0.5286  0.1302
   35MOL   H32315351   3.856   7.033   7.544  1.3963  3.1862  1.1147
   35MOL   H32415352   3.637   6.945   7.446 -1.8174 -0.5699 -1.2582
   35MOL   H32515353   3.546   7.075   7.522 -1.2155 -2.1521 -2.3124
   35MOL   H32615354   3.771   7.096   7.310 -2.0207 -5.4206 -0.4031
   35MOL   H32715355   3.600   7.138   7.281  0.6671  0.9212 -0.7545
   35MOL   H32815356   3.604   7.332   7.437  1.2458  0.0318  3.9352
   35MOL   H32915357   3.711   7.346   7.302  0.6591 -1.3843 -1.0731
   35MOL   H33015358   3.849   7.669   7.451  4.9203 -0.6965  3.4622
   35MOL   H33115359   3.765   7.551   7.361 -0.0464 -0.7860  0.2363
   35MOL   C33215360   3.981   7.529   7.344  0.3335  1.2444 -0.1567
   35MOL   C33315361   4.119   7.526   7.422  0.3149  0.5326 -0.3254
   35MOL   C33415362   4.156   7.661   7.482 -1.0341 -0.2508  0.6587
   35MOL   C33515363   4.288   7.634   7.563 -0.2155 -0.0615  0.0028
   35MOL   C33615364   4.401   7.581   7.475 -0.4004 -0.6921  0.0687
   35MOL   C33715365   4.367   7.445   7.409 -0.4784 -0.0802 -0.1033
   35MOL   C33815366   4.230   7.464   7.335  0.6875  0.1114  0.4065
   35MOL   C33915367   3.980   7.622   7.219 -0.8481 -0.0766 -0.0085
   35MOL   H34015368   3.970   7.427   7.308  2.4446  1.7141 -2.2752
   35MOL   H34115369   4.110   7.455   7.503  0.5776  1.4206  0.4871
   35MOL   H34215370   4.175   7.730   7.400 -2.0832  0.4364  0.9795
   35MOL   H34315371   4.081   7.712   7.544 -0.4551  0.8952  0.4376
   35MOL   H34415372   4.314   7.731   7.607  1.1405 -0.0128 -0.8681
   35MOL   H34515373   4.260   7.583   7.655  1.1698  0.8136  0.9353
   35MOL   H34615374   4.422   7.651   7.394 -4.8029  1.1412  0.3584
   35MOL   H34715375   4.489   7.564   7.538 -0.8419 -1.0038  0.6024
   35MOL   H34815376   4.368   7.378   7.495  0.6829  0.3454  0.2297
   35MOL   H34915377   4.452   7.413   7.348 -0.1825 -1.9736  1.2783
   35MOL   H35015378   4.197   7.368   7.295  0.5849  1.4284 -2.8868
   35MOL   H35115379   4.237   7.520   7.241 -1.3712  0.5314  0.4609
   35MOL   H35215380   4.082   7.638   7.184 -0.9762 -1.5228 -1.0598
   35MOL   H35315381   3.956   7.722   7.255  0.1719  0.0646  0.2882
   35MOL   C35415382   3.882   7.579   7.107 -0.2431  0.4987 -0.0693
   35MOL   C35515383   3.939   7.466   7.014  0.4840  0.2879  0.0493
   35MOL   C35615384   4.040   7.512   6.908 -0.9546  0.2913  0.4014
   35MOL   C35715385   4.118   7.392   6.847  0.1764 -0.3903 -0.0248
   35MOL   C35815386   4.017   7.287   6.790  0.8941  0.0054  0.2877
   35MOL   C35915387   3.903   7.247   6.885  0.5589 -0.3720  0.2382
   35MOL   C36015388   3.835   7.372   6.946  0.3865 -0.7319 -0.5889
   35MOL   C36115389   3.838   7.708   7.035  0.7118  1.0699 -0.7009
   35MOL   H36215390   3.793   7.534   7.151 -0.3089  0.3240 -0.3819
   35MOL   H36315391   3.989   7.393   7.078  1.2288 -1.2390 -2.1807
   35MOL   H36415392   4.121   7.566   6.956 -1.1989  1.1845 -0.1766
   35MOL   H36515393   3.989   7.577   6.837 -0.8352  0.6290  0.6231
   35MOL   H36615394   4.192   7.404   6.768  0.7697  1.5554  0.8211
   35MOL   H36715395   4.178   7.348   6.926  2.4660  1.4315 -0.6952
   35MOL   H36815396   3.962   7.321   6.702 -0.8601 -1.4803  0.8062
   35MOL   H36915397   4.068   7.197   6.755  0.0371 -0.6929  0.8072
   35MOL   H37015398   3.830   7.195   6.823  1.3064 -1.6047  0.3793
   35MOL   H37115399   3.952   7.186   6.960 -0.4466 -0.0541  1.1686
   35MOL   H37215400   3.750   7.344   7.009  1.2008  0.2704  0.9919
   35MOL   H37315401   3.782   7.424   6.866  1.0323  1.1007  0.1371
   35MOL   H37415402   3.809   7.676   6.934 -0.0390 -0.8780  0.1084
   35MOL   H37515403   3.925   0.001   7.033  1.1229  0.5616  0.3347
   35MOL   C37615404   3.709   7.762   7.095 -0.7583  0.6901 -0.8384
   35MOL   C37715405   3.711   0.144   7.088 -0.0219 -0.2698  0.0536
   35MOL   C37815406   3.735   0.192   6.941  0.0399 -0.3666  0.3395
   35MOL   C37915407   3.740   0.345   6.920  0.3845  0.3043 -0.1600
   35MOL   C38015408   3.827   0.403   7.032  0.1366 -0.5428 -0.3186
   35MOL   C38115409   3.797   0.355   7.170  0.1161 -0.2649 -0.1006
   35MOL   C38215410   3.820   0.206   7.175 -0.0152 -0.0676  0.6819
   35MOL   C38315411   3.593   7.691   7.027  0.2393 -0.0640  0.6963
   35MOL   H38415412   3.710   7.735   7.200  0.5256 -3.3044 -1.7982
   35MOL   H38515413   3.612   0.176   7.119 -0.2803 -2.1598  1.2778
   35MOL   H38615414   3.827   0.151   6.899 -0.7966 -0.1945 -1.7152
   35MOL   H38715415   3.647   0.158   6.886 -0.7882  1.9609  0.1942
   35MOL   H38815416   3.646   0.402   6.921 -0.0036 -0.2243 -2.8849
   35MOL   H38915417   3.777   0.374   6.821  0.5954  1.2593  0.1896
   35MOL   H39015418   3.934   0.391   7.014  0.3618  1.3970 -0.3229
   35MOL   H39115419   3.805   0.509   7.031 -0.1074 -0.5531  1.4553
   35MOL   H39215420   3.859   0.402   7.246  1.2008 -0.2405 -0.9949
   35MOL   H39315421   3.694   0.384   7.193 -0.1755 -0.0755 -1.5530
   35MOL   H39415422   3.917   0.180   7.134  0.6211  0.1294  2.0387
   35MOL   H39515423   3.803   0.167   7.275 -0.0853 -0.6499  0.4409
   35MOL   H39615424   3.599   7.582   7.034  1.9422  0.0841  1.6823
   35MOL   H39715425   3.586   7.710   6.920  0.3309  0.3562  0.7649
   35MOL   C39815426   3.454   7.738   7.092 -0.0898  0.2282  0.5810
   35MOL   C39915427   3.383   0.080   7.010  0.0679  0.1500  0.4224
   35MOL   C40015428   3.312   0.041   6.871  0.0263 -0.7337  0.0588
   35MOL   C40115429   3.242   0.161   6.800  0.5127  0.0332 -0.2068
   35MOL   C40215430   3.142   0.228   6.897 -0.2428  0.0141 -1.0401
   35MOL   C40315431   3.210   0.271   7.030  0.5620  0.4607  0.0994
   35MOL   C40415432   3.280   0.148   7.095  0.0576  0.2756  0.2897
   35MOL   C40515433   3.355   7.611   7.096 -0.2761  0.3891  0.4824
   35MOL   H40615434   3.480   7.769   7.193  1.5419  0.6240  0.0496
   35MOL   H40715435   3.463   0.151   6.991  1.6835 -1.5828  0.5140
   35MOL   H40815436   3.249   7.728   6.894 -1.1164  0.7781  2.6674
   35MOL   H40915437   3.385   0.012   6.795  0.0034  0.0191 -0.2618
   35MOL   H41015438   3.201   0.119   6.708 -1.9761 -0.5823  1.1275
   35MOL   H41115439   3.313   0.239   6.771 -0.2024  0.2441 -1.4826
   35MOL   H41215440   3.070   0.146   6.907 -1.1165  1.1010  2.3988
   35MOL   H41315441   3.077   0.303   6.852  0.3303  1.0304 -0.2127
   35MOL   H41415442   3.285   0.349   7.015 -0.5551  1.5932  0.3032
   35MOL   H41515443   3.124   0.304   7.089 -1.3031 -1.7580 -1.2924
   35MOL   H41615444   3.309   0.181   7.194 -0.6583 -1.8857  1.2453
   35MOL   H41715445   3.204   0.082   7.137 -0.1369 -0.5084 -1.2685
   35MOL   H41815446   3.254   7.650   7.109 -0.3595  0.1301  0.5989
   35MOL   H41915447   3.356   7.565   6.998  2.8747  1.4257 -0.0477
   35MOL   C42015448   3.377   7.518   7.218 -0.1336 -0.3519 -0.6847
   35MOL   C42115449   3.327   7.370   7.197 -0.0260  0.3433  0.4047
   35MOL   C42215450   3.404   7.286   7.086  0.0984 -0.6186  0.4481
   35MOL   C42315451   3.345   7.142   7.067 -0.2360 -0.1560  0.5495
   35MOL   C42415452   3.200   7.148   7.042 -0.5716 -0.5236 -0.2638
   35MOL   C42515453   3.122   7.210   7.160  0.1484  0.2836  0.4299
   35MOL   C42615454   3.173   7.358   7.174 -0.0330 -0.8367  0.3301
   35MOL   C42715455   3.322   7.581   7.348  0.0471 -0.0873  0.0285
   35MOL   H42815456   3.485   7.505   7.224 -0.4341 -2.2912  1.2099
   35MOL   H42915457   3.347   7.321   7.293  2.4680 -2.0276 -1.2513
   35MOL   H43015458   3.403   7.329   6.985  0.8895 -1.9069 -0.1244
   35MOL   H43115459   3.510   7.269   7.103  0.2157  0.9636  1.3700
   35MOL   H43215460   3.397   7.078   6.996 -0.1672  0.8823 -0.3551
   35MOL   H43315461   3.363   7.082   7.156 -1.3390  1.1867  1.6972
   35MOL   H43415462   3.173   7.043   7.026  0.4016 -0.6213 -1.3846
   35MOL   H43515463   3.177   7.210   6.955  1.0350  1.2883  0.5673
   35MOL   H43615464   3.159   7.168   7.254 -1.3432  2.7627  2.2053
   35MOL   H43715465   3.014   7.204   7.145  0.0735 -0.8603  1.3900
   35MOL   H43815466   3.138   7.413   7.087  1.1506 -2.6196 -1.2964
   35MOL   H43915467   3.118   7.392   7.262 -1.8002 -0.0722 -1.0277
   35MOL   H44015468   3.349   7.513   7.429 -0.0894 -0.6073 -0.3617
   35MOL   H44115469   3.378   7.674   7.357 -1.6916  0.9349  0.6179
   35MOL   H44215470   3.215   7.600   7.351  0.1076  0.1700  0.5571
   36MOL     C115471   7.187   3.268   3.985  0.2929  0.1827  0.1404
   36MOL     C215472   7.294   3.199   3.896  0.3948 -0.4385 -0.0308
   36MOL     C315473   7.271   3.205   3.745 -0.0936  0.3880  0.1501
   36MOL     C415474   7.342   3.115   3.654  0.1466  0.7225 -0.3690
   36MOL     C515475   7.370   2.979   3.713 -0.7325  0.1259 -0.2001
   36MOL     C615476   7.424   2.983   3.855  0.2644  0.5479 -0.7441
   36MOL     C715477   7.331   3.062   3.948 -0.7902  0.8386  0.1935
   36MOL     C815478   7.163   3.413   3.938  0.0883 -0.2617 -0.0516
   36MOL     H915479   7.097   3.207   3.991  1.2358 -1.2393  0.1634
   36MOL    H1015480   7.390   3.250   3.906 -0.3399  0.9328  0.1092
   36MOL    H1115481   7.165   3.183   3.738  0.1646 -0.4469 -1.5072
   36MOL    H1215482   7.293   3.305   3.709  1.1729 -0.4111 -1.4081
   36MOL    H1315483   7.441   3.160   3.645  0.3693  0.3921  0.3441
   36MOL    H1415484   7.288   3.114   3.560  0.6352 -0.7828 -0.6528
   36MOL    H1515485   7.432   2.913   3.651 -1.3096  0.3756 -1.0515
   36MOL    H1615486   7.287   2.908   3.715  0.0109 -0.8684 -2.8073
   36MOL    H1715487   7.432   2.880   3.888 -3.0238 -0.4348 -2.8163
   36MOL    H1815488   7.528   3.013   3.870  0.5146 -0.7736  0.1875
   36MOL    H1915489   7.376   3.066   4.047  0.6937  2.5227 -0.5244
   36MOL    H2015490   7.242   2.999   3.957 -0.8370  0.8461 -0.2131
   36MOL    H2115491   7.147   3.419   3.830 -1.4686 -0.0392  0.1845
   36MOL    H2215492   7.246   3.479   3.963  0.8399 -0.3923 -2.1387
   36MOL    H2315493   7.224   3.266   4.087  0.1870  0.2253  0.1793
   36MOL    C2415494   7.032   3.463   4.006 -0.4388  0.2994 -0.2573
   36MOL    C2515495   7.037   3.618   4.000  0.7303  0.3256  0.2336
   36MOL    C2615496   7.052   3.684   3.862 -0.2728 -0.0882 -0.5355
   36MOL    C2715497   7.058   3.840   3.855 -0.6126  0.0926  0.3086
   36MOL    C2815498   7.147   3.895   3.963 -0.0940 -0.4477 -0.0643
   36MOL    C2915499   7.105   3.836   4.101  0.6332 -0.5667 -0.6052
   36MOL    C3015500   7.117   3.681   4.102  0.5892 -0.0578  0.2546
   36MOL    C3115501   6.913   3.400   3.928  0.9670 -0.0308 -0.3499
   36MOL    H3215502   7.034   3.427   4.108  1.7367 -0.3778 -0.5238
   36MOL    H3315503   6.936   3.644   4.030  0.4309  0.3947 -0.7870
   36MOL    H3415504   6.983   3.640   3.789  0.9088 -0.1984 -1.6087
   36MOL    H3515505   7.153   3.659   3.829 -0.0183 -1.0821  0.9419
   36MOL    H3615506   7.092   3.872   3.756  0.2247 -0.5437  0.3888
   36MOL    H3715507   6.953   3.869   3.861  0.0415  2.7258 -0.4029
   36MOL    H3815508   7.134   4.003   3.973 -0.0924 -0.3626 -0.9080
   36MOL    H3915509   7.253   3.881   3.942  0.0002  1.0857 -0.6976
   36MOL    H4015510   7.162   3.885   4.180  0.5758 -0.1579 -0.8149
   36MOL    H4115511   7.000   3.860   4.121  0.4531 -1.5531 -0.3497
   36MOL    H4215512   7.217   3.645   4.078  0.9776  0.2305  1.4080
   36MOL    H4315513   7.094   3.636   4.199 -0.4740  0.6678  0.3483
   36MOL    H4415514   6.922   3.292   3.930  0.6588 -0.0221  2.3783
   36MOL    H4515515   6.933   3.423   3.823  0.4857  1.4898 -0.1219
   36MOL    C4615516   6.767   3.445   3.955  1.1415 -0.5271 -0.0946
   36MOL    C4715517   6.714   3.428   4.105  0.1894 -0.1639  0.2784
   36MOL    C4815518   6.723   3.279   4.159  0.3170 -0.1906  0.4062
   36MOL    C4915519   6.686   3.278   4.307  0.0830  0.4923 -0.0756
   36MOL    C5015520   6.561   3.353   4.338 -0.1006 -0.1802 -1.0112
   36MOL    C5115521   6.555   3.493   4.283 -0.7610 -0.2510  0.3556
   36MOL    C5215522   6.579   3.497   4.130  0.3195  0.2761 -0.1542
   36MOL    C5315523   6.673   3.381   3.850  0.4347  0.4636 -0.0776
   36MOL    H5415524   6.768   3.551   3.930 -1.1821  0.0263  1.9514
   36MOL    H5515525   6.788   3.491   4.155  1.5043 -0.0310 -1.7862
   36MOL    H5615526   6.656   3.219   4.098 -0.5171  0.3262  0.8139
   36MOL    H5715527   6.829   3.252   4.151  0.2890 -0.3416  0.5245
   36MOL    H5815528   6.771   3.328   4.352  1.4202 -0.4676 -1.4462
   36MOL    H5915529   6.695   3.180   4.355  1.5702  1.8176  2.4544
   36MOL    H6015530   6.477   3.291   4.309 -0.3126 -1.2358  1.6964
   36MOL    H6115531   6.540   3.363   4.445 -2.2344 -1.0145 -1.3396
   36MOL    H6215532   6.628   3.560   4.330 -0.0971 -1.0317  0.4388
   36MOL    H6315533   6.461   3.545   4.304 -1.3551 -0.7460 -1.0198
   36MOL    H6415534   6.496   3.449   4.079  0.6334  0.0769 -0.4780
   36MOL    H6515535   6.582   3.601   4.097  2.8975  1.0142  2.1305
   36MOL    H6615536   6.570   3.396   3.884  0.0993  0.7520 -1.1828
   36MOL    H6715537   6.684   3.272   3.852 -0.1832  0.4145  1.1517
   36MOL    C6815538   6.679   3.426   3.705  0.1554  0.0382 -0.4149
   36MOL    C6915539   6.608   3.314   3.620  0.5137  0.1337 -0.6067
   36MOL    C7015540   6.693   3.193   3.585 -0.4149  0.4681  0.3534
   36MOL    C7115541   6.618   3.105   3.477 -1.0127 -0.7285  0.1077
   36MOL    C7215542   6.481   3.063   3.520  0.2604 -0.1372 -0.2622
   36MOL    C7315543   6.395   3.187   3.545  0.0138  0.3279 -0.4937
   36MOL    C7415544   6.459   3.277   3.653  0.1192 -0.2292 -0.4329
   36MOL    C7515545   6.617   3.576   3.690 -0.3267  0.0102  0.5251
   36MOL    H7615546   6.781   3.431   3.665 -0.5665  0.1098 -2.2906
   36MOL    H7715547   6.590   3.370   3.528  0.2686  0.1780 -0.5333
   36MOL    H7815548   6.704   3.129   3.673 -0.1763 -0.9661 -0.7116
   36MOL    H7915549   6.791   3.224   3.547 -1.2823  0.9123 -1.5913
   36MOL    H8015550   6.618   3.167   3.387  0.2431  2.8950  2.5156
   36MOL    H8115551   6.677   3.013   3.469 -1.0661 -0.8780  1.3770
   36MOL    H8215552   6.496   3.005   3.611 -0.7881 -0.1974 -0.1243
   36MOL    H8315553   6.432   3.008   3.440 -2.7680  2.6278 -0.4341
   36MOL    H8415554   6.296   3.167   3.584  0.4876  1.0142  1.1108
   36MOL    H8515555   6.396   3.246   3.453  2.4353 -0.8030 -1.2571
   36MOL    H8615556   6.452   3.233   3.752 -1.2521  0.3846 -0.2440
   36MOL    H8715557   6.400   3.366   3.671 -0.0789 -0.8550  2.1555
   36MOL    H8815558   6.515   3.572   3.728 -0.8683 -1.1422 -0.9907
   36MOL    H8915559   6.665   3.640   3.764 -1.7109 -0.5885  1.9637
   36MOL    C9015560   6.622   3.631   3.547 -0.1064 -0.0703  0.7067
   36MOL    C9115561   6.535   3.759   3.527  0.0432  0.0125 -0.2904
   36MOL    C9215562   6.377   3.732   3.518 -1.1696 -0.1361  0.4202
   36MOL    C9315563   6.300   3.857   3.500  0.4910  0.1199 -0.1971
   36MOL    C9415564   6.343   3.959   3.612  0.4712  0.2814  0.0654
   36MOL    C9515565   6.489   4.001   3.588  1.1186  0.1045 -0.0042
   36MOL    C9615566   6.574   3.876   3.618 -0.2417  0.2463 -0.2697
   36MOL    C9715567   6.768   3.649   3.494 -0.1691 -0.6488 -0.1614
   36MOL    H9815568   6.575   3.559   3.479 -0.9823  1.2031 -0.0442
   36MOL    H9915569   6.565   3.796   3.429  2.5036  0.4951  0.5953
   36MOL   H10015570   6.346   3.692   3.615 -1.0130 -0.3075  0.3998
   36MOL   H10115571   6.360   3.650   3.449 -0.9506 -0.1476  0.3800
   36MOL   H10215572   6.193   3.837   3.512  0.8341 -1.5144  0.2247
   36MOL   H10315573   6.326   3.901   3.403  3.6094  1.8943  1.3730
   36MOL   H10415574   6.342   3.909   3.709 -1.9422  0.8303  0.3778
   36MOL   H10515575   6.278   4.046   3.610  0.9427  0.6778  1.5789
   36MOL   H10615576   6.495   4.044   3.488 -1.0333  1.1644  0.2820
   36MOL   H10715577   6.512   4.076   3.665  1.1976  0.3222 -0.2403
   36MOL   H10815578   6.680   3.900   3.614  0.1129 -1.1782  0.1820
   36MOL   H10915579   6.561   3.839   3.720 -2.1684  2.9486  0.5075
   36MOL   H11015580   6.777   3.754   3.466  2.2517 -0.8251 -0.2013
   36MOL   H11115581   6.834   3.635   3.580  1.1458  0.9870 -0.8742
   36MOL   C11215582   6.800   3.549   3.382  0.0794  0.0148 -0.4152
   36MOL   C11315583   6.943   3.524   3.362  0.5107  0.3833 -0.3581
   36MOL   C11415584   7.021   3.443   3.469  1.0181  0.4067  0.1901
   36MOL   C11515585   7.150   3.389   3.408 -0.4089 -0.5178 -0.0349
   36MOL   C11615586   7.239   3.506   3.352 -0.9168  0.4335  0.7342
   36MOL   C11715587   7.157   3.583   3.250  0.3777  0.3089  0.9324
   36MOL   C11815588   7.030   3.643   3.307  0.2593  0.6312  0.3602
   36MOL   C11915589   6.725   3.576   3.252 -0.4467  0.3865  0.0238
   36MOL   H12015590   6.765   3.454   3.422 -0.3161  0.7758  1.0682
   36MOL   H12115591   6.946   3.454   3.279  1.2583  0.4561 -0.3922
   36MOL   H12215592   6.957   3.360   3.499 -1.3557  1.6831 -1.2279
   36MOL   H12315593   7.026   3.490   3.567 -1.7428 -0.7771  0.9353
   36MOL   H12415594   7.199   3.325   3.482 -0.9818 -2.6434 -1.4223
   36MOL   H12515595   7.131   3.322   3.324  0.1694 -0.7794  0.0346
   36MOL   H12615596   7.276   3.561   3.438  2.0431 -1.0663  0.4642
   36MOL   H12715597   7.320   3.458   3.297 -2.1707 -0.2168 -0.6238
   36MOL   H12815598   7.215   3.672   3.223 -1.8986  0.6711 -3.0026
   36MOL   H12915599   7.145   3.518   3.163  1.2649  1.5897 -0.1697
   36MOL   H13015600   6.988   3.702   3.226  0.0661  1.3731  0.9897
   36MOL   H13115601   7.040   3.704   3.397 -3.8913  0.5247  0.9723
   36MOL   H13215602   6.787   3.637   3.186 -0.9816  0.5294 -0.3521
   36MOL   H13315603   6.659   3.660   3.276  0.6835  1.1118  0.6520
   36MOL   C13415604   6.653   3.457   3.182 -0.0540  0.0165 -0.0607
   36MOL   C13515605   6.743   3.346   3.121  0.0651 -0.7492 -0.7194
   36MOL   C13615606   6.837   3.397   3.007 -0.8743  0.6579 -0.0164
   36MOL   C13715607   6.943   3.295   2.956 -0.2689  0.1828  0.0733
   36MOL   C13815608   6.872   3.163   2.920 -0.8144 -0.2986  0.1044
   36MOL   C13915609   6.777   3.110   3.029  0.2814  0.3210 -0.2476
   36MOL   C14015610   6.676   3.214   3.075  0.2258  0.1480  0.2694
   36MOL   C14115611   6.556   3.513   3.081 -0.0059 -0.8818  0.1964
   36MOL   H14215612   6.610   3.411   3.270 -0.5269  0.4441 -0.0631
   36MOL   H14315613   6.813   3.322   3.202 -1.2848  1.4038  1.1673
   36MOL   H14415614   6.784   3.424   2.916  0.7152  2.5576 -0.4201
   36MOL   H14515615   6.895   3.487   3.028 -0.0629  0.6911 -2.3203
   36MOL   H14615616   7.017   3.280   3.035 -0.8685  1.0629  0.8156
   36MOL   H14715617   6.989   3.339   2.868  1.3569  2.5871  2.0552
   36MOL   H14815618   6.829   3.163   2.819 -0.2868  0.4409 -0.1159
   36MOL   H14915619   6.949   3.088   2.903  0.0272  0.8186 -1.0705
   36MOL   H15015620   6.828   3.090   3.124 -2.0671 -0.9914  0.8013
   36MOL   H15115621   6.726   3.025   2.984  2.9426 -0.4755 -1.8251
   36MOL   H15215622   6.599   3.236   3.000  0.3241  1.2012  0.4793
   36MOL   H15315623   6.627   3.174   3.163  0.6860 -1.2169 -0.0833
   36MOL   H15415624   6.552   3.442   2.998 -0.5626 -0.6131 -0.0165
   36MOL   H15515625   6.601   3.583   3.010 -1.4816  1.6053  1.6345
   36MOL   C15615626   6.411   3.546   3.131  0.4497  0.0931  0.2929
   36MOL   C15715627   6.333   3.413   3.152 -0.0149  0.7294 -0.4710
   36MOL   C15815628   6.216   3.422   3.253  0.6473  0.9534  0.4212
   36MOL   C15915629   6.153   3.284   3.285 -0.5764 -0.1113 -0.9241
   36MOL   C16015630   6.112   3.214   3.153  0.4728 -0.5650  0.0635
   36MOL   C16115631   6.224   3.208   3.058  0.0062  0.0809  0.3134
   36MOL   C16215632   6.295   3.339   3.025 -0.4659  0.5145 -0.1323
   36MOL   C16315633   6.330   3.636   3.033 -0.7117 -0.1605 -0.0659
   36MOL   H16415634   6.419   3.599   3.226 -1.3527 -0.5317  0.8198
   36MOL   H16515635   6.401   3.351   3.210  2.0821  1.0646 -2.5102
   36MOL   H16615636   6.252   3.448   3.352  1.6525  0.3470  0.2270
   36MOL   H16715637   6.137   3.494   3.232  0.5551  1.6527  2.9937
   36MOL   H16815638   6.218   3.212   3.335 -1.1633 -0.3203 -0.4554
   36MOL   H16915639   6.068   3.290   3.353  0.0538 -2.1175  0.0740
   36MOL   H17015640   6.029   3.269   3.109  2.0706  0.9896 -1.0961
   36MOL   H17115641   6.069   3.116   3.172 -0.5150 -0.2963 -0.7160
   36MOL   H17215642   6.181   3.179   2.962 -0.3961  0.0760  0.4938
   36MOL   H17315643   6.290   3.127   3.088 -0.4467  0.0116  1.1388
   36MOL   H17415644   6.382   3.326   2.960  0.8054 -3.2596  2.1475
   36MOL   H17515645   6.219   3.395   2.970  0.1170  1.4912  0.0499
   36MOL   H17615646   6.228   3.605   3.053 -0.5255 -1.0228 -0.4079
   36MOL   H17715647   6.345   3.600   2.931 -0.7970 -2.2121  0.6065
   36MOL   C17815648   6.336   3.794   3.037  0.0599  0.1699 -0.3080
   36MOL   C17915649   6.478   3.850   3.026 -0.5394 -1.2426  0.0985
   36MOL   C18015650   6.499   3.989   3.085 -0.2829 -0.0342 -0.2183
   36MOL   C18115651   6.652   4.037   3.093 -0.7628  0.6684 -0.5226
   36MOL   C18215652   6.707   4.044   2.955  0.6800  0.3606  0.1809
   36MOL   C18315653   6.685   3.903   2.888  0.6178 -0.0627  0.1592
   36MOL   C18415654   6.536   3.850   2.881  0.4873  0.0125 -0.2892
   36MOL   C18515655   6.231   3.846   2.933  0.1358  0.9246 -0.0222
   36MOL   H18615656   6.297   3.823   3.134  1.7661  0.8820  0.1771
   36MOL   H18715657   6.532   3.785   3.095 -0.1369 -0.0463  0.9213
   36MOL   H18815658   6.427   4.058   3.040 -3.6133 -1.7379  2.1950
   36MOL   H18915659   6.468   4.002   3.189 -1.9193  0.4239 -0.7474
   36MOL   H19015660   6.708   3.958   3.145 -1.6277 -0.2969 -1.0385
   36MOL   H19115661   6.679   4.126   3.149  0.2809  2.0540 -3.1444
   36MOL   H19215662   6.663   4.125   2.897  0.1376  0.3072  0.5227
   36MOL   H19315663   6.815   4.054   2.967  0.5847 -0.6948  2.1172
   36MOL   H19415664   6.728   3.816   2.937  0.8444 -0.0165  0.0429
   36MOL   H19515665   6.733   3.903   2.790 -1.7991 -0.3379 -1.0623
   36MOL   H19615666   6.489   3.932   2.827  0.9609 -0.1864 -1.0090
   36MOL   H19715667   6.512   3.757   2.830  1.0604 -1.0677  1.3683
   36MOL   H19815668   6.255   3.945   2.895  0.7210  1.0039  0.5329
   36MOL   H19915669   6.244   3.780   2.847  0.5434 -0.5651  1.1605
   36MOL   C20015670   6.085   3.843   2.985 -0.5678  0.1909 -0.0504
   36MOL   C20115671   6.048   3.987   3.039 -0.4679  0.5351  0.2604
   36MOL   C20215672   6.129   4.041   3.156 -0.3706  0.4381  0.0156
   36MOL   C20315673   6.076   4.169   3.215 -0.4638 -0.2547 -0.5436
   36MOL   C20415674   6.060   4.278   3.103  0.1216  0.1221 -0.0513
   36MOL   C20515675   5.976   4.230   2.988 -0.4196 -0.1712 -0.2359
   36MOL   C20615676   6.035   4.098   2.935 -0.8226 -0.5968 -0.5308
   36MOL   C20715677   5.977   3.796   2.883 -0.2658 -0.3740  0.9474
   36MOL   H20815678   6.076   3.776   3.071  1.5250  0.4195  0.3909
   36MOL   H20915679   5.946   3.976   3.074 -1.0380 -0.5909 -1.6758
   36MOL   H21015680   6.237   4.033   3.139 -0.2581  0.1487  0.8368
   36MOL   H21115681   6.125   3.963   3.232  1.0999 -0.3479 -0.6814
   36MOL   H21215682   5.986   4.145   3.271  0.2611 -1.7588  0.0092
   36MOL   H21315683   6.142   4.208   3.294 -0.2456 -0.4505 -0.6307
   36MOL   H21415684   6.006   4.360   3.150  0.0149 -0.7833  1.4528
   36MOL   H21515685   6.157   4.314   3.070 -0.7124  1.4286 -1.1206
   36MOL   H21615686   5.872   4.217   3.018 -0.5275  1.3270  0.0300
   36MOL   H21715687   5.991   4.301   2.907 -1.9760  1.9916  1.3411
   36MOL   H21815688   5.960   4.073   2.860 -2.5507  0.3951  0.8313
   36MOL   H21915689   6.134   4.119   2.894 -0.1310 -1.0475  0.8561
   36MOL   H22015690   5.884   3.849   2.904 -0.0220 -0.5071  2.4362
   36MOL   H22115691   6.013   3.835   2.788 -0.5296 -1.9201  0.2018
   36MOL   C22215692   5.945   3.648   2.865 -0.0135 -0.5157  0.7607
   36MOL   C22315693   6.055   3.573   2.785 -0.1663 -0.3982 -0.4140
   36MOL   C22415694   6.075   3.628   2.640  0.3075 -0.2583 -0.1758
   36MOL   C22515695   6.186   3.554   2.577 -0.3466 -0.6429  0.1753
   36MOL   C22615696   6.142   3.410   2.553 -0.7774  0.3699  0.0176
   36MOL   C22715697   6.114   3.330   2.683  0.4702 -0.1893 -0.3195
   36MOL   C22815698   6.010   3.424   2.760 -0.5627 -0.5149 -0.2185
   36MOL   C22915699   5.913   3.585   2.997  0.2978 -0.6549  0.3164
   36MOL   H23015700   5.857   3.629   2.804 -1.2398 -0.6777  2.5593
   36MOL   H23115701   6.140   3.575   2.853  0.6792 -4.0854 -1.2863
   36MOL   H23215702   5.990   3.622   2.572  0.7038 -1.6593 -0.5482
   36MOL   H23315703   6.112   3.731   2.643 -0.8800  0.2824 -3.1461
   36MOL   H23415704   6.278   3.556   2.635  0.2761 -0.1836 -0.8096
   36MOL   H23515705   6.190   3.603   2.480 -3.0138 -1.3124 -0.3073
   36MOL   H23615706   6.050   3.408   2.494 -0.0409  2.0594 -1.2240
   36MOL   H23715707   6.210   3.351   2.492 -1.7639  0.0945 -0.8362
   36MOL   H23815708   6.202   3.312   2.744 -1.2633 -0.9267  2.0356
   36MOL   H23915709   6.064   3.237   2.656 -0.5526  0.3308 -0.2348
   36MOL   H24015710   5.916   3.438   2.708 -0.8544  1.9214  0.9158
   36MOL   H24115711   5.986   3.377   2.855 -0.6066 -0.7147 -0.3275
   36MOL   H24215712   6.002   3.571   3.058  0.2090  0.6181  0.7433
   36MOL   H24315713   5.876   3.485   2.976  0.0925  0.3697 -4.6105
   36MOL   C24415714   5.791   3.653   3.077  0.1893 -0.5203  0.4200
   36MOL   C24515715   5.793   3.619   3.227  0.2267 -0.1596  0.5024
   36MOL   C24615716   5.889   3.704   3.325 -0.3160 -0.7552 -0.4547
   36MOL   C24715717   5.853   3.674   3.468  0.5501 -0.3740 -0.8261
   36MOL   C24815718   5.850   3.522   3.512  0.1552  0.3992  0.0456
   36MOL   C24915719   5.758   3.447   3.413  0.1860 -0.7396  0.0530
   36MOL   C25015720   5.804   3.473   3.268  0.0293  0.0268 -0.4634
   36MOL   C25115721   5.653   3.615   3.019  0.2299  0.3382 -0.0524
   36MOL   H25215722   5.801   3.761   3.087  0.9547 -0.3142 -2.1895
   36MOL   H25315723   5.695   3.649   3.264  1.0098  0.4525  2.1434
   36MOL   H25415724   5.891   3.811   3.306  1.0179 -0.8284 -0.7419
   36MOL   H25515725   5.993   3.677   3.307 -0.3393 -0.6084 -0.8201
   36MOL   H25615726   5.917   3.730   3.536 -0.9591  0.8093 -0.3304
   36MOL   H25715727   5.760   3.728   3.488  1.8857  0.6432  3.1362
   36MOL   H25815728   5.949   3.479   3.504 -0.6349 -1.2874 -0.9253
   36MOL   H25915729   5.834   3.523   3.620 -0.2137 -0.2039 -0.0022
   36MOL   H26015730   5.653   3.471   3.430  0.5556 -0.5658  2.1691
   36MOL   H26115731   5.777   3.340   3.425  2.3248 -0.4289 -0.3812
   36MOL   H26215732   5.906   3.437   3.256 -0.1541 -0.7198  0.1717
   36MOL   H26315733   5.745   3.412   3.198  0.2410 -1.9536  1.0396
   36MOL   H26415734   5.583   3.573   3.091  0.2958  1.0491  0.4331
   36MOL   H26515735   5.667   3.527   2.957 -1.1932  0.6382 -0.8189
   36MOL   C26615736   5.589   3.716   2.928  0.0608  0.3057 -0.2882
   36MOL   C26715737   5.476   3.653   2.836  0.2951  0.2062  1.1055
   36MOL   C26815738   5.387   3.550   2.911 -0.5331 -0.3655 -0.3812
   36MOL   C26915739   5.266   3.502   2.827 -0.0270  0.1383  1.1339
   36MOL   C27015740   5.308   3.437   2.696 -0.4153  0.3824  0.3173
   36MOL   C27115741   5.405   3.531   2.622  0.2102  0.2304  0.1950
   36MOL   C27215742   5.524   3.595   2.702 -0.4615 -0.1538  0.0476
   36MOL   C27315743   5.546   3.839   3.006 -0.1216  0.0077  0.6460
   36MOL   H27415744   5.675   3.744   2.867 -1.2207  2.7092 -1.0375
   36MOL   H27515745   5.406   3.727   2.798  0.6360  0.2903  0.6422
   36MOL   H27615746   5.435   3.458   2.944  1.0056  0.9339  1.0567
   36MOL   H27715747   5.353   3.592   3.005 -1.0946  0.5692 -0.9951
   36MOL   H27815748   5.191   3.581   2.821 -2.7799 -2.5138 -0.3293
   36MOL   H27915749   5.211   3.426   2.882  1.9650 -2.2856 -0.1130
   36MOL   H28015750   5.351   3.337   2.701 -0.0628  0.6283  3.1141
   36MOL   H28115751   5.219   3.410   2.639  0.9219 -1.4774 -0.9596
   36MOL   H28215752   5.350   3.616   2.583 -0.4079  0.1622  0.9178
   36MOL   H28315753   5.449   3.475   2.539 -0.0956  0.5985 -0.2176
   36MOL   H28415754   5.563   3.666   2.630  0.6345  0.6206  1.3731
   36MOL   H28515755   5.596   3.514   2.720  0.3036  0.7475  1.1037
   36MOL   H28615756   5.590   3.835   3.105  0.0375  1.0232  0.6210
   36MOL   H28715757   5.442   3.817   3.028 -0.5156  1.7924  0.6330
   36MOL   C28815758   5.571   3.981   2.949 -0.3248  0.4084 -0.2379
   36MOL   C28915759   5.526   4.099   3.037 -0.1090 -0.3108  0.8814
   36MOL   C29015760   5.380   4.094   3.081 -0.0928  0.1364 -0.4553
   36MOL   C29115761   5.336   4.223   3.152 -0.3829  0.1044  0.0130
   36MOL   C29215762   5.425   4.248   3.273  0.2255 -0.2628 -0.2566
   36MOL   C29315763   5.578   4.249   3.242  0.3094 -0.3331  0.4047
   36MOL   C29415764   5.612   4.121   3.160 -0.1069 -0.5444  0.0153
   36MOL   C29515765   5.508   3.998   2.800 -0.4870 -0.3636 -1.2314
   36MOL   H29615766   5.679   3.993   2.947 -0.3787  0.8896 -2.7121
   36MOL   H29715767   5.531   4.195   2.986 -0.5754 -2.2716 -3.0648
   36MOL   H29815768   5.315   4.076   2.995 -0.3589  0.1971 -0.2713
   36MOL   H29915769   5.360   4.003   3.138  0.2270 -0.1546 -0.8072
   36MOL   H30015770   5.325   4.302   3.077  0.4978  1.0669  0.8750
   36MOL   H30115771   5.238   4.215   3.200  0.0377 -0.2083  0.8191
   36MOL   H30215772   5.412   4.160   3.336  1.5652 -0.4620 -0.2441
   36MOL   H30315773   5.394   4.341   3.321  2.8179  1.1284 -1.1645
   36MOL   H30415774   5.636   4.266   3.332 -0.0227  1.8421  0.2343
   36MOL   H30515775   5.612   4.333   3.181 -0.0292 -0.6604 -0.2428
   36MOL   H30615776   5.609   4.032   3.222  1.1382  0.4643  1.5867
   36MOL   H30715777   5.715   4.122   3.123 -0.0848  1.7550  0.0637
   36MOL   H30815778   5.523   3.903   2.750 -1.8996 -1.3479  0.1687
   36MOL   H30915779   5.401   4.013   2.812 -0.4776 -1.4950  0.4054
   36MOL   C31015780   5.562   4.112   2.706 -0.2080  0.2412 -0.1480
   36MOL   C31115781   5.690   4.068   2.630 -0.0703  0.4997 -1.0101
   36MOL   C31215782   5.671   3.966   2.517 -0.3270  0.7106  0.5260
   36MOL   C31315783   5.803   3.926   2.440  0.5358  0.4959  0.1084
   36MOL   C31415784   5.880   4.056   2.397  0.2031  0.5905 -0.0210
   36MOL   C31515785   5.902   4.158   2.511 -0.2122 -0.0695  0.4773
   36MOL   C31615786   5.770   4.200   2.576  0.4114  0.8771 -0.5012
   36MOL   C31715787   5.443   4.155   2.613  0.0888  0.1280 -0.6597
   36MOL   H31815788   5.590   4.204   2.758 -0.8333  0.2432  0.1864
   36MOL   H31915789   5.754   4.033   2.711  1.5735 -0.0861 -2.5282
   36MOL   H32015790   5.613   3.882   2.557 -1.1054 -0.2752 -2.5102
   36MOL   H32115791   5.617   4.020   2.439  1.3716 -0.0573 -1.2399
   36MOL   H32215792   5.780   3.862   2.355  0.2261 -1.2885  1.4907
   36MOL   H32315793   5.865   3.856   2.497  0.2674 -0.0447 -0.2616
   36MOL   H32415794   5.973   4.022   2.353  0.3070  2.0398 -0.9408
   36MOL   H32515795   5.822   4.104   2.318  1.5727  0.7416 -0.9493
   36MOL   H32615796   5.968   4.124   2.592 -1.1229 -0.0899  1.2229
   36MOL   H32715797   5.949   4.247   2.472  1.0994  0.5378  3.2821
   36MOL   H32815798   5.721   4.256   2.496 -1.5783 -1.5920 -1.0875
   36MOL   H32915799   5.798   4.269   2.655  0.0510  0.2843  0.1520
   36MOL   H33015800   5.405   4.064   2.567 -0.2939 -0.2092  0.2897
   36MOL   H33115801   5.484   4.217   2.533 -3.8414  3.6933 -0.1131
   36MOL   C33215802   5.319   4.242   2.675 -0.0455 -0.6333  0.6223
   36MOL   C33315803   5.183   4.196   2.629 -0.1206  0.7782  0.9942
   36MOL   C33415804   5.138   4.051   2.695 -0.3838 -0.4793  0.2374
   36MOL   C33515805   4.990   4.027   2.652  0.5479 -0.3094 -0.0901
   36MOL   C33615806   4.973   4.016   2.504  0.4596  0.0038 -0.4611
   36MOL   C33715807   5.019   4.141   2.437 -0.5846  0.9433  0.1386
   36MOL   C33815808   5.161   4.197   2.474 -0.1112  0.5517 -0.5971
   36MOL   C33915809   5.329   4.394   2.633 -0.0113 -0.5243 -0.3853
   36MOL   H34015810   5.316   4.238   2.784 -0.2408  0.4535  0.6582
   36MOL   H34115811   5.119   4.270   2.677  2.0020  1.5318  2.7587
   36MOL   H34215812   5.188   3.968   2.645 -0.9199 -0.5806 -0.1496
   36MOL   H34315813   5.159   4.037   2.801  1.7274 -1.3186 -0.2725
   36MOL   H34415814   4.964   3.934   2.703  1.9008 -0.4252  0.3920
   36MOL   H34515815   4.919   4.095   2.699  0.9382 -0.6937  1.0616
   36MOL   H34615816   5.021   3.924   2.471 -0.9767 -0.6255 -0.8204
   36MOL   H34715817   4.870   3.999   2.474 -0.4817  0.6273  2.2787
   36MOL   H34815818   4.959   4.229   2.461 -0.5920  0.7940  0.6740
   36MOL   H34915819   5.018   4.130   2.328 -0.5331  1.5752  0.0716
   36MOL   H35015820   5.156   4.298   2.432  0.1784  1.1290  0.7419
   36MOL   H35115821   5.247   4.146   2.430  0.8578 -0.6435  2.5771
   36MOL   H35215822   5.236   4.448   2.649  0.7800  1.2309 -1.5575
   36MOL   H35315823   5.337   4.404   2.525  1.5503  0.2559 -0.2153
   36MOL   C35415824   5.443   4.471   2.708  0.3022 -0.8156 -0.0514
   36MOL   C35515825   5.404   4.523   2.854 -0.0885 -0.4317  0.1499
   36MOL   C35615826   5.312   4.652   2.853 -0.2222 -0.4369  0.9844
   36MOL   C35715827   5.273   4.684   3.002  0.6540  1.1005 -0.0564
   36MOL   C35815828   5.396   4.706   3.078  0.2901  0.2749 -0.8212
   36MOL   C35915829   5.492   4.590   3.075  0.6243 -0.4176  0.0632
   36MOL   C36015830   5.529   4.550   2.930  0.5076 -0.1106  0.3393
   36MOL   C36115831   5.497   4.582   2.613 -0.1498  0.3670 -0.3140
   36MOL   H36215832   5.526   4.402   2.725  1.4277  0.2651 -1.0431
   36MOL   H36315833   5.361   4.439   2.908 -1.1658 -0.2429 -0.4002
   36MOL   H36415834   5.225   4.642   2.789  1.4740 -0.1468 -1.4609
   36MOL   H36515835   5.369   4.733   2.807  0.3716 -1.1923  0.3748
   36MOL   H36615836   5.213   4.773   3.018  0.2305  0.4422  2.1746
   36MOL   H36715837   5.217   4.602   3.046  1.3373  0.6351 -0.0348
   36MOL   H36815838   5.449   4.795   3.044  2.9434 -1.3146 -0.9426
   36MOL   H36915839   5.378   4.725   3.184 -0.6817 -0.9505 -0.7531
   36MOL   H37015840   5.584   4.614   3.129  0.3399 -0.6017  0.6353
   36MOL   H37115841   5.458   4.496   3.120  0.2778 -0.0783  0.5174
   36MOL   H37215842   5.599   4.467   2.923 -0.1343 -0.4603 -3.2115
   36MOL   H37315843   5.582   4.633   2.883 -0.8603  0.2378 -0.6574
   36MOL   H37415844   5.563   4.633   2.683  0.0812 -0.7992  0.3215
   36MOL   H37515845   5.422   4.661   2.606 -0.7214 -0.0821  0.6427
   36MOL   C37615846   5.573   4.553   2.489  0.7163 -0.6679 -0.2235
   36MOL   C37715847   5.503   4.586   2.354 -0.1126 -0.0216  0.0691
   36MOL   C37815848   5.563   4.513   2.237  0.1710 -0.3877  0.7281
   36MOL   C37915849   5.489   4.532   2.107  0.3092  0.0785  0.4553
   36MOL   C38015850   5.446   4.674   2.070 -0.6740 -0.1882 -0.4602
   36MOL   C38115851   5.383   4.748   2.185  0.1091  0.7960  0.2640
   36MOL   C38215852   5.473   4.737   2.306 -0.5869 -0.8795 -0.1296
   36MOL   C38315853   5.731   4.597   2.498  0.6641 -0.4360 -0.0600
   36MOL   H38415854   5.575   4.444   2.483 -2.5399 -0.7257 -1.3424
   36MOL   H38515855   5.400   4.553   2.370 -0.5775  1.7987  1.0146
   36MOL   H38615856   5.666   4.545   2.221  0.0201  0.6878  1.8112
   36MOL   H38715857   5.567   4.406   2.253  3.1848 -0.4843 -0.4124
   36MOL   H38815858   5.393   4.484   2.130  0.3858  0.0349  0.6871
   36MOL   H38915859   5.538   4.483   2.023  0.4830  0.6320  0.2338
   36MOL   H39015860   5.533   4.727   2.029 -0.5896 -0.2924 -0.4183
   36MOL   H39115861   5.373   4.675   1.989 -0.0485 -0.7930 -1.0486
   36MOL   H39215862   5.379   4.853   2.155 -3.5965  1.0941  1.4379
   36MOL   H39315863   5.282   4.713   2.206 -0.2434 -0.0225 -2.5319
   36MOL   H39415864   5.566   4.786   2.278  0.1297 -1.7788  0.6339
   36MOL   H39515865   5.438   4.798   2.390 -0.2092  2.4472 -2.3077
   36MOL   H39615866   5.793   4.545   2.424  1.0784  0.3093 -0.2481
   36MOL   H39715867   5.767   4.551   2.590 -0.4525  1.7532  1.5187
   36MOL   C39815868   5.772   4.745   2.469 -0.1497  0.3525 -0.3651
   36MOL   C39915869   5.692   4.856   2.550  0.0845  0.1283  0.6928
   36MOL   C40015870   5.728   4.864   2.698 -0.4999 -0.0865 -0.4670
   36MOL   C40115871   5.632   4.964   2.767  0.8875 -0.7375  0.0065
   36MOL   C40215872   5.631   5.102   2.703 -0.1714  0.8942 -0.1014
   36MOL   C40315873   5.593   5.089   2.558  0.3492  0.2820  0.4374
   36MOL   C40415874   5.691   4.996   2.477 -0.1739  0.6009  0.2005
   36MOL   C40515875   5.924   4.768   2.500 -0.4440  0.0382  0.0205
   36MOL   H40615876   5.755   4.759   2.362  1.6847  0.9122 -0.5891
   36MOL   H40715877   5.587   4.829   2.549  0.2626 -0.6244 -2.2479
   36MOL   H40815878   5.831   4.898   2.711  0.0730 -1.2623 -1.7540
   36MOL   H40915879   5.723   4.763   2.741  0.4153 -0.2281 -0.6728
   36MOL   H41015880   5.652   4.981   2.872 -0.7969  1.8075 -0.0498
   36MOL   H41115881   5.528   4.931   2.759  0.4479  0.9329 -1.3639
   36MOL   H41215882   5.738   5.124   2.696  0.1880  0.4584  3.1275
   36MOL   H41315883   5.583   5.189   2.748  1.2555  2.0931 -0.8193
   36MOL   H41415884   5.493   5.048   2.551  0.6553 -0.3206 -0.5044
   36MOL   H41515885   5.587   5.187   2.511 -0.9477 -0.6351 -1.3460
   36MOL   H41615886   5.663   4.981   2.373  2.0765 -1.8806 -0.1041
   36MOL   H41715887   5.786   5.048   2.482 -1.5368  3.0749  2.0995
   36MOL   H41815888   5.949   4.874   2.504  2.0127 -0.4167 -2.1888
   36MOL   H41915889   5.950   4.720   2.594 -0.2130 -0.3372 -0.2329
   36MOL   C42015890   6.020   4.710   2.388  0.3752  0.6316  0.0579
   36MOL   C42115891   6.170   4.691   2.430 -0.7239  0.7758  0.5511
   36MOL   C42215892   6.226   4.817   2.488  0.5903 -0.8288  0.3150
   36MOL   C42315893   6.377   4.795   2.532  0.7965  0.2677  0.8904
   36MOL   C42415894   6.466   4.748   2.419  0.6125 -0.0199 -0.8873
   36MOL   C42515895   6.404   4.614   2.371  0.0957 -0.2066 -0.2920
   36MOL   C42615896   6.259   4.640   2.317 -0.6953  0.8925 -0.1220
   36MOL   C42715897   6.011   4.793   2.261  0.1266 -0.0648  0.1394
   36MOL   H42815898   5.988   4.608   2.366  0.5712  0.4975  0.3838
   36MOL   H42915899   6.173   4.613   2.506 -2.5228 -1.0895 -1.2374
   36MOL   H43015900   6.233   4.895   2.412  2.2407  0.4808  1.7491
   36MOL   H43115901   6.157   4.855   2.563  0.0181 -0.2695 -0.4793
   36MOL   H43215902   6.433   4.880   2.572  2.4117 -0.1764 -0.3772
   36MOL   H43315903   6.384   4.718   2.609  0.7726  1.0387  1.6741
   36MOL   H43415904   6.559   4.717   2.468 -1.4946 -3.1074  1.3343
   36MOL   H43515905   6.481   4.828   2.346  0.8863  2.5773  1.9086
   36MOL   H43615906   6.398   4.546   2.456  2.3639 -0.8542 -0.6261
   36MOL   H43715907   6.460   4.560   2.295 -1.5498 -0.9037 -1.0151
   36MOL   H43815908   6.268   4.721   2.245 -0.4938 -1.4737 -2.8406
   36MOL   H43915909   6.229   4.547   2.270 -0.5473  0.4348  0.6758
   36MOL   H44015910   6.066   4.748   2.178  1.8013  0.9286  0.6692
   36MOL   H44115911   5.916   4.804   2.209 -0.2036  0.4892  0.8564
   36MOL   H44215912   6.053   4.894   2.260 -2.9507  1.2459 -1.0960
   37MOL     C115913   3.938   5.602   4.802  0.8706 -0.0357  0.7069
   37MOL     C215914   4.067   5.524   4.750  0.6027  0.1193  0.1550
   37MOL     C315915   4.197   5.604   4.768  0.8230  0.0142  1.0283
   37MOL     C415916   4.318   5.532   4.710 -0.4352  0.3133 -0.1324
   37MOL     C515917   4.307   5.465   4.573  0.2391 -0.3246  0.2653
   37MOL     C615918   4.177   5.394   4.551  0.4536 -0.7005  0.2949
   37MOL     C715919   4.052   5.470   4.602  0.5453 -0.5370  0.2814
   37MOL     C815920   3.948   5.639   4.951  0.3498 -0.9481 -0.0766
   37MOL     H915921   3.933   5.691   4.739  2.2366  0.1846  0.8973
   37MOL    H1015922   4.067   5.441   4.821 -0.8493  0.7849  0.9688
   37MOL    H1115923   4.197   5.704   4.726 -0.0527 -0.6364 -0.5406
   37MOL    H1215924   4.230   5.623   4.870 -1.9934  0.2960  1.9342
   37MOL    H1315925   4.323   5.449   4.781  0.3699  0.5300  0.0600
   37MOL    H1415926   4.410   5.589   4.716 -0.8631  0.8217  1.8570
   37MOL    H1515927   4.384   5.388   4.574 -0.7464 -1.3329 -0.2294
   37MOL    H1615928   4.327   5.534   4.491  0.8821  1.0504  1.5599
   37MOL    H1715929   4.169   5.369   4.445  2.7047 -1.5800  0.3221
   37MOL    H1815930   4.171   5.305   4.613  1.1795 -1.0895 -0.1918
   37MOL    H1915931   3.966   5.402   4.595  0.1051 -0.1223  1.4927
   37MOL    H2015932   4.024   5.553   4.537  1.3028 -1.0551 -0.7119
   37MOL    H2115933   4.022   5.719   4.956 -0.5056 -0.1498 -0.1014
   37MOL    H2215934   3.989   5.574   5.028  1.3151 -0.1809  0.0625
   37MOL    H2315935   3.849   5.542   4.783 -0.1582  1.4032  0.8843
   37MOL    C2415936   3.824   5.718   5.003  0.3591  0.0945 -0.2905
   37MOL    C2515937   3.698   5.626   5.017  0.6134 -1.0878  0.3824
   37MOL    C2615938   3.568   5.701   5.014  0.3578 -0.5501  0.0402
   37MOL    C2715939   3.440   5.602   5.004  0.1307 -0.2823  0.4057
   37MOL    C2815940   3.432   5.517   5.129  0.1153 -0.1512  0.5648
   37MOL    C2915941   3.571   5.451   5.164 -0.4637  0.0846  0.9413
   37MOL    C3015942   3.693   5.540   5.146 -0.2967  0.3090  0.2083
   37MOL    C3115943   3.865   5.796   5.134  0.2936  0.0880 -0.4630
   37MOL    H3215944   3.797   5.800   4.936 -0.0189  0.4946  0.3429
   37MOL    H3315945   3.712   5.552   4.937 -1.3092  0.9987 -1.9514
   37MOL    H3415946   3.572   5.763   4.924 -0.8865 -1.6861 -0.8223
   37MOL    H3515947   3.550   5.778   5.088  1.8099  0.9103 -1.0901
   37MOL    H3615948   3.349   5.662   5.000 -1.3589 -2.3398  2.1992
   37MOL    H3715949   3.456   5.552   4.909  0.0200  0.1048  0.1822
   37MOL    H3815950   3.350   5.446   5.119 -0.8632  0.8335  1.4441
   37MOL    H3915951   3.401   5.582   5.211 -0.7117  0.2602 -0.0614
   37MOL    H4015952   3.571   5.411   5.265 -1.7772 -2.3983  0.0029
   37MOL    H4115953   3.587   5.367   5.096  0.2588  0.6238  0.4244
   37MOL    H4215954   3.701   5.606   5.233  1.6131 -0.7319  0.8714
   37MOL    H4315955   3.790   5.492   5.160 -0.6846  0.1107  2.5246
   37MOL    H4415956   3.915   5.730   5.204  0.0668 -0.8873 -1.2033
   37MOL    H4515957   3.777   5.824   5.193  2.4027  1.6779  2.0499
   37MOL    C4615958   3.949   5.926   5.109  0.5488 -0.2667 -0.1555
   37MOL    C4715959   4.039   5.968   5.234  1.0528  0.1255  0.3016
   37MOL    C4815960   4.140   5.860   5.278  0.0668  0.2959  0.0420
   37MOL    C4915961   4.234   5.912   5.385  0.3441  0.1702 -0.9698
   37MOL    C5015962   4.140   5.935   5.508 -0.5881  0.2871 -0.8186
   37MOL    C5115963   4.030   6.038   5.477 -0.4119 -0.2092  0.1809
   37MOL    C5215964   3.952   5.996   5.354  0.7697 -0.2855 -0.1217
   37MOL    C5315965   3.849   6.049   5.073 -0.2677 -0.4353 -0.3934
   37MOL    H5415966   4.015   5.920   5.022  1.0181 -2.5606  0.3433
   37MOL    H5515967   4.091   6.055   5.194 -0.2155  1.4553  1.4509
   37MOL    H5615968   4.096   5.764   5.306  1.1342 -0.1119  0.3675
   37MOL    H5715969   4.211   5.842   5.198 -2.2406 -2.9917 -1.3842
   37MOL    H5815970   4.279   6.008   5.359  0.4053  0.2377 -0.6110
   37MOL    H5915971   4.321   5.852   5.408  0.5079  0.9888  0.6756
   37MOL    H6015972   4.085   5.841   5.511 -2.2891  1.2784  0.0686
   37MOL    H6115973   4.195   5.962   5.598 -1.0286  0.8750 -0.7227
   37MOL    H6215974   4.067   6.138   5.457  0.3094 -0.4173  0.4499
   37MOL    H6315975   3.964   6.047   5.564 -1.4747 -0.1728 -0.6233
   37MOL    H6415976   3.899   5.902   5.370 -1.7247  1.3337  1.4144
   37MOL    H6515977   3.878   6.073   5.332  0.2983 -0.4835  0.7604
   37MOL    H6615978   3.892   6.143   5.107 -2.2591 -0.1154  1.3543
   37MOL    H6715979   3.759   6.042   5.134  0.3008 -1.1152  0.3854
   37MOL    C6815980   3.802   6.084   4.924  0.6091 -0.0756 -0.3316
   37MOL    C6915981   3.682   6.194   4.911 -0.4354  0.3004  0.3764
   37MOL    C7015982   3.552   6.143   4.977 -0.9818  0.2392 -0.0232
   37MOL    C7115983   3.443   6.234   4.937 -0.1828 -0.5162 -0.2569
   37MOL    C7215984   3.476   6.383   4.990 -0.3065  1.2410 -0.3379
   37MOL    C7315985   3.607   6.438   4.931  0.7366 -0.2153 -0.0710
   37MOL    C7415986   3.719   6.338   4.956  0.0334 -0.0100  0.4713
   37MOL    C7515987   3.914   6.130   4.825 -0.7632  0.3466  0.7442
   37MOL    H7615988   3.753   5.992   4.894  0.1188 -0.2600  1.0147
   37MOL    H7715989   3.649   6.195   4.807 -0.1292  1.6061  0.2806
   37MOL    H7815990   3.573   6.151   5.084 -1.1777 -0.8967  0.1147
   37MOL    H7915991   3.529   6.039   4.953 -1.9485  0.5578 -0.4930
   37MOL    H8015992   3.438   6.239   4.828 -1.5130 -1.5326 -0.2523
   37MOL    H8115993   3.348   6.196   4.974  0.2341 -0.7008  0.6346
   37MOL    H8215994   3.478   6.386   5.099  0.4914 -2.7052 -0.1662
   37MOL    H8315995   3.397   6.453   4.961 -2.1893 -0.9059 -0.5226
   37MOL    H8415996   3.645   6.531   4.974  0.1264 -0.6381  1.4485
   37MOL    H8515997   3.601   6.454   4.824  0.0320  1.6730  0.2279
   37MOL    H8615998   3.748   6.344   5.061 -0.6849  0.5814  0.6386
   37MOL    H8715999   3.806   6.376   4.903  0.9333 -0.3420  1.6621
   37MOL    H8816000   3.953   6.217   4.878 -0.9836  0.2605  1.0427
   37MOL    H8916001   3.996   6.059   4.823 -1.6185 -0.7481  3.1496
   37MOL    C9016002   3.892   6.169   4.682  0.7767 -0.2659  0.3617
   37MOL    C9116003   4.016   6.236   4.614  0.0383  0.3017 -0.4938
   37MOL    C9216004   4.044   6.377   4.663 -0.0325 -0.8811  0.9131
   37MOL    C9316005   4.149   6.442   4.574  0.6929  0.1256  0.2320
   37MOL    C9416006   4.276   6.358   4.573 -0.0346  0.2105  0.1192
   37MOL    C9516007   4.258   6.209   4.543  0.1290 -0.5356 -0.0841
   37MOL    C9616008   4.144   6.154   4.625 -0.0491 -0.1391 -0.2775
   37MOL    C9716009   3.832   6.047   4.597  0.0331 -0.4711 -0.3522
   37MOL    H9816010   3.812   6.243   4.679 -0.9189 -2.0083  1.4774
   37MOL    H9916011   3.995   6.244   4.507 -1.5699  2.5990 -0.0471
   37MOL   H10016012   4.068   6.376   4.770  0.6586 -1.8974  0.7516
   37MOL   H10116013   3.955   6.440   4.669  1.0007  0.6758  0.1219
   37MOL   H10216014   4.180   6.542   4.602 -0.9482  0.7242 -0.0251
   37MOL   H10316015   4.112   6.452   4.471  1.4065 -0.5395 -0.0918
   37MOL   H10416016   4.316   6.367   4.673  2.1418 -0.5454 -0.6579
   37MOL   H10516017   4.340   6.411   4.502  3.6578 -0.6328  2.7008
   37MOL   H10616018   4.245   6.209   4.435 -0.3867  1.5362 -0.0600
   37MOL   H10716019   4.350   6.153   4.558  0.2178  0.0079  1.5626
   37MOL   H10816020   4.124   6.055   4.583 -0.9462  0.3685 -1.0520
   37MOL   H10916021   4.181   6.143   4.727  1.6939 -0.1128 -0.8825
   37MOL   H11016022   3.914   5.995   4.547  0.3644  0.3322 -0.6608
   37MOL   H11116023   3.796   5.972   4.667 -0.3418 -0.1252 -0.1708
   37MOL   C11216024   3.711   6.077   4.510  0.0534 -0.0977 -0.0711
   37MOL   C11316025   3.589   5.978   4.528  0.0543 -0.5731 -0.3446
   37MOL   C11416026   3.627   5.841   4.478  0.3153 -0.4266  0.3667
   37MOL   C11516027   3.529   5.733   4.511 -0.4650 -0.3990  0.5685
   37MOL   C11616028   3.389   5.780   4.469 -0.5221  0.1825  0.3203
   37MOL   C11716029   3.346   5.918   4.515  0.3491  0.7675 -1.4713
   37MOL   C11816030   3.457   6.028   4.478  0.1414  0.1052  0.3056
   37MOL   C11916031   3.747   6.120   4.365  0.1636  0.1665 -0.7571
   37MOL   H12016032   3.663   6.165   4.553 -2.5805 -0.3408 -2.4043
   37MOL   H12116033   3.567   5.962   4.634 -2.1978 -0.8922 -0.8264
   37MOL   H12216034   3.727   5.810   4.510  0.3815  0.5582  1.1538
   37MOL   H12316035   3.626   5.838   4.369  1.7338 -1.4533  0.3666
   37MOL   H12416036   3.552   5.648   4.448 -0.6139  0.1111 -0.1802
   37MOL   H12516037   3.546   5.690   4.610  0.8828 -1.0307  0.0715
   37MOL   H12616038   3.380   5.768   4.361 -0.8534 -0.6944  0.4393
   37MOL   H12716039   3.311   5.716   4.511 -1.5905  0.9145 -0.5046
   37MOL   H12816040   3.259   5.935   4.453 -0.5531  1.7065  0.0166
   37MOL   H12916041   3.335   5.916   4.624 -0.8944 -2.9388 -1.5916
   37MOL   H13016042   3.434   6.125   4.522  1.2590  1.2097 -1.4716
   37MOL   H13116043   3.465   6.045   4.370 -0.6916  1.9723  0.5117
   37MOL   H13216044   3.719   6.037   4.301  1.0062  0.4497 -1.5051
   37MOL   H13316045   3.856   6.127   4.361  0.2694 -0.7385  0.3377
   37MOL   C13416046   3.698   6.262   4.310 -0.0962 -0.4117  0.2347
   37MOL   C13516047   3.720   6.282   4.154  0.8893  0.4437 -0.4279
   37MOL   C13616048   3.624   6.189   4.076  0.0160 -0.1437  0.0716
   37MOL   C13716049   3.633   6.232   3.925  0.4318 -0.7106  0.6227
   37MOL   C13816050   3.777   6.209   3.871  0.9144 -0.6209 -0.2587
   37MOL   C13916051   3.877   6.289   3.946  0.3389  0.8240 -0.4257
   37MOL   C14016052   3.868   6.271   4.100  0.3018 -0.3679  0.2279
   37MOL   C14116053   3.767   6.385   4.380  0.2350 -0.0185 -0.0192
   37MOL   H14216054   3.595   6.271   4.345 -0.0273 -2.5741  1.0255
   37MOL   H14316055   3.704   6.384   4.121  1.2489  0.1847 -1.4094
   37MOL   H14416056   3.643   6.082   4.081  0.0585 -0.0303  2.6391
   37MOL   H14516057   3.521   6.211   4.104  0.1778 -0.9950  1.3639
   37MOL   H14616058   3.596   6.333   3.908  0.6770 -0.3343  2.2369
   37MOL   H14716059   3.563   6.168   3.870  1.0394  0.1491 -1.1614
   37MOL   H14816060   3.791   6.102   3.889 -0.2191 -0.7519 -0.1184
   37MOL   H14916061   3.772   6.228   3.764 -0.0736  0.4714 -0.0233
   37MOL   H15016062   3.863   6.394   3.921  0.8422  0.5436 -1.9330
   37MOL   H15116063   3.980   6.262   3.926  1.1293  1.6150  2.3419
   37MOL   H15216064   3.916   6.181   4.139  0.1276 -1.6448 -2.3757
   37MOL   H15316065   3.928   6.360   4.116  1.6411 -1.2612  0.3197
   37MOL   H15416066   3.873   6.384   4.352 -0.2373  0.3332 -1.8771
   37MOL   H15516067   3.781   6.368   4.487 -0.0549 -2.7172 -0.3830
   37MOL   C15616068   3.691   6.523   4.357 -0.2856  1.0860  0.3674
   37MOL   C15716069   3.790   6.635   4.342  0.1032 -1.0294 -0.8676
   37MOL   C15816070   3.873   6.658   4.474  0.8545 -0.5836  0.7357
   37MOL   C15916071   3.965   6.784   4.455  0.0687 -0.2570 -0.8614
   37MOL   C16016072   4.047   6.771   4.328 -0.5861 -0.4422 -0.2397
   37MOL   C16116073   3.956   6.759   4.203  0.3946  0.3819 -0.5266
   37MOL   C16216074   3.879   6.628   4.217  0.4707 -0.1293 -0.7798
   37MOL   C16316075   3.576   6.525   4.465  0.9358 -0.1418  0.2291
   37MOL   H16416076   3.636   6.508   4.264  1.1872  3.5320 -0.9591
   37MOL   H16516077   3.726   6.718   4.311  3.1835  1.7042 -0.1649
   37MOL   H16616078   3.802   6.674   4.555  1.3509  0.0642  1.0508
   37MOL   H16716079   3.934   6.573   4.505 -1.6339 -2.5129  0.5023
   37MOL   H16816080   3.890   6.863   4.445  0.4757  0.3514  0.6227
   37MOL   H16916081   4.016   6.806   4.549  1.2653 -0.7966 -1.3896
   37MOL   H17016082   4.117   6.688   4.333 -0.2791 -0.0940  1.2624
   37MOL   H17116083   4.109   6.860   4.317 -0.7730 -0.2288  0.4451
   37MOL   H17216084   4.010   6.761   4.109  1.9178  0.7015  0.3478
   37MOL   H17316085   3.889   6.845   4.195 -0.7276 -0.4939 -0.6695
   37MOL   H17416086   3.827   6.598   4.126 -0.0322 -1.1165 -0.1810
   37MOL   H17516087   3.954   6.551   4.230 -0.5917 -1.0445  0.0225
   37MOL   H17616088   3.618   6.536   4.565  2.0121  1.0742 -0.3242
   37MOL   H17716089   3.519   6.433   4.464  0.9828 -0.1780 -1.0597
   37MOL   C17816090   3.458   6.628   4.441  0.1893 -0.4511  0.4646
   37MOL   C17916091   3.320   6.589   4.500 -0.2338 -0.1491 -0.7043
   37MOL   C18016092   3.328   6.534   4.652  0.2266  0.3944  0.6347
   37MOL   C18116093   3.187   6.513   4.702  0.8678  0.1055 -0.7269
   37MOL   C18216094   3.110   6.415   4.607 -1.1676  0.0116  0.3770
   37MOL   C18316095   3.101   6.470   4.466 -0.6918 -0.0438 -0.0930
   37MOL   C18416096   3.243   6.487   4.411 -0.3655 -0.0822 -0.5992
   37MOL   C18516097   3.492   6.772   4.474 -0.2695  0.5344  0.0483
   37MOL   H18616098   3.444   6.631   4.333 -0.6371  1.6342  0.6068
   37MOL   H18716099   3.256   6.677   4.506  1.1150  0.7794  0.6332
   37MOL   H18816100   3.392   6.446   4.649 -0.1984  0.0875  0.3009
   37MOL   H18916101   3.371   6.613   4.713  3.7228  0.7694 -2.1798
   37MOL   H19016102   3.132   6.606   4.692 -1.0278 -0.8070  0.9122
   37MOL   H19116103   3.196   6.483   4.807  2.9697  1.3885 -0.5106
   37MOL   H19216104   3.149   6.313   4.614 -1.8002 -0.2133  0.6777
   37MOL   H19316105   3.015   6.405   4.660  0.0719  0.9284  2.8410
   37MOL   H19416106   3.038   6.558   4.454 -2.3553 -1.0763  0.9175
   37MOL   H19516107   3.040   6.403   4.405 -1.3546  0.3199  0.1754
   37MOL   H19616108   3.288   6.388   4.404  0.6656  0.3667 -0.3532
   37MOL   H19716109   3.236   6.546   4.320  0.6405 -0.4521 -0.9183
   37MOL   H19816110   3.472   6.803   4.577 -0.6879  0.6243 -0.0598
   37MOL   H19916111   3.601   6.777   4.479 -0.0548 -0.4369 -2.7123
   37MOL   C20016112   3.437   6.883   4.382  0.4067 -0.0736  0.0294
   37MOL   C20116113   3.454   7.032   4.432  0.4687  0.2110 -0.1170
   37MOL   C20216114   3.340   7.060   4.537 -0.6199  0.0893  0.5201
   37MOL   C20316115   3.346   7.215   4.574 -0.1207 -0.1908 -0.0033
   37MOL   C20416116   3.489   7.277   4.607  0.0510  0.5179  0.6086
   37MOL   C20516117   3.604   7.217   4.520  0.6161  0.3364 -0.1199
   37MOL   C20616118   3.590   7.068   4.499  0.0346  0.7831 -0.0503
   37MOL   C20716119   3.491   6.862   4.236 -0.1447  0.2946  0.3004
   37MOL   H20816120   3.329   6.869   4.375  0.0770  2.5917 -1.0547
   37MOL   H20916121   3.431   7.107   4.356  0.8930 -0.5620 -1.0208
   37MOL   H21016122   3.366   6.999   4.624 -0.7756 -1.2768 -0.3608
   37MOL   H21116123   3.242   7.023   4.506 -0.5791  1.2608 -1.0523
   37MOL   H21216124   3.307   7.275   4.492 -0.2505  1.4398  1.2204
   37MOL   H21316125   3.275   7.230   4.656  0.4316  0.0415  0.4320
   37MOL   H21416126   3.491   7.385   4.595 -0.0324  0.4447 -0.0748
   37MOL   H21516127   3.507   7.266   4.714 -2.7990  0.7938  1.1549
   37MOL   H21616128   3.601   7.259   4.420 -1.4494  0.2603 -0.1163
   37MOL   H21716129   3.701   7.239   4.564  2.5983 -1.3561 -3.4399
   37MOL   H21816130   3.665   7.039   4.425  0.0135  1.9327 -0.5337
   37MOL   H21916131   3.604   7.001   4.584 -0.5661  0.7788  0.0438
   37MOL   H22016132   3.596   6.886   4.251  0.0506 -0.1714 -0.2707
   37MOL   H22116133   3.501   6.760   4.197 -1.0029  0.8451 -1.4048
   37MOL   C22216134   3.442   6.949   4.123 -0.5314 -0.6229 -0.1746
   37MOL   C22316135   3.534   6.947   3.991 -0.7443  0.1652 -0.5640
   37MOL   C22416136   3.514   6.821   3.911  0.2428 -0.3270 -0.0490
   37MOL   C22516137   3.611   6.803   3.791  1.0279 -1.0552  0.7901
   37MOL   C22616138   3.753   6.796   3.837 -0.2504 -0.2699  0.4740
   37MOL   C22716139   3.780   6.931   3.898  0.8314 -0.2623 -0.0606
   37MOL   C22816140   3.688   6.964   4.018 -0.0573  0.2503 -0.2594
   37MOL   C22916141   3.289   6.927   4.087 -0.6199 -0.2997 -0.2344
   37MOL   H23016142   3.438   7.051   4.162 -1.5797 -0.2899 -1.1170
   37MOL   H23116143   3.496   7.026   3.927 -2.5170 -1.2074 -1.2335
   37MOL   H23216144   3.529   6.737   3.978 -1.9656 -0.9403 -0.2944
   37MOL   H23316145   3.411   6.806   3.877  0.5318  0.3606 -1.2457
   37MOL   H23416146   3.584   6.885   3.724  1.9011 -1.8776 -0.5814
   37MOL   H23516147   3.573   6.709   3.750 -0.5381 -0.7755  1.5899
   37MOL   H23616148   3.768   6.718   3.912  1.2566  0.6073  1.1210
   37MOL   H23716149   3.815   6.768   3.752 -0.8281 -3.1266  0.9519
   37MOL   H23816150   3.766   7.008   3.823  2.4489  0.6333  0.5435
   37MOL   H23916151   3.882   6.930   3.937  0.4593 -2.9555  0.9599
   37MOL   H24016152   3.714   6.895   4.098  1.3231 -0.9869 -1.7417
   37MOL   H24116153   3.711   7.062   4.060  0.8530 -0.1188  0.1020
   37MOL   H24216154   3.237   6.921   4.182 -0.0257 -1.8080  0.0079
   37MOL   H24316155   3.278   6.823   4.055  0.5639 -0.3100 -0.6341
   37MOL   C24416156   3.208   7.017   3.990 -0.4541 -0.2796  0.2963
   37MOL   C24516157   3.216   7.167   4.030 -0.0791  0.5340 -0.4216
   37MOL   C24616158   3.175   7.209   4.173 -0.0150 -0.1282  0.0577
   37MOL   C24716159   3.182   7.362   4.203 -0.0164  0.3415  0.0739
   37MOL   C24816160   3.107   7.440   4.099  0.1452 -0.2792  0.2239
   37MOL   C24916161   3.164   7.412   3.966  0.2445  0.2214  0.0003
   37MOL   C25016162   3.145   7.257   3.927 -0.0294 -0.8951 -0.4157
   37MOL   C25116163   3.059   6.969   3.978  0.3027 -0.0715  0.0932
   37MOL   H25216164   3.256   7.016   3.892 -3.7832  1.6638 -1.4673
   37MOL   H25316165   3.321   7.194   4.015  0.4390 -0.2476  1.6847
   37MOL   H25416166   3.238   7.147   4.237 -0.1855 -0.5834 -0.2088
   37MOL   H25516167   3.075   7.173   4.196  0.5613 -2.6757 -1.1553
   37MOL   H25616168   3.146   7.382   4.304  1.6548 -0.8104  0.9237
   37MOL   H25716169   3.283   7.401   4.208  0.0018  0.1356  1.7372
   37MOL   H25816170   3.003   7.407   4.110  0.1354 -0.8353 -1.4063
   37MOL   H25916171   3.120   7.546   4.124 -0.2835  0.3318 -1.9963
   37MOL   H26016172   3.272   7.430   3.963  0.2130  0.2185 -4.1819
   37MOL   H26116173   3.110   7.477   3.898  2.2347  0.4688 -1.3968
   37MOL   H26216174   3.041   7.233   3.910  0.0671 -1.3180 -0.4206
   37MOL   H26316175   3.195   7.244   3.831  0.9102  1.0974 -0.2146
   37MOL   H26416176   3.016   7.026   3.896  1.4886  0.3388 -0.2510
   37MOL   H26516177   3.004   6.998   4.068  0.5824 -1.8026  0.8566
   37MOL   C26616178   3.038   6.817   3.940  1.0062 -0.3269 -1.1036
   37MOL   C26716179   2.895   6.773   3.939 -0.5473  0.0562  0.2447
   37MOL   C26816180   2.806   6.850   3.834 -0.4588 -0.5400  0.0662
   37MOL   C26916181   2.659   6.800   3.831 -0.4401  0.4793  0.7721
   37MOL   C27016182   2.596   6.810   3.972 -0.1283  0.0928  0.1654
   37MOL   C27116183   2.687   6.729   4.071 -0.1178  0.2409 -0.0426
   37MOL   C27216184   2.827   6.786   4.076 -0.4092 -0.0691  1.0348
   37MOL   C27316185   3.113   6.777   3.818  0.3108  0.2604 -0.6062
   37MOL   H27416186   3.078   6.759   4.023 -2.7700  0.7517  1.5651
   37MOL   H27516187   2.887   6.669   3.906  0.4446  0.6541 -1.9675
   37MOL   H27616188   2.800   6.958   3.851  1.0913 -0.4483  0.1598
   37MOL   H27716189   2.841   6.824   3.734  0.0418 -0.1224  0.1295
   37MOL   H27816190   2.651   6.699   3.792 -1.7965  0.7890  0.2349
   37MOL   H27916191   2.596   6.862   3.768 -1.3676 -0.3227  0.9041
   37MOL   H28016192   2.582   6.909   4.014 -0.4204  0.5408 -0.9933
   37MOL   H28116193   2.500   6.763   3.953  0.4258 -0.2925 -1.7993
   37MOL   H28216194   2.683   6.623   4.046  0.8414  1.0588 -3.9854
   37MOL   H28316195   2.660   6.738   4.176 -1.1322 -1.2592 -0.1605
   37MOL   H28416196   2.882   6.740   4.158  0.1376  1.0914  1.3337
   37MOL   H28516197   2.810   6.891   4.100 -1.4074  0.4284 -1.6449
   37MOL   H28616198   3.217   6.806   3.834  0.0076  0.2085  1.6028
   37MOL   H28716199   3.076   6.854   3.750 -2.1045  0.6409  1.0867
   37MOL   C28816200   3.096   6.636   3.751  0.4219 -0.7503 -0.2099
   37MOL   C28916201   3.129   6.515   3.848 -0.0144  0.1666  0.9061
   37MOL   C29016202   3.098   6.381   3.793  0.3063 -0.4802 -0.3092
   37MOL   C29116203   3.106   6.275   3.905 -0.2951 -0.2181  0.0186
   37MOL   C29216204   3.251   6.269   3.955  0.6540  0.6751 -0.3514
   37MOL   C29316205   3.281   6.411   4.005 -0.9825 -0.1173 -0.2103
   37MOL   C29416206   3.268   6.529   3.906  0.4774  0.3493  0.5681
   37MOL   C29516207   3.189   6.633   3.629 -1.2810 -0.4417 -0.3136
   37MOL   H29616208   2.991   6.626   3.723  1.1238 -0.2517 -3.1749
   37MOL   H29716209   3.060   6.526   3.933  0.0654 -0.8662  1.1120
   37MOL   H29816210   2.998   6.391   3.751 -0.3242 -1.7876  0.8559
   37MOL   H29916211   3.166   6.347   3.715  0.5494  1.5726 -1.0464
   37MOL   H30016212   3.036   6.294   3.986 -2.5983  0.3286 -2.0488
   37MOL   H30116213   3.087   6.175   3.866  1.6124 -0.8740  0.7254
   37MOL   H30216214   3.323   6.229   3.883  0.9305  1.3418 -0.4518
   37MOL   H30316215   3.263   6.209   4.045 -0.4380  2.7110  1.1747
   37MOL   H30416216   3.387   6.418   4.030 -0.6287 -0.4174 -1.5908
   37MOL   H30516217   3.233   6.426   4.102 -3.4469  1.1007 -1.5789
   37MOL   H30616218   3.338   6.518   3.823 -1.2683  0.7485 -0.9915
   37MOL   H30716219   3.280   6.622   3.961  0.4855  0.3214  0.6123
   37MOL   H30816220   3.278   6.692   3.655 -1.4656 -0.0291 -0.6175
   37MOL   H30916221   3.221   6.529   3.618  3.2392  0.6954  0.9002
   37MOL   C31016222   3.134   6.694   3.499 -0.1676 -0.7200  0.0430
   37MOL   C31116223   3.237   6.778   3.423 -0.2462 -0.2776 -0.2610
   37MOL   C31216224   3.274   6.907   3.495  0.1220  0.4494  0.9560
   37MOL   C31316225   3.386   6.988   3.418  0.9862  0.2873  0.4362
   37MOL   C31416226   3.503   6.909   3.386  0.0095  0.0704 -0.0326
   37MOL   C31516227   3.470   6.771   3.318  0.8502  0.3319 -0.6623
   37MOL   C31616228   3.363   6.694   3.388 -0.1871  0.6232 -0.0197
   37MOL   C31716229   3.059   6.584   3.423 -0.2438 -0.6489  0.2750
   37MOL   H31816230   3.061   6.768   3.531  0.0679 -0.5516  0.1909
   37MOL   H31916231   3.184   6.811   3.333 -2.7922  1.7296  1.8849
   37MOL   H32016232   3.181   6.962   3.508 -1.3989 -2.4649  2.7133
   37MOL   H32116233   3.321   6.889   3.592  1.9803  0.8429  0.1517
   37MOL   H32216234   3.416   7.076   3.475  0.1225  1.1783 -0.4740
   37MOL   H32316235   3.343   7.026   3.325  2.7510  0.1988 -0.4403
   37MOL   H32416236   3.577   6.968   3.330 -0.3215  0.9453  0.4317
   37MOL   H32516237   3.549   6.874   3.478  1.9700  1.6782 -0.3632
   37MOL   H32616238   3.446   6.795   3.214  1.5257 -1.1083 -1.1654
   37MOL   H32716239   3.562   6.714   3.306  1.0050  0.3618  0.3954
   37MOL   H32816240   3.403   6.652   3.481 -0.6385  0.1928 -0.0198
   37MOL   H32916241   3.323   6.612   3.328  0.5898  0.4743 -0.3456
   37MOL   H33016242   2.985   6.548   3.495  0.0071 -1.7048  0.0068
   37MOL   H33116243   3.128   6.500   3.414  1.4385  0.5573  1.5728
   37MOL   C33216244   2.986   6.617   3.291 -0.1164 -0.0339 -0.3754
   37MOL   C33316245   2.836   6.662   3.310  0.0352  0.1057 -0.1690
   37MOL   C33416246   2.818   6.786   3.406  0.3903  0.2211  0.8745
   37MOL   C33516247   2.674   6.832   3.393  0.3374 -0.6515  0.6386
   37MOL   C33616248   2.568   6.725   3.423  0.4968 -0.3470  0.2845
   37MOL   C33716249   2.594   6.595   3.335  0.3822 -0.5429 -0.1449
   37MOL   C33816250   2.741   6.546   3.335  0.0714  0.1787 -0.1572
   37MOL   C33916251   3.010   6.508   3.183 -0.0500  0.7880 -0.5558
   37MOL   H34016252   3.032   6.706   3.249  1.8289 -1.0664 -0.4895
   37MOL   H34116253   2.809   6.704   3.213  1.5887  3.5529  0.8270
   37MOL   H34216254   2.839   6.744   3.504  0.1146 -0.1914  0.7573
   37MOL   H34316255   2.886   6.869   3.385 -1.1246  1.0985 -0.6475
   37MOL   H34416256   2.667   6.921   3.456  0.6138 -1.2153  1.4801
   37MOL   H34516257   2.669   6.871   3.292  1.4664 -0.7039  0.5509
   37MOL   H34616258   2.580   6.709   3.530  0.6753  1.3096  0.5285
   37MOL   H34716259   2.465   6.761   3.417  0.0952 -1.2391  1.6518
   37MOL   H34816260   2.551   6.615   3.237 -1.1666 -1.6327  0.2938
   37MOL   H34916261   2.538   6.516   3.384 -1.6883 -0.0772 -1.7125
   37MOL   H35016262   2.755   6.475   3.254 -2.7314  1.0962 -1.5465
   37MOL   H35116263   2.778   6.513   3.432  0.3827 -0.8323 -0.6204
   37MOL   H35216264   2.930   6.518   3.110 -0.4883 -0.0582 -0.1935
   37MOL   H35316265   2.993   6.411   3.230  0.8980 -0.1133 -2.0518
   37MOL   C35416266   3.146   6.497   3.113 -0.1007  0.7542  0.2215
   37MOL   C35516267   3.179   6.627   3.026  0.5170 -0.9377  0.4301
   37MOL   C35616268   3.083   6.644   2.911 -0.2557 -0.2905  0.6254
   37MOL   C35716269   3.113   6.777   2.833  0.7642  0.4764  0.1491
   37MOL   C35816270   3.257   6.788   2.786  0.1074  0.3241  0.2997
   37MOL   C35916271   3.350   6.770   2.909  0.8702  0.4819  0.0232
   37MOL   C36016272   3.319   6.634   2.981 -0.1474  0.4243  0.1911
   37MOL   C36116273   3.145   6.370   3.026 -0.2681 -0.2249  0.0328
   37MOL   H36216274   3.226   6.481   3.186  0.5114 -0.1785 -0.6413
   37MOL   H36316275   3.177   6.712   3.094  1.5506 -0.8016  0.3003
   37MOL   H36416276   2.979   6.649   2.941  0.2644 -0.9359  2.6375
   37MOL   H36516277   3.088   6.556   2.848  2.3706  0.5579 -0.4265
   37MOL   H36616278   3.035   6.787   2.757  0.0367  0.9906  0.9630
   37MOL   H36716279   3.079   6.859   2.896  1.1172  0.5237  0.2783
   37MOL   H36816280   3.281   6.704   2.721 -1.2599  0.7620 -0.7715
   37MOL   H36916281   3.277   6.871   2.719  0.5989 -0.2625 -0.2874
   37MOL   H37016282   3.453   6.772   2.874  0.6819 -0.3246 -0.5730
   37MOL   H37116283   3.341   6.849   2.984  2.7250 -1.0432  1.9293
   37MOL   H37216284   3.388   6.614   3.063 -0.1069  1.0646  0.3137
   37MOL   H37316285   3.329   6.557   2.905 -0.0586  1.0468 -0.4316
   37MOL   H37416286   3.217   6.364   2.945 -0.5830  0.6426 -0.3106
   37MOL   H37516287   3.052   6.367   2.970 -1.6196  0.1530  2.1879
   37MOL   C37616288   3.159   6.233   3.102 -0.1765 -0.6417 -0.3004
   37MOL   C37716289   3.103   6.109   3.025  0.4847  0.5734 -0.1364
   37MOL   C37816290   3.150   6.101   2.879  0.1977 -0.3674  0.5880
   37MOL   C37916291   3.101   5.975   2.802  0.1273 -0.8909  0.1194
   37MOL   C38016292   2.946   5.958   2.816  0.6391 -0.3851 -0.7253
   37MOL   C38116293   2.896   5.973   2.963 -0.1118 -0.9316 -0.6595
   37MOL   C38216294   2.951   6.099   3.033  0.1296  0.3969 -0.2984
   37MOL   C38316295   3.311   6.221   3.144  0.5581  0.1017 -0.5226
   37MOL   H38416296   3.112   6.237   3.200  1.0021  1.4070  0.2175
   37MOL   H38516297   3.132   6.022   3.083 -2.4355 -0.2080  0.1956
   37MOL   H38616298   3.134   6.192   2.821  1.1130 -0.2746  0.4632
   37MOL   H38716299   3.256   6.077   2.867 -0.5377 -2.5020 -2.1530
   37MOL   H38816300   3.157   5.888   2.836  1.6370 -0.5190 -1.3657
   37MOL   H38916301   3.118   5.980   2.695  0.6299 -0.0471  0.2326
   37MOL   H39016302   2.903   6.045   2.766 -1.6072 -0.9191  0.2521
   37MOL   H39116303   2.912   5.868   2.765  0.5656  0.7195 -2.6987
   37MOL   H39216304   2.787   5.977   2.969 -0.2180  1.6881 -3.1854
   37MOL   H39316305   2.938   5.895   3.027 -2.4558  0.2005  2.4321
   37MOL   H39416306   2.896   6.187   2.999 -0.0099  0.1911 -0.6016
   37MOL   H39516307   2.930   6.090   3.140  1.6046 -1.3726 -0.1264
   37MOL   H39616308   3.358   6.318   3.127  0.5972 -0.4642 -3.9223
   37MOL   H39716309   3.372   6.146   3.093  2.1890 -0.1490  1.7150
   37MOL   C39816310   3.338   6.200   3.300 -0.4594  0.3093  0.2460
   37MOL   C39916311   3.267   6.077   3.362 -0.3948 -0.7162  0.1141
   37MOL   C40016312   3.339   5.942   3.345  0.1052  0.5329 -0.0307
   37MOL   C40116313   3.260   5.828   3.421  0.2971 -0.0791 -0.4991
   37MOL   C40216314   3.256   5.862   3.572  0.6637 -1.2992 -0.0611
   37MOL   C40316315   3.194   5.991   3.599  0.4522 -0.2906 -0.5187
   37MOL   C40416316   3.260   6.107   3.515  0.4389  0.2325 -0.5733
   37MOL   C40516317   3.488   6.202   3.336 -0.6964 -0.0128 -0.0157
   37MOL   H40616318   3.281   6.282   3.344  0.8075  2.0010 -1.1756
   37MOL   H40716319   3.166   6.074   3.322 -0.4008 -1.2523  0.1608
   37MOL   H40816320   3.435   5.940   3.396 -0.1513 -4.2784  0.5198
   37MOL   H40916321   3.358   5.919   3.240 -2.5021 -0.2976 -0.3658
   37MOL   H41016322   3.309   5.732   3.404  0.0956 -0.4752  1.1043
   37MOL   H41116323   3.161   5.821   3.374  0.3442 -0.0718 -0.6001
   37MOL   H41216324   3.353   5.837   3.616  0.7955 -0.2887  0.2392
   37MOL   H41316325   3.193   5.795   3.630 -1.6882  1.6938  0.9782
   37MOL   H41416326   3.089   5.988   3.571  0.3035  2.1283 -0.2863
   37MOL   H41516327   3.207   6.023   3.702  0.5743  1.4090 -1.0455
   37MOL   H41616328   3.214   6.202   3.540 -2.1040 -1.2201  0.4154
   37MOL   H41716329   3.366   6.104   3.542 -0.3193 -0.6846  2.5213
   37MOL   H41816330   3.523   6.134   3.414  0.5681  1.8661  1.1084
   37MOL   H41916331   3.531   6.152   3.249 -2.9488 -0.9926 -0.5769
   37MOL   C42016332   3.549   6.341   3.365  0.2263 -0.2075  0.6628
   37MOL   C42116333   3.688   6.360   3.304  0.2022  0.0458 -0.0944
   37MOL   C42216334   3.682   6.384   3.154 -0.2670  0.3359  0.4770
   37MOL   C42316335   3.828   6.413   3.090  0.6194 -0.1955  0.2676
   37MOL   C42416336   3.916   6.294   3.116 -0.2282  0.7087 -0.1430
   37MOL   C42516337   3.922   6.268   3.267  0.0473 -0.5427  0.2346
   37MOL   C42616338   3.781   6.239   3.328 -0.2207 -0.5330  0.8725
   37MOL   C42716339   3.554   6.371   3.518 -0.0495 -0.2691 -0.6146
   37MOL   H42816340   3.495   6.417   3.309  0.1114 -0.0747  0.9513
   37MOL   H42916341   3.734   6.453   3.335 -0.1653  0.6105 -1.2261
   37MOL   H43016342   3.636   6.301   3.102  1.6510 -1.7660  2.0415
   37MOL   H43116343   3.620   6.472   3.136 -0.9169 -0.2693 -0.2954
   37MOL   H43216344   3.820   6.432   2.983 -0.6175 -0.1592  0.3598
   37MOL   H43316345   3.870   6.501   3.139  1.9939  0.1811 -1.5151
   37MOL   H43416346   4.017   6.315   3.082  0.3972 -0.3379  1.0256
   37MOL   H43516347   3.876   6.204   3.069  1.3305 -0.4691  0.7553
   37MOL   H43616348   3.959   6.362   3.308  2.3210 -1.9601  1.4880
   37MOL   H43716349   3.980   6.179   3.292 -0.5932 -0.5518  1.7023
   37MOL   H43816350   3.744   6.143   3.291  0.5264  0.2686 -2.1283
   37MOL   H43916351   3.799   6.231   3.435 -0.6578 -0.9721  0.9141
   37MOL   H44016352   3.453   6.399   3.546  0.0516 -1.8461  1.4606
   37MOL   H44116353   3.576   6.285   3.581  2.4140  0.4437 -0.4486
   37MOL   H44216354   3.611   6.452   3.563 -1.2666  1.7840 -2.6727
   38MOL     C116355   0.762   6.846   2.659 -0.4188  0.4509  0.7660
   38MOL     C216356   0.825   6.747   2.766  0.2114  0.4350 -0.3009
   38MOL     C316357   0.946   6.810   2.828 -0.2020 -0.0726  0.3239
   38MOL     C416358   1.006   6.724   2.934 -0.3854 -0.1493  0.4685
   38MOL     C516359   1.062   6.594   2.875  0.2956  0.1268  0.4250
   38MOL     C616360   0.944   6.521   2.802 -0.1469  0.2107 -0.1527
   38MOL     C716361   0.866   6.611   2.703 -0.4123  0.0100 -0.2288
   38MOL     C816362   0.738   6.988   2.704  0.4854 -0.7522  0.3880
   38MOL     H916363   0.828   6.860   2.573  0.5644 -1.3566  1.1897
   38MOL    H1016364   0.749   6.721   2.839 -0.8627  1.2489 -1.1188
   38MOL    H1116365   1.023   6.835   2.756  0.7229 -0.8280  1.0494
   38MOL    H1216366   0.912   6.901   2.878  1.3547  1.6782 -1.7190
   38MOL    H1316367   0.925   6.695   3.001 -1.4772 -0.0632 -0.7809
   38MOL    H1416368   1.088   6.761   2.994 -0.5034 -0.1622  0.6370
   38MOL    H1516369   1.099   6.520   2.946  1.2078 -1.6563 -1.8275
   38MOL    H1616370   1.148   6.609   2.810  1.8902 -1.1285  2.2027
   38MOL    H1716371   0.987   6.435   2.750  0.4814  0.2708  0.2545
   38MOL    H1816372   0.863   6.480   2.863  0.8646 -0.6970  0.6355
   38MOL    H1916373   0.775   6.565   2.664 -1.0277  1.1172 -0.1180
   38MOL    H2016374   0.925   6.621   2.612  1.2243 -1.3595  0.6690
   38MOL    H2116375   0.825   7.042   2.740 -0.1259 -0.0183  0.7908
   38MOL    H2216376   0.657   6.997   2.777  0.9381 -0.7742  0.8955
   38MOL    H2316377   0.673   6.802   2.615 -0.6208  0.4680  1.1508
   38MOL    C2416378   0.681   7.076   2.584  0.1230 -0.5512 -0.0138
   38MOL    C2516379   0.528   7.105   2.601  0.3660 -0.3738  0.4291
   38MOL    C2616380   0.449   6.977   2.607 -0.1924  0.4638 -0.1696
   38MOL    C2716381   0.301   6.995   2.619  0.2075  0.4297 -0.8936
   38MOL    C2816382   0.224   7.079   2.512  0.3193 -0.1995 -0.3632
   38MOL    C2916383   0.309   7.207   2.507  0.0520 -0.3198 -0.2686
   38MOL    C3016384   0.468   7.187   2.485  0.5357  0.4696  0.4668
   38MOL    C3116385   0.759   7.216   2.572 -0.1352  0.1628 -0.7739
   38MOL    H3216386   0.695   7.020   2.492  2.1786 -0.9738  0.5148
   38MOL    H3316387   0.499   7.162   2.689  0.4531  1.2095 -0.5611
   38MOL    H3416388   0.480   6.899   2.677  0.2998  1.2351  0.4707
   38MOL    H3516389   0.459   6.930   2.509 -1.1451  3.7018 -1.8638
   38MOL    H3616390   0.254   6.897   2.624 -1.0565  1.0860  0.2868
   38MOL    H3716391   0.273   7.038   2.715  1.2576  2.2850 -1.3971
   38MOL    H3816392   0.128   7.107   2.554 -0.2828 -1.5253 -0.8269
   38MOL    H3916393   0.211   7.030   2.415  0.8377  0.3964 -0.7351
   38MOL    H4016394   0.279   7.269   2.422 -0.0969  0.2464  0.1897
   38MOL    H4116395   0.295   7.270   2.596  0.8009 -3.6096  2.2657
   38MOL    H4216396   0.485   7.123   2.398 -1.5520  1.7536 -0.9327
   38MOL    H4316397   0.509   7.283   2.457  2.3296 -0.3284  0.3008
   38MOL    H4416398   0.758   7.270   2.667  0.3452 -0.8495 -0.1871
   38MOL    H4516399   0.703   7.280   2.504  0.2155  2.5375  1.0566
   38MOL    C4616400   0.900   7.208   2.502  0.2466 -0.5399 -0.3675
   38MOL    C4716401   1.010   7.236   2.604  0.7049 -0.2584  0.3594
   38MOL    C4816402   1.037   7.385   2.627  0.8897  0.2474  0.1215
   38MOL    C4916403   1.153   7.412   2.730  0.1591  1.2104  0.4483
   38MOL    C5016404   1.280   7.337   2.685 -0.4435  0.1611 -0.2735
   38MOL    C5116405   1.241   7.189   2.678 -0.4421  0.5343 -0.6485
   38MOL    C5216406   1.133   7.151   2.581 -0.1328 -0.7425  0.4841
   38MOL    C5316407   0.915   7.291   2.371  0.0235 -0.3090  0.0723
   38MOL    H5416408   0.909   7.106   2.464  1.2148 -0.5091 -0.2440
   38MOL    H5516409   0.982   7.194   2.701  0.8890  1.5853  1.2271
   38MOL    H5616410   1.055   7.444   2.537  0.2328  0.5913  0.2111
   38MOL    H5716411   0.948   7.430   2.671  0.3655 -0.4389 -0.2278
   38MOL    H5816412   1.121   7.372   2.826  1.2942  0.2170  0.4291
   38MOL    H5916413   1.174   7.519   2.737 -2.1989  1.6724  0.7844
   38MOL    H6016414   1.302   7.386   2.590  1.0348 -0.5127 -0.2958
   38MOL    H6116415   1.367   7.350   2.749  0.1749 -1.2715 -0.8165
   38MOL    H6216416   1.214   7.144   2.773  2.7881 -1.1033 -0.4203
   38MOL    H6316417   1.334   7.142   2.644 -0.2249 -0.3560  1.1320
   38MOL    H6416418   1.151   7.161   2.474  2.2611  0.9060  1.0027
   38MOL    H6516419   1.109   7.048   2.607  4.4524 -2.0295  0.2185
   38MOL    H6616420   1.020   7.305   2.345 -0.1500  1.5062  0.3024
   38MOL    H6716421   0.885   7.395   2.385 -2.2659 -0.7434 -1.2628
   38MOL    C6816422   0.848   7.232   2.246  0.0641  0.2412  0.0956
   38MOL    C6916423   0.778   7.338   2.157  0.9409  0.5705  0.0781
   38MOL    C7016424   0.643   7.388   2.206 -0.3549 -0.1788 -0.1308
   38MOL    C7116425   0.570   7.479   2.106  0.1694  0.3848 -0.4156
   38MOL    C7216426   0.661   7.591   2.059 -0.2463 -0.0609  0.3715
   38MOL    C7316427   0.796   7.542   2.008 -0.0200  0.9021 -0.6744
   38MOL    C7416428   0.868   7.462   2.112 -0.4994  0.3571 -0.2303
   38MOL    C7516429   0.946   7.151   2.156 -0.7619 -0.4454 -0.4591
   38MOL    H7616430   0.768   7.163   2.273  0.5068 -0.4408 -0.3116
   38MOL    H7716431   0.760   7.288   2.062 -0.5451  0.7820  0.2380
   38MOL    H7816432   0.646   7.434   2.304 -0.8801  0.9180 -0.6183
   38MOL    H7916433   0.587   7.295   2.218  0.2156 -0.7096 -1.4347
   38MOL    H8016434   0.537   7.418   2.022 -0.5403 -1.1221  0.9289
   38MOL    H8116435   0.488   7.521   2.163  0.1563 -1.2931  0.8685
   38MOL    H8216436   0.672   7.655   2.146 -2.6614  2.2699 -0.9780
   38MOL    H8316437   0.593   7.639   1.989  0.9690  0.8160 -0.2289
   38MOL    H8416438   0.859   7.623   1.973  0.5883  1.3880  1.4686
   38MOL    H8516439   0.801   7.488   1.913 -0.1830 -0.5509  0.1165
   38MOL    H8616440   0.896   7.525   2.196  2.6876 -1.0018 -0.2298
   38MOL    H8716441   0.966   7.434   2.075 -0.3947 -0.1368  0.4144
   38MOL    H8816442   0.910   7.135   2.054 -2.2534  1.8785 -0.3297
   38MOL    H8916443   1.027   7.221   2.136 -1.1086 -0.3182 -1.4440
   38MOL    C9016444   1.000   7.012   2.195 -0.2687 -0.8935 -0.3838
   38MOL    C9116445   0.885   6.908   2.226  0.3161 -0.7895  0.9063
   38MOL    C9216446   0.785   6.886   2.110  0.8784  0.0738 -0.9769
   38MOL    C9316447   0.677   6.782   2.138 -0.5659 -0.0114  0.2684
   38MOL    C9416448   0.744   6.658   2.192  0.3399  0.5353  0.4270
   38MOL    C9516449   0.827   6.680   2.318 -0.3676 -0.1825  0.5602
   38MOL    C9616450   0.938   6.785   2.298 -0.3860 -0.3738 -1.1327
   38MOL    C9716451   1.113   6.966   2.105 -0.8017 -0.0074 -0.0390
   38MOL    H9816452   1.047   7.029   2.292  2.0056 -0.2467 -1.5735
   38MOL    H9916453   0.818   6.953   2.299 -0.0030 -0.2035  0.2603
   38MOL   H10016454   0.837   6.850   2.021  1.4706 -0.3198 -0.4740
   38MOL   H10116455   0.746   6.983   2.078  0.8132  1.1003  2.1202
   38MOL   H10216456   0.619   6.758   2.049  0.5333 -3.0550  0.3264
   38MOL   H10316457   0.608   6.817   2.215 -1.0622  0.9922 -0.6241
   38MOL   H10416458   0.815   6.617   2.121  0.0339  0.1229  0.3538
   38MOL   H10516459   0.668   6.583   2.214  2.0307 -1.4290 -0.2649
   38MOL   H10616460   0.763   6.724   2.394 -0.4795 -0.4751  0.6345
   38MOL   H10716461   0.867   6.589   2.363  1.4105 -0.4951 -1.5570
   38MOL   H10816462   0.990   6.810   2.391 -0.9659 -2.1064 -0.3252
   38MOL   H10916463   1.005   6.746   2.222  0.3812  0.0980 -0.7093
   38MOL   H11016464   1.078   6.889   2.036  0.2230 -0.9742  0.5034
   38MOL   H11116465   1.138   7.047   2.035 -0.3351  0.8889  1.1532
   38MOL   C11216466   1.242   6.927   2.180  0.0289  0.0799 -0.1940
   38MOL   C11316467   1.330   7.046   2.225 -0.1059  0.2225  0.0700
   38MOL   C11416468   1.422   7.095   2.106 -0.4639 -0.4973  0.7538
   38MOL   C11516469   1.503   7.224   2.138 -0.5092 -0.2558 -0.3992
   38MOL   C11616470   1.586   7.199   2.260  0.6426 -0.4034  0.1194
   38MOL   C11716471   1.501   7.152   2.382  0.5125  0.1105  0.1753
   38MOL   C11816472   1.417   7.031   2.349 -0.1012  0.3116  0.1762
   38MOL   C11916473   1.311   6.812   2.104  0.9255  0.8721  0.2140
   38MOL   H12016474   1.205   6.874   2.268 -0.8755  0.1695 -0.5090
   38MOL   H12116475   1.257   7.121   2.259  1.1685  1.2995  0.4687
   38MOL   H12216476   1.364   7.105   2.014  0.4639 -0.0619  0.2122
   38MOL   H12316477   1.491   7.011   2.098  0.3198  0.2980 -1.0469
   38MOL   H12416478   1.564   7.250   2.051  0.9870 -0.9338  0.4369
   38MOL   H12516479   1.439   7.312   2.144  0.3927  0.4049 -0.4270
   38MOL   H12616480   1.656   7.118   2.240  0.2322 -0.4691 -1.1061
   38MOL   H12716481   1.650   7.280   2.297  0.5910 -0.4113  0.2252
   38MOL   H12816482   1.561   7.134   2.472  0.5509  0.1461  0.1564
   38MOL   H12916483   1.432   7.231   2.410  0.0170 -0.9700  2.1425
   38MOL   H13016484   1.350   7.006   2.432  0.8736  1.8394  1.4349
   38MOL   H13116485   1.482   6.945   2.335  1.3651  1.3893  0.3216
   38MOL   H13216486   1.415   6.801   2.135  0.6650  0.6676  1.0490
   38MOL   H13316487   1.319   6.842   2.000 -0.0243 -1.6928 -0.6367
   38MOL   C13416488   1.245   6.671   2.105 -0.1432 -0.0196  0.4037
   38MOL   C13516489   1.252   6.597   2.239 -0.3280  0.1609  0.4397
   38MOL   C13616490   1.389   6.532   2.273 -0.2446  0.9152 -0.5449
   38MOL   C13716491   1.388   6.480   2.416 -0.7293  0.2967 -1.0225
   38MOL   C13816492   1.278   6.376   2.419 -0.2382 -0.0072 -0.4698
   38MOL   C13916493   1.142   6.427   2.393 -0.0057 -0.5132 -0.4532
   38MOL   C14016494   1.141   6.493   2.254 -0.2012 -0.1568 -0.1335
   38MOL   C14116495   1.318   6.593   1.987  0.5072  0.1727 -0.1308
   38MOL   H14216496   1.146   6.686   2.063 -0.2413  1.2507  1.0465
   38MOL   H14316497   1.230   6.674   2.313  1.9682  0.3443  0.9710
   38MOL   H14416498   1.414   6.453   2.201  0.9481  0.4354  0.3737
   38MOL   H14516499   1.468   6.607   2.275  0.6836 -0.0278 -1.3015
   38MOL   H14616500   1.365   6.549   2.497  2.0115 -0.8546  0.8275
   38MOL   H14716501   1.480   6.425   2.439  0.2811  2.7273  1.0271
   38MOL   H14816502   1.305   6.293   2.355  1.0596  0.0738 -0.0526
   38MOL   H14916503   1.265   6.332   2.518 -2.2886  1.0415 -0.2460
   38MOL   H15016504   1.105   6.508   2.455 -1.9175 -0.8826 -1.0730
   38MOL   H15116505   1.057   6.360   2.397 -0.3400 -0.0060  1.8840
   38MOL   H15216506   1.162   6.424   2.172  1.0168 -0.8714  0.7793
   38MOL   H15316507   1.042   6.533   2.229 -0.5589 -1.2115 -0.4418
   38MOL   H15416508   1.311   6.485   1.999 -0.6407  0.3201  0.5966
   38MOL   H15516509   1.423   6.618   2.008  1.0834  0.1576 -2.8561
   38MOL   C15616510   1.278   6.626   1.843 -0.0275  0.2043 -0.3868
   38MOL   C15716511   1.146   6.549   1.808 -0.4624 -0.0587  1.4294
   38MOL   C15816512   1.072   6.609   1.681  0.1316  0.0089  0.4490
   38MOL   C15916513   0.948   6.532   1.629  0.5441 -0.2470  0.2664
   38MOL   C16016514   0.988   6.389   1.605 -0.1239  0.7739  0.5207
   38MOL   C16116515   1.030   6.331   1.738  0.5544  0.0180 -0.0967
   38MOL   C16216516   1.155   6.393   1.799 -0.3254 -0.3364 -0.4439
   38MOL   C16316517   1.389   6.595   1.739  0.2536  0.4714  0.5811
   38MOL   H16416518   1.248   6.730   1.830  0.4336  0.3142 -0.6031
   38MOL   H16516519   1.075   6.569   1.888 -1.3692 -0.8190  0.8411
   38MOL   H16616520   1.050   6.714   1.700 -1.5728 -0.2022 -0.2189
   38MOL   H16716521   1.139   6.616   1.595 -1.6409 -0.0934 -0.9868
   38MOL   H16816522   0.866   6.538   1.700 -0.2550 -0.5270 -0.6297
   38MOL   H16916523   0.917   6.588   1.541 -0.2278 -0.0831  0.6441
   38MOL   H17016524   1.072   6.376   1.537 -2.9261 -1.5202 -2.6663
   38MOL   H17116525   0.911   6.327   1.560  0.5327  0.1765  0.2192
   38MOL   H17216526   1.067   6.229   1.729  1.9566  0.5440 -0.3641
   38MOL   H17316527   0.939   6.335   1.798  0.1816 -1.9082 -0.4963
   38MOL   H17416528   1.169   6.358   1.901 -1.7471 -1.2434 -0.5473
   38MOL   H17516529   1.240   6.357   1.740  0.1952  0.4280 -0.1672
   38MOL   H17616530   1.342   6.563   1.646 -2.2001  1.2904  1.4914
   38MOL   H17716531   1.426   6.496   1.763  0.2492  0.3235 -0.0101
   38MOL   C17816532   1.502   6.695   1.715 -0.2562  0.1534 -0.1862
   38MOL   C17916533   1.642   6.633   1.680  0.5497 -0.4758  0.3372
   38MOL   C18016534   1.652   6.558   1.549 -0.0814 -0.0694 -0.1240
   38MOL   C18116535   1.776   6.475   1.528 -0.1158  0.3502 -0.2376
   38MOL   C18216536   1.827   6.402   1.652  0.1721  0.0209 -0.0298
   38MOL   C18316537   1.842   6.505   1.773 -0.0768 -0.3641  0.9890
   38MOL   C18416538   1.707   6.568   1.798  0.0915 -0.7569  1.4714
   38MOL   C18516539   1.463   6.817   1.615  0.0690 -0.3476 -0.6099
   38MOL   H18616540   1.511   6.741   1.813  0.0635 -1.1942  0.4368
   38MOL   H18716541   1.704   6.723   1.673  3.2065 -2.1770  1.2860
   38MOL   H18816542   1.564   6.495   1.538 -0.3354  0.4255 -0.9935
   38MOL   H18916543   1.638   6.627   1.465  1.8570 -0.2476 -0.6137
   38MOL   H19016544   1.857   6.542   1.501  0.5051  0.1290  1.0600
   38MOL   H19116545   1.771   6.410   1.440 -0.4392  0.0425  0.0036
   38MOL   H19216546   1.755   6.325   1.682 -0.8063  0.6624 -0.6666
   38MOL   H19316547   1.921   6.350   1.634 -0.8036 -1.5510 -0.7396
   38MOL   H19416548   1.908   6.584   1.739  1.2799 -1.3320  1.3388
   38MOL   H19516549   1.882   6.466   1.866 -2.5662 -0.2111  2.1681
   38MOL   H19616550   1.641   6.490   1.837 -1.7517 -0.0554 -0.1755
   38MOL   H19716551   1.712   6.645   1.874 -0.0168  1.9655 -1.1976
   38MOL   H19816552   1.533   6.814   1.531  0.0227  0.1763 -0.6712
   38MOL   H19916553   1.369   6.795   1.565 -0.5306  1.3044 -0.2515
   38MOL   C20016554   1.477   6.963   1.665  0.4003  0.0829 -0.6855
   38MOL   C20116555   1.615   6.999   1.722 -0.6324 -0.2138  0.5090
   38MOL   C20216556   1.733   6.997   1.617  0.2025 -0.1654  1.0621
   38MOL   C20316557   1.864   6.994   1.702 -0.0506 -0.2928 -0.0520
   38MOL   C20416558   1.877   7.120   1.788 -0.6054  0.0685  0.5547
   38MOL   C20516559   1.755   7.128   1.883 -0.6467 -0.6213  0.5881
   38MOL   C20616560   1.621   7.130   1.812 -0.4378 -0.3717 -0.4389
   38MOL   C20716561   1.415   7.070   1.569  0.1584  0.3111 -0.6553
   38MOL   H20816562   1.417   6.961   1.756  1.7289  1.2030  0.2379
   38MOL   H20916563   1.643   6.925   1.796  1.3269 -1.5284 -1.4890
   38MOL   H21016564   1.738   7.081   1.548  3.3445 -0.6324  0.6719
   38MOL   H21116565   1.740   6.909   1.553  0.2932 -0.1692  1.0780
   38MOL   H21216566   1.859   6.908   1.769 -2.1053  1.1432  1.7022
   38MOL   H21316567   1.961   6.990   1.652 -0.5048  1.9789 -1.1737
   38MOL   H21416568   1.974   7.120   1.838  0.5476  1.3551 -1.6195
   38MOL   H21516569   1.876   7.207   1.723  0.3025 -0.5569 -0.3110
   38MOL   H21616570   1.748   7.042   1.949 -0.3181  0.5856  2.2266
   38MOL   H21716571   1.763   7.219   1.943 -0.8142 -1.2474  1.5767
   38MOL   H21816572   1.543   7.146   1.887  0.1301  0.2427  0.0201
   38MOL   H21916573   1.609   7.213   1.742  1.6428 -0.1422 -0.5434
   38MOL   H22016574   1.414   7.160   1.630 -0.4228 -0.8736  1.1159
   38MOL   H22116575   1.486   7.102   1.493  1.4641 -0.5480  0.1605
   38MOL   C22216576   1.271   7.046   1.506  0.3009  0.0878  0.0237
   38MOL   C22316577   1.161   7.135   1.562  0.0228 -0.3434 -0.4431
   38MOL   C22416578   1.168   7.283   1.519  0.4194 -0.0050 -0.3585
   38MOL   C22516579   1.054   7.359   1.587 -0.0097  0.1141 -0.1123
   38MOL   C22616580   1.063   7.353   1.735 -0.3167 -0.7560  0.1572
   38MOL   C22716581   1.041   7.207   1.785  0.8878 -0.6672 -0.1949
   38MOL   C22816582   1.148   7.120   1.715 -0.4967 -0.6924  0.0807
   38MOL   C22916583   1.274   7.047   1.353 -0.7493  0.2577 -0.2202
   38MOL   H23016584   1.234   6.950   1.541  1.0836 -0.6240 -1.1067
   38MOL   H23116585   1.070   7.100   1.515  0.4451  0.7327 -2.1083
   38MOL   H23216586   1.258   7.327   1.561 -0.6774  0.8914  1.1185
   38MOL   H23316587   1.170   7.291   1.410  1.0137 -0.7763 -0.4008
   38MOL   H23416588   0.952   7.343   1.552 -0.0723  1.6541 -0.6963
   38MOL   H23516589   1.075   7.461   1.556  0.8307  0.6312  2.0717
   38MOL   H23616590   1.161   7.396   1.758 -0.5730  0.1302 -0.3733
   38MOL   H23716591   0.986   7.421   1.771  0.7790  0.6576 -0.1075
   38MOL   H23816592   0.945   7.164   1.757  1.3232 -1.3680 -0.6381
   38MOL   H23916593   1.036   7.196   1.893 -0.9938 -1.2000 -0.3245
   38MOL   H24016594   1.233   7.159   1.770 -0.7522 -1.3591  0.9777
   38MOL   H24116595   1.110   7.020   1.740  0.9026 -0.5283  3.0007
   38MOL   H24216596   1.369   7.000   1.331 -0.0905  1.3466  0.2438
   38MOL   H24316597   1.304   7.143   1.311  2.8866 -0.3302  0.8479
   38MOL   C24416598   1.171   6.967   1.283 -0.2755  0.3834  0.2191
   38MOL   C24516599   1.187   6.807   1.308 -0.1702  0.7165 -0.4635
   38MOL   C24616600   1.321   6.754   1.247  0.1015 -0.0301 -0.3073
   38MOL   C24716601   1.332   6.602   1.240 -0.1352 -0.2581  0.3275
   38MOL   C24816602   1.213   6.541   1.167 -0.1844 -0.1439  0.1968
   38MOL   C24916603   1.089   6.575   1.243 -0.0969  0.0296 -0.1660
   38MOL   C25016604   1.063   6.733   1.246  0.2099 -0.1576  0.7088
   38MOL   C25116605   1.155   7.023   1.133  0.7304  0.0889 -0.5286
   38MOL   H25216606   1.076   6.972   1.336  0.0107 -0.8734  0.8691
   38MOL   H25316607   1.192   6.785   1.414 -0.2746 -1.9204 -0.9874
   38MOL   H25416608   1.414   6.793   1.290  0.8353 -1.8993 -0.1429
   38MOL   H25516609   1.321   6.781   1.142 -1.0793  0.7758 -0.1058
   38MOL   H25616610   1.428   6.575   1.197  1.1077 -0.6818  3.2811
   38MOL   H25716611   1.340   6.544   1.332 -3.1039 -1.3121 -0.0222
   38MOL   H25816612   1.212   6.568   1.061 -1.7061 -0.2078  0.1824
   38MOL   H25916613   1.215   6.432   1.174  0.7710 -0.0646  1.1319
   38MOL   H26016614   1.112   6.540   1.344  0.3695 -0.7238 -0.5295
   38MOL   H26116615   1.007   6.527   1.190 -0.3524  1.7044 -1.3195
   38MOL   H26216616   1.037   6.761   1.145  2.3600 -3.8513 -0.9635
   38MOL   H26316617   0.975   6.760   1.305 -0.9549 -1.2631 -0.5170
   38MOL   H26416618   1.104   6.943   1.078  0.4388 -0.9093  1.1423
   38MOL   H26516619   1.253   7.040   1.089  0.5769  0.2044 -0.8258
   38MOL   C26616620   1.060   7.135   1.116 -0.1285 -0.2967 -0.2629
   38MOL   C26716621   1.077   7.229   0.994 -0.1239  0.2051  0.1187
   38MOL   C26816622   1.064   7.154   0.861 -0.4084  0.6494 -0.6488
   38MOL   C26916623   1.093   7.236   0.736 -0.1711 -0.0272  0.1600
   38MOL   C27016624   1.234   7.287   0.747 -0.6152  0.0650 -0.9703
   38MOL   C27116625   1.247   7.368   0.872  0.9324 -0.5406 -0.5434
   38MOL   C27216626   1.217   7.296   1.001 -0.5112  0.3494 -0.1194
   38MOL   C27316627   0.911   7.108   1.143  0.7917 -0.3210 -0.4033
   38MOL   H27416628   1.086   7.206   1.195  0.5590  2.1306 -2.5819
   38MOL   H27516629   1.003   7.310   0.994 -1.1890 -0.7433 -1.1231
   38MOL   H27616630   1.129   7.067   0.849 -0.5019  0.4242  0.4469
   38MOL   H27716631   0.963   7.113   0.865 -1.3429  2.9573 -0.0589
   38MOL   H27816632   1.026   7.322   0.732  0.3775  0.4169  0.4681
   38MOL   H27916633   1.082   7.168   0.651  0.3222 -1.2691  1.0743
   38MOL   H28016634   1.304   7.203   0.746 -1.2999 -0.5822  1.5276
   38MOL   H28116635   1.274   7.344   0.663  1.0690 -0.9344 -0.8882
   38MOL   H28216636   1.181   7.454   0.861 -0.1858 -1.3583 -0.2160
   38MOL   H28316637   1.347   7.411   0.875  0.3500  0.7700  0.6955
   38MOL   H28416638   1.226   7.359   1.089 -0.4475  1.3825 -0.8502
   38MOL   H28516639   1.298   7.225   1.009 -1.4127 -0.6770  0.0226
   38MOL   H28616640   0.904   7.005   1.178  4.8068 -0.7613 -0.6813
   38MOL   H28716641   0.853   7.101   1.051  0.2232 -1.0873  0.0035
   38MOL   C28816642   0.826   7.200   1.239 -0.2283  0.1462 -0.3923
   38MOL   C28916643   0.714   7.126   1.329 -0.4564  0.1232  0.4154
   38MOL   C29016644   0.646   7.004   1.249 -0.8528 -0.5993 -0.6739
   38MOL   C29116645   0.541   6.947   1.343  0.3173 -0.1848 -0.1115
   38MOL   C29216646   0.612   6.876   1.460  0.5228  0.1301 -0.5428
   38MOL   C29316647   0.680   6.978   1.545  0.3332 -0.1806 -0.3299
   38MOL   C29416648   0.769   7.060   1.455 -0.3231  0.2816 -0.9866
   38MOL   C29516649   0.757   7.314   1.154  0.6408 -0.0985  0.3114
   38MOL   H29616650   0.907   7.234   1.304  0.0204  0.3026 -0.7823
   38MOL   H29716651   0.635   7.195   1.355  0.0050  0.4666  0.9198
   38MOL   H29816652   0.604   7.034   1.153  3.0638  1.8685 -1.7231
   38MOL   H29916653   0.718   6.926   1.225 -0.4278 -0.5302  0.3324
   38MOL   H30016654   0.484   7.031   1.384 -1.4302 -0.6463 -1.5228
   38MOL   H30116655   0.478   6.874   1.292 -2.6268  2.0910  0.1234
   38MOL   H30216656   0.686   6.800   1.434  0.8245  0.5899 -1.0412
   38MOL   H30316657   0.534   6.825   1.515  0.1129 -0.8999 -2.0353
   38MOL   H30416658   0.729   6.927   1.628  1.7102  0.6740 -0.6055
   38MOL   H30516659   0.608   7.047   1.589 -2.9483 -3.1897 -0.7091
   38MOL   H30616660   0.855   7.004   1.418  0.0373  0.6062 -0.6487
   38MOL   H30716661   0.806   7.137   1.523 -4.9475  0.8308  1.1173
   38MOL   H30816662   0.816   7.340   1.066 -2.6700 -1.7901 -2.4944
   38MOL   H30916663   0.665   7.274   1.112 -0.0315 -0.6080  2.2233
   38MOL   C31016664   0.729   7.443   1.242 -0.1504  0.1721  0.2142
   38MOL   C31116665   0.848   7.538   1.242  0.4860 -0.4307 -0.0122
   38MOL   C31216666   0.864   7.617   1.107  0.0444 -0.1581  0.0383
   38MOL   C31316667   0.998   7.700   1.102  0.7425  0.1116  0.6497
   38MOL   C31416668   1.028   0.010   1.228 -0.2097 -0.0289  0.0341
   38MOL   C31516669   1.020   7.694   1.353  0.1900 -0.1893  0.3842
   38MOL   C31616670   0.868   7.636   1.365  0.3498 -0.1444  0.6416
   38MOL   C31716671   0.591   7.509   1.200 -0.4075 -0.2826 -0.8824
   38MOL   H31816672   0.730   7.406   1.344 -1.2615  0.4900  0.3427
   38MOL   H31916673   0.935   7.473   1.235  0.5427 -0.3615  0.0475
   38MOL   H32016674   0.869   7.549   1.022 -1.9330  0.5742 -0.6992
   38MOL   H32116675   0.777   7.680   1.095  0.2529 -0.4453 -3.5243
   38MOL   H32216676   1.002   7.758   1.010  3.7571 -2.7252 -1.1309
   38MOL   H32316677   1.085   7.634   1.099 -1.0221 -2.4214  2.5111
   38MOL   H32416678   1.126   0.053   1.210 -0.5364  0.4081 -0.6793
   38MOL   H32516679   0.955   0.090   1.241  0.1651  0.1964  0.7932
   38MOL   H32616680   1.104   7.625   1.363  0.6218  0.3683  0.6097
   38MOL   H32716681   1.028   7.759   1.440  0.9566  0.2530 -0.0207
   38MOL   H32816682   0.794   7.716   1.370  0.7493  0.1440  2.2491
   38MOL   H32916683   0.869   7.578   1.458 -0.2985  0.1038  0.8096
   38MOL   H33016684   0.523   7.425   1.189  0.3556 -0.9278 -0.7674
   38MOL   H33116685   0.604   7.551   1.101  1.6822  1.3678  0.0645
   38MOL   C33216686   0.524   7.615   1.285 -0.0431  1.0555  0.6034
   38MOL   C33316687   0.524   7.582   1.435  0.4902  0.1660  0.3724
   38MOL   C33416688   0.447   7.452   1.467 -0.5990  0.0518  0.1377
   38MOL   C33516689   0.480   7.394   1.606 -0.0492 -0.8556 -0.9596
   38MOL   C33616690   0.449   7.499   1.712 -0.3516 -0.2220  0.6770
   38MOL   C33716691   0.520   7.628   1.680 -0.1187  0.7121 -0.5179
   38MOL   C33816692   0.493   7.684   1.540  0.0208  0.6521 -0.1201
   38MOL   C33916693   0.373   7.645   1.242  0.5747 -0.1302 -0.1021
   38MOL   H34016694   0.583   7.707   1.270 -0.2838  1.6519  3.1465
   38MOL   H34116695   0.627   7.562   1.463  1.1164  0.0093 -1.9719
   38MOL   H34216696   0.340   7.471   1.460 -0.5405  0.4304  0.2520
   38MOL   H34316697   0.474   7.380   1.390 -0.8414 -0.1691  0.2613
   38MOL   H34416698   0.413   7.310   1.621  0.6436 -1.1744  0.4625
   38MOL   H34516699   0.580   7.350   1.618  0.1142 -0.4091 -0.6896
   38MOL   H34616700   0.341   7.516   1.703 -0.4253 -0.8228  0.4333
   38MOL   H34716701   0.472   7.456   1.809 -1.5485 -1.2161  0.5284
   38MOL   H34816702   0.628   7.613   1.677 -0.3170 -0.7631 -1.0092
   38MOL   H34916703   0.491   7.698   1.758 -1.0447 -2.2432  1.8894
   38MOL   H35016704   0.529   0.014   1.527 -0.7066  1.0106  0.6333
   38MOL   H35116705   0.386   7.703   1.533 -0.2008 -0.4960  0.0079
   38MOL   H35216706   0.322   7.682   1.332 -0.5205  0.5931 -1.0060
   38MOL   H35316707   0.318   7.555   1.215  2.3957 -1.0675 -0.7349
   38MOL   C35416708   0.347   7.765   1.147 -0.4690  0.1631  0.5383
   38MOL   C35516709   0.192   0.033   1.136 -0.7881 -0.2857  0.1195
   38MOL   C35616710   0.152   0.098   1.268  0.2150  0.7407  0.3579
   38MOL   C35716711   0.004   0.146   1.265 -0.3655 -0.0797 -0.0613
   38MOL   C35816712   7.683   0.039   1.217 -0.1313 -0.5454 -0.2060
   38MOL   C35916713   7.729   7.756   1.084  0.1122 -0.5920 -0.2845
   38MOL   C36016714   0.097   7.695   1.084  0.5488 -0.4503  0.4509
   38MOL   C36116715   0.397   7.724   0.997 -0.0691 -0.2844  0.6958
   38MOL   H36216716   0.409   0.077   1.178  0.5229  0.6630 -2.6202
   38MOL   H36316717   0.182   0.109   1.058  1.2950 -1.4777 -1.3547
   38MOL   H36416718   0.215   0.187   1.276 -1.6452  2.1332  0.0355
   38MOL   H36516719   0.148   0.028   1.351 -0.0267  1.6001  1.0863
   38MOL   H36616720   7.740   0.176   1.363 -2.8503  0.8547 -1.2408
   38MOL   H36716721   7.769   0.227   1.192  4.3697 -1.2097 -1.9995
   38MOL   H36816722   7.667   7.729   1.287  0.2518 -0.7231 -0.3254
   38MOL   H36916723   7.589   0.093   1.221 -0.0768 -0.4671  0.0036
   38MOL   H37016724   7.651   7.682   1.064  0.3493 -0.4463 -1.7454
   38MOL   H37116725   7.714   0.062   1.009  1.7845 -0.1017 -0.1209
   38MOL   H37216726   0.128   7.644   0.993  0.7640  1.6338 -0.6658
   38MOL   H37316727   0.090   7.616   1.158  1.8811  0.7958  1.9576
   38MOL   H37416728   0.341   7.637   0.963  1.5140 -1.4474  1.0110
   38MOL   H37516729   0.501   7.698   1.020  0.4655 -1.1530 -2.4840
   38MOL   C37616730   0.396   0.067   0.891  0.5440 -0.4216 -0.0291
   38MOL   C37716731   0.477   0.198   0.918  0.1275 -0.3607 -0.1109
   38MOL   C37816732   0.614   0.166   0.987  0.0814  0.6749 -0.0522
   38MOL   C37916733   0.691   0.292   1.025 -0.9848  0.1977 -0.2859
   38MOL   C38016734   0.610   0.394   1.111  0.0849  0.3637  0.0263
   38MOL   C38116735   0.481   0.424   1.048 -0.4501  0.6581 -0.6754
   38MOL   C38216736   0.396   0.296   1.016  0.3674 -0.4638 -0.0698
   38MOL   C38316737   0.460   0.003   0.769 -0.0770  0.2733 -0.9006
   38MOL   H38416738   0.296   0.100   0.865  0.3269 -1.2429 -0.2551
   38MOL   H38516739   0.496   0.252   0.825 -1.7176 -0.0358 -0.3279
   38MOL   H38616740   0.601   0.099   1.072 -2.0494  0.3996 -0.5865
   38MOL   H38716741   0.669   0.115   0.908 -0.2959 -0.4876  0.4233
   38MOL   H38816742   0.721   0.345   0.935 -0.6432  0.7731  0.1636
   38MOL   H38916743   0.784   0.260   1.073 -0.0518  0.6019 -1.7762
   38MOL   H39016744   0.575   0.359   1.208  0.7474 -1.0417 -0.2338
   38MOL   H39116745   0.663   0.489   1.109 -0.7940  0.8463 -2.7019
   38MOL   H39216746   0.426   0.489   1.116  2.2458  1.4707  0.8067
   38MOL   H39316747   0.497   0.480   0.956  2.9553  0.8978 -0.0075
   38MOL   H39416748   0.361   0.262   1.113  2.1209 -1.4866  0.2211
   38MOL   H39516749   0.307   0.328   0.961 -1.0498 -2.8632  0.7450
   38MOL   H39616750   0.562   7.740   0.789  0.5418  2.2979 -0.3691
   38MOL   H39716751   0.488   0.079   0.697 -0.2772  4.3071  3.0622
   38MOL   C39816752   0.375   7.670   0.679 -0.7659  0.2675 -0.7542
   38MOL   C39916753   0.293   7.736   0.565  0.4620  0.6768 -0.3705
   38MOL   C40016754   0.190   0.062   0.620  0.3075  0.5179  0.2203
   38MOL   C40116755   0.092   0.121   0.518  0.3099 -0.0829 -0.3185
   38MOL   C40216756   0.166   0.178   0.405  0.0980  0.2350  0.3452
   38MOL   C40316757   0.260   0.077   0.345 -0.1656 -0.0747 -0.4501
   38MOL   C40416758   0.368   0.033   0.445  0.1316  0.4730 -0.6978
   38MOL   C40516759   0.452   7.541   0.637 -0.3736  0.0452 -0.3281
   38MOL   H40616760   0.302   7.636   0.752  1.7359 -0.3870  1.5507
   38MOL   H40716761   0.234   7.656   0.519 -1.5419  1.7267  0.2974
   38MOL   H40816762   0.231   0.154   0.662 -1.0208  2.2805 -2.2029
   38MOL   H40916763   0.149   0.012   0.708  0.5779 -1.0348 -0.5400
   38MOL   H41016764   0.030   0.198   0.564 -0.1436  0.4837 -1.8408
   38MOL   H41116765   0.026   0.042   0.484  0.1312 -0.1313  0.1361
   38MOL   H41216766   0.227   0.263   0.439  0.2660  0.4560 -0.5054
   38MOL   H41316767   0.102   0.227   0.332 -2.7361 -1.7302  1.4532
   38MOL   H41416768   0.198   7.770   0.303 -1.6983  0.9121 -0.1093
   38MOL   H41516769   0.314   0.122   0.263  0.1550 -0.2823 -0.3546
   38MOL   H41616770   0.439   7.730   0.412 -0.3218 -1.2777  2.1731
   38MOL   H41716771   0.423   0.115   0.491 -1.6757  1.8235 -0.8804
   38MOL   H41816772   0.516   7.558   0.551  0.0888 -0.3972 -0.0764
   38MOL   H41916773   0.527   7.520   0.713 -0.5735  0.5733  0.0111
   38MOL   C42016774   0.370   7.412   0.606  0.0504 -0.4995  0.3155
   38MOL   C42116775   0.431   7.296   0.681  0.7377  1.2243 -0.9431
   38MOL   C42216776   0.576   7.260   0.630 -0.4160  0.5029 -0.7252
   38MOL   C42316777   0.636   7.144   0.704  0.4376  0.0144  0.8412
   38MOL   C42416778   0.543   7.026   0.677  0.1250 -0.2908 -0.0497
   38MOL   C42516779   0.402   7.050   0.734 -0.2439 -0.1969 -0.0363
   38MOL   C42616780   0.337   7.175   0.684  0.1684  0.1965 -0.2274
   38MOL   C42716781   0.340   7.388   0.457  0.0123  0.2153  0.0545
   38MOL   H42816782   0.273   7.431   0.652 -0.2757  0.5200 -0.7659
   38MOL   H42916783   0.435   7.313   0.788 -1.3486  0.4780 -0.7348
   38MOL   H43016784   0.569   7.232   0.525  2.3471 -3.6985  0.1285
   38MOL   H43116785   0.650   7.337   0.651  1.0793 -1.5599  1.8520
   38MOL   H43216786   0.739   7.125   0.675  0.1057 -2.1487  1.0306
   38MOL   H43316787   0.644   7.177   0.808  1.1748 -0.9007  1.0809
   38MOL   H43416788   0.582   6.946   0.740 -2.3636 -2.9469 -1.7321
   38MOL   H43516789   0.552   6.990   0.575  0.4969  3.2497 -1.3115
   38MOL   H43616790   0.412   7.052   0.843 -0.3277 -1.9755  0.0193
   38MOL   H43716791   0.345   6.959   0.714 -2.5833  1.5695 -1.6277
   38MOL   H43816792   0.287   7.156   0.590  0.9217  0.4789 -0.6933
   38MOL   H43916793   0.258   7.198   0.755 -0.5087 -0.4464 -0.7782
   38MOL   H44016794   0.430   7.366   0.400 -0.8281  0.4350 -1.3621
   38MOL   H44116795   0.266   7.307   0.459 -2.2465  2.2533  3.3614
   38MOL   H44216796   0.293   7.477   0.416  1.4544  0.7262 -0.5052
   39MOL     C116797   1.464   3.512   2.008 -0.5490  0.1877 -0.2282
   39MOL     C216798   1.576   3.541   2.121 -0.1520 -0.3021  0.7374
   39MOL     C316799   1.570   3.447   2.239  0.6488  0.2004  0.5985
   39MOL     C416800   1.685   3.479   2.339 -0.6063  0.0840  0.2294
   39MOL     C516801   1.688   3.631   2.381  0.4064 -0.5896  0.4730
   39MOL     C616802   1.685   3.719   2.258  0.4403 -0.6714  0.0450
   39MOL     C716803   1.572   3.691   2.165 -0.0628  0.2530 -0.0669
   39MOL     C816804   1.476   3.379   1.928  0.5518  0.0664 -0.4262
   39MOL     H916805   1.367   3.500   2.057 -1.1577  0.6005 -1.3134
   39MOL    H1016806   1.675   3.523   2.078 -0.8247  0.4630 -1.2265
   39MOL    H1116807   1.471   3.449   2.286 -0.5454  3.2013 -1.8549
   39MOL    H1216808   1.583   3.349   2.194  1.0083  1.0755 -1.2343
   39MOL    H1316809   1.775   3.441   2.290 -1.0161 -0.2672 -0.2505
   39MOL    H1416810   1.667   3.433   2.436  1.0454 -0.6790  0.1781
   39MOL    H1516811   1.768   3.647   2.453  0.7889 -0.1044 -0.0550
   39MOL    H1616812   1.592   3.653   2.426 -0.3844  1.1366 -1.9123
   39MOL    H1716813   1.683   3.826   2.279  1.8966 -0.1919 -2.1193
   39MOL    H1816814   1.780   3.708   2.206  0.4146  0.7562 -0.3411
   39MOL    H1916815   1.573   3.757   2.078 -1.3256 -1.5896 -1.5245
   39MOL    H2016816   1.481   3.715   2.219  0.2567  1.0073  0.1346
   39MOL    H2116817   1.376   3.354   1.892 -0.1398 -0.6472  1.9114
   39MOL    H2216818   1.511   3.288   1.975 -1.7691  0.0105  1.2576
   39MOL    H2316819   1.443   3.595   1.940 -0.2692  0.8904  0.5421
   39MOL    C2416820   1.563   3.381   1.798  0.1142  0.1010 -0.8813
   39MOL    C2516821   1.710   3.357   1.823 -0.5200 -0.0156  0.2910
   39MOL    C2616822   1.799   3.424   1.718 -0.2358 -0.5198 -0.0096
   39MOL    C2716823   1.953   3.400   1.740 -0.7800  0.0789 -0.2507
   39MOL    C2816824   1.997   3.252   1.780 -0.5854  0.1151  0.2782
   39MOL    C2916825   1.894   3.188   1.872 -0.1987 -0.5464 -0.3998
   39MOL    C3016826   1.748   3.210   1.828 -0.4071 -0.2797  0.0611
   39MOL    C3116827   1.505   3.289   1.682  0.1742 -0.3660 -0.4908
   39MOL    H3216828   1.556   3.482   1.759  1.6107  0.4649 -0.2333
   39MOL    H3316829   1.734   3.410   1.915 -0.8249  1.4470 -0.4435
   39MOL    H3416830   1.780   3.529   1.736 -1.3491 -0.5260 -1.0922
   39MOL    H3516831   1.763   3.416   1.615 -0.4158  0.1008  0.0027
   39MOL    H3616832   2.004   3.447   1.656 -0.1575 -1.1066 -0.5600
   39MOL    H3716833   1.983   3.457   1.828 -1.3660  0.1783 -0.1154
   39MOL    H3816834   2.090   3.267   1.835 -0.6378  1.1376  0.1042
   39MOL    H3916835   2.022   3.192   1.692 -2.9475  1.7470 -1.5680
   39MOL    H4016836   1.912   3.081   1.881 -0.8774 -0.4809  2.1711
   39MOL    H4116837   1.916   3.223   1.973  1.7925 -0.1399 -0.9564
   39MOL    H4216838   1.733   3.169   1.728 -0.7316 -2.6815  1.0503
   39MOL    H4316839   1.685   3.161   1.903  1.5037 -0.9645  1.2629
   39MOL    H4416840   1.488   3.194   1.732 -0.3765 -0.3400 -0.6280
   39MOL    H4516841   1.585   3.266   1.612 -1.8585 -0.8269 -2.7135
   39MOL    C4616842   1.386   3.354   1.600  0.1985  0.0492 -0.8399
   39MOL    C4716843   1.300   3.240   1.535  0.5424  0.2007  0.0039
   39MOL    C4816844   1.192   3.166   1.624  0.4619  0.7331  0.2773
   39MOL    C4916845   1.246   3.041   1.706 -0.8799 -0.4118  0.6509
   39MOL    C5016846   1.311   2.942   1.606  0.0411  0.1365  0.3887
   39MOL    C5116847   1.420   3.014   1.527 -0.0549  0.0205  0.2395
   39MOL    C5216848   1.368   3.141   1.450 -0.1067  0.7122  0.4445
   39MOL    C5316849   1.439   3.454   1.495 -0.4595  0.5197  0.2762
   39MOL    H5416850   1.320   3.403   1.671 -0.2701 -0.1935 -1.1118
   39MOL    H5516851   1.226   3.285   1.469 -0.0166 -0.8766 -0.1154
   39MOL    H5616852   1.152   3.234   1.700  1.0915  0.9865  0.3844
   39MOL    H5716853   1.110   3.141   1.556  0.2808  0.3388  0.6384
   39MOL    H5816854   1.171   3.002   1.774 -1.4179  1.1383  0.9839
   39MOL    H5916855   1.334   3.070   1.765  2.0242 -1.6361 -2.9056
   39MOL    H6016856   1.352   2.862   1.667  1.9376  0.9432  0.1900
   39MOL    H6116857   1.230   2.901   1.546  1.2462  0.5929 -1.6015
   39MOL    H6216858   1.460   2.946   1.452  1.2996 -0.6575  1.5478
   39MOL    H6316859   1.505   3.030   1.593 -2.1549  0.7135  2.8412
   39MOL    H6416860   1.442   3.185   1.383 -0.8237  1.8552  0.3897
   39MOL    H6516861   1.304   3.099   1.373  1.7080  2.1612 -1.9146
   39MOL    H6616862   1.519   3.413   1.434  0.1857  1.4645  0.4805
   39MOL    H6716863   1.497   3.529   1.549 -3.4228  1.2379  2.5906
   39MOL    C6816864   1.341   3.528   1.407 -0.1879 -0.5625 -0.5100
   39MOL    C6916865   1.219   3.580   1.479 -0.4893  0.6643  0.2696
   39MOL    C7016866   1.250   3.684   1.587  0.2591  0.4104  0.3184
   39MOL    C7116867   1.116   3.728   1.657 -0.7282 -0.2427  0.6333
   39MOL    C7216868   1.003   3.785   1.562  0.1350  0.9271  0.3844
   39MOL    C7316869   0.980   3.680   1.452 -0.1764 -0.4626 -0.4675
   39MOL    C7416870   1.108   3.632   1.384  0.4711  0.2993  0.5409
   39MOL    C7516871   1.431   3.638   1.335  0.6964 -0.1955  0.4024
   39MOL    H7616872   1.294   3.459   1.336 -0.5583  0.8970 -1.7074
   39MOL    H7716873   1.176   3.500   1.540 -1.3062 -1.4022 -2.8584
   39MOL    H7816874   1.291   3.772   1.538  0.8770 -0.7896 -1.3403
   39MOL    H7916875   1.323   3.650   1.661  1.6015 -2.1065 -2.0732
   39MOL    H8016876   1.080   3.645   1.718 -0.9290 -0.0688  0.7501
   39MOL    H8116877   1.135   3.799   1.738 -0.4736  1.0568 -0.5477
   39MOL    H8216878   1.035   3.876   1.511 -1.3160  1.3173  0.1526
   39MOL    H8316879   0.904   3.805   1.601  0.0795 -2.1211  1.9694
   39MOL    H8416880   0.912   3.723   1.378 -0.9537  0.2614  0.6345
   39MOL    H8516881   0.932   3.598   1.505  2.2719 -1.4952  0.2103
   39MOL    H8616882   1.151   3.709   1.319  1.3064 -0.6920 -0.0986
   39MOL    H8716883   1.078   3.558   1.310  1.9670  0.1157  0.0880
   39MOL    H8816884   1.376   3.710   1.274  1.4199  1.1385  1.2995
   39MOL    H8916885   1.467   3.715   1.404 -0.4909  0.8384 -0.1275
   39MOL    C9016886   1.550   3.584   1.245  0.1727  0.3754 -0.3200
   39MOL    C9116887   1.693   3.559   1.303 -0.1652  0.1071 -0.2847
   39MOL    C9216888   1.801   3.558   1.190 -0.5206 -0.1445 -0.1324
   39MOL    C9316889   1.943   3.555   1.235 -0.2225 -0.3176 -0.6387
   39MOL    C9416890   1.980   3.658   1.342 -0.1210 -0.1208 -0.7337
   39MOL    C9516891   1.884   3.653   1.452  0.0175  0.0171 -0.1222
   39MOL    C9616892   1.738   3.655   1.408  0.0373 -0.5281  0.0013
   39MOL    C9716893   1.513   3.468   1.149 -0.5925  0.2910  0.5484
   39MOL    H9816894   1.570   3.668   1.179 -3.7491  2.8616  1.4971
   39MOL    H9916895   1.692   3.457   1.344 -0.5403  1.1477  2.3916
   39MOL   H10016896   1.780   3.649   1.134 -2.2824  0.4753  1.4924
   39MOL   H10116897   1.783   3.478   1.117 -0.4760  1.4806 -1.9605
   39MOL   H10216898   2.006   3.575   1.148  1.2042  1.2508  0.7262
   39MOL   H10316899   1.969   3.456   1.273 -1.3438 -0.4625 -0.2367
   39MOL   H10416900   1.973   3.757   1.297 -0.0828 -1.1548 -3.0941
   39MOL   H10516901   2.084   3.640   1.372  0.2174 -1.1798 -2.4720
   39MOL   H10616902   1.903   3.560   1.505  0.4284 -0.0432 -0.3683
   39MOL   H10716903   1.898   3.740   1.516 -0.9822 -0.3963  0.6563
   39MOL   H10816904   1.680   3.638   1.499 -1.4132 -0.1942 -0.8551
   39MOL   H10916905   1.708   3.757   1.382 -2.0377 -0.7683  1.3813
   39MOL   H11016906   1.585   3.460   1.068  0.1238 -2.3157  1.3733
   39MOL   H11116907   1.492   3.374   1.200  0.2861  0.3321  0.9888
   39MOL   C11216908   1.379   3.494   1.064 -0.4433 -0.5897 -0.4337
   39MOL   C11316909   1.324   3.364   0.997  0.1187 -0.4416 -0.6997
   39MOL   C11416910   1.239   3.275   1.093 -0.2740  0.0067  0.3731
   39MOL   C11516911   1.188   3.152   1.022  0.0651 -0.1308  0.9414
   39MOL   C11616912   1.304   3.069   0.973  0.7111  0.3316  0.2791
   39MOL   C11716913   1.383   3.146   0.864 -0.4256 -0.3925 -0.1936
   39MOL   C11816914   1.437   3.280   0.918 -0.3493  0.8039 -0.2464
   39MOL   C11916915   1.419   3.596   0.953  0.3972 -0.2641 -0.3467
   39MOL   H12016916   1.301   3.533   1.129  0.1792 -1.7373  1.0256
   39MOL   H12116917   1.256   3.401   0.920  0.0108 -0.6519 -0.7058
   39MOL   H12216918   1.165   3.335   1.146 -0.9590 -0.6836  0.2014
   39MOL   H12316919   1.303   3.236   1.172  0.6511  2.6638  0.9967
   39MOL   H12416920   1.142   3.088   1.096  0.5651  0.6398  1.9316
   39MOL   H12516921   1.117   3.169   0.941  2.1478  0.1518 -0.8706
   39MOL   H12616922   1.371   3.014   1.039  0.5445  1.3869  1.3361
   39MOL   H12716923   1.260   2.988   0.914  0.8290  1.0100 -0.7512
   39MOL   H12816924   1.456   3.081   0.817  0.7268  1.0750 -0.4574
   39MOL   H12916925   1.313   3.168   0.784 -0.2469 -0.3328 -0.3342
   39MOL   H13016926   1.468   3.331   0.828 -0.7101 -1.1017 -1.4888
   39MOL   H13116927   1.523   3.251   0.979 -0.2373 -1.7677 -1.5326
   39MOL   H13216928   1.465   3.537   0.874  0.7450 -0.4910  0.0293
   39MOL   H13316929   1.500   3.662   0.982  1.0641 -2.0930  2.1155
   39MOL   C13416930   1.306   3.681   0.890  0.1148 -0.4157  0.2066
   39MOL   C13516931   1.354   3.740   0.757  0.0813 -0.4919  0.3494
   39MOL   C13616932   1.328   3.643   0.646  0.3610  0.2233  0.8454
   39MOL   C13716933   1.376   3.714   0.510 -0.1286  0.2183  0.1757
   39MOL   C13816934   1.517   3.783   0.509 -0.1700  0.4000  0.9369
   39MOL   C13916935   1.526   3.879   0.630  0.0269  0.5646  0.2551
   39MOL   C14016936   1.499   3.803   0.759  0.4484  0.1690  0.5495
   39MOL   C14116937   1.253   3.781   0.988  0.3210  0.1764  0.4782
   39MOL   H14216938   1.219   3.621   0.860  0.0717 -0.2427 -0.0136
   39MOL   H14316939   1.279   3.816   0.736  0.1956 -0.2449  0.8273
   39MOL   H14416940   1.378   3.547   0.658 -0.8860 -0.2362  2.5253
   39MOL   H14516941   1.221   3.622   0.637  0.4436  0.1367 -0.0543
   39MOL   H14616942   1.298   3.787   0.487  0.8034  1.4486  0.8583
   39MOL   H14716943   1.359   3.640   0.432 -0.2159  0.1957  0.2157
   39MOL   H14816944   1.593   3.705   0.508  0.3479  0.8776 -1.9892
   39MOL   H14916945   1.534   3.844   0.421 -0.2821  0.2973  0.8433
   39MOL   H15016946   1.454   3.959   0.614 -0.6643 -0.1691 -0.3602
   39MOL   H15116947   1.627   3.920   0.638  0.1242  0.3683  0.0307
   39MOL   H15216948   1.582   3.733   0.769  1.9860  2.2615  2.8743
   39MOL   H15316949   1.497   3.871   0.844 -2.1343  0.1028  0.5746
   39MOL   H15416950   1.331   3.842   1.033 -1.3320  2.8957 -0.2020
   39MOL   H15516951   1.235   3.719   1.076  0.3541 -1.4119 -0.6032
   39MOL   C15616952   1.131   3.867   0.947 -0.2916  0.2867  0.2132
   39MOL   C15716953   1.144   3.998   1.040 -0.0818  0.3034  0.5432
   39MOL   C15816954   1.060   4.120   0.989 -0.0256  0.4737 -0.5106
   39MOL   C15916955   1.063   4.243   1.067 -0.3453 -0.1235 -0.0609
   39MOL   C16016956   1.023   4.214   1.214  0.1069  0.3294  0.3805
   39MOL   C16116957   1.110   4.104   1.275 -0.2840  0.2643 -0.1436
   39MOL   C16216958   1.103   3.975   1.188 -0.4573 -0.2953 -0.0497
   39MOL   C16316959   0.991   3.794   0.961  0.0276  0.3582  0.3815
   39MOL   H16416960   1.136   3.910   0.847  1.3282  0.8138  0.5059
   39MOL   H16516961   1.245   4.039   1.039 -0.0311  0.1739  0.3436
   39MOL   H16616962   1.084   4.149   0.887 -1.3045  3.3120 -0.0410
   39MOL   H16716963   0.955   4.090   0.985 -0.5325  1.7221  2.4398
   39MOL   H16816964   1.155   4.300   1.078 -0.4343  0.1075 -0.4779
   39MOL   H16916965   0.991   4.315   1.027 -3.4756 -2.6261  0.8950
   39MOL   H17016966   0.918   4.186   1.218  0.4591 -0.9577  1.0609
   39MOL   H17116967   1.040   4.309   1.264  0.9406  0.2455  0.2670
   39MOL   H17216968   1.091   4.090   1.382  1.1401 -0.7620 -0.0108
   39MOL   H17316969   1.210   4.146   1.266 -0.3387 -0.2569 -3.8769
   39MOL   H17416970   1.163   3.898   1.236 -1.9305 -1.5569 -0.2187
   39MOL   H17516971   1.007   3.928   1.205 -0.1776 -1.3774 -1.3201
   39MOL   H17616972   0.909   3.856   0.998 -4.3272 -3.4483 -2.3500
   39MOL   H17716973   1.004   3.726   1.045  4.6464  1.1838  0.4569
   39MOL   C17816974   0.953   3.717   0.836 -0.6316 -1.3505  0.1527
   39MOL   C17916975   0.901   3.575   0.869 -0.6593  0.0188  0.0331
   39MOL   C18016976   0.879   3.475   0.749 -0.7602 -0.4724  0.6558
   39MOL   C18116977   0.849   3.330   0.794  0.4532  0.2253  0.1107
   39MOL   C18216978   0.725   3.336   0.879 -0.6191 -0.1802 -0.2966
   39MOL   C18316979   0.753   3.425   1.007  0.2960  0.3470  0.1610
   39MOL   C18416980   0.789   3.570   0.973 -0.3338  0.4903 -0.0847
   39MOL   C18516981   0.845   3.794   0.742  0.1510 -0.0609 -0.2759
   39MOL   H18616982   1.038   3.705   0.769 -0.2808 -1.2842  0.5876
   39MOL   H18716983   0.980   3.521   0.921  0.7379  3.1788  1.2670
   39MOL   H18816984   0.799   3.504   0.682  2.1486  0.6125 -2.5189
   39MOL   H18916985   0.972   3.491   0.693 -2.0341  2.1332 -0.8008
   39MOL   H19016986   0.927   3.291   0.860 -3.0081 -2.7035  2.6840
   39MOL   H19116987   0.843   3.265   0.706 -1.4479 -0.5801  0.8012
   39MOL   H19216988   0.639   3.371   0.823 -1.2848 -0.0603  0.8016
   39MOL   H19316989   0.697   3.236   0.913 -0.1133 -0.0639  0.4851
   39MOL   H19416990   0.844   3.388   1.055 -0.0372  1.4730  1.7128
   39MOL   H19516991   0.673   3.420   1.081 -2.1827  1.7783 -2.3471
   39MOL   H19616992   0.696   3.594   0.920  0.3301  2.3970 -0.4276
   39MOL   H19716993   0.797   3.634   1.060 -0.6361 -1.7450  1.6318
   39MOL   H19816994   0.834   3.733   0.653  0.0950 -0.1866 -0.1832
   39MOL   H19916995   0.753   3.799   0.800 -0.6214  1.8660 -1.5930
   39MOL   C20016996   0.875   3.935   0.685  0.0384 -0.1209 -0.4222
   39MOL   C20116997   0.986   3.936   0.571  0.2588  0.2052  0.0817
   39MOL   C20216998   0.924   3.885   0.439 -0.0549 -0.1396  0.3567
   39MOL   C20316999   1.023   3.886   0.318 -0.6495 -0.4123  0.2215
   39MOL   C20417000   1.085   4.020   0.303 -0.0483  0.2367 -0.1883
   39MOL   C20517001   1.157   4.060   0.435  0.4796  0.5171  0.7142
   39MOL   C20617002   1.057   4.069   0.555 -0.1243 -0.1915  0.2082
   39MOL   C20717003   0.739   4.001   0.637 -0.0645  0.5555 -0.5348
   39MOL   H20817004   0.924   3.992   0.764  0.0652  0.9244 -1.1881
   39MOL   H20917005   1.060   3.864   0.607  0.7013  0.7491  0.2786
   39MOL   H21017006   0.850   3.958   0.405 -0.4497 -0.6255  0.1793
   39MOL   H21117007   0.874   3.788   0.436 -3.0933  1.3306  1.5589
   39MOL   H21217008   1.093   3.804   0.332  1.0931  1.2604  1.6621
   39MOL   H21317009   0.976   3.860   0.223 -3.0050  0.9202  0.9665
   39MOL   H21417010   1.154   4.022   0.218 -2.5267  0.4267 -2.2327
   39MOL   H21517011   1.007   4.091   0.277  0.0539  0.8251  1.1037
   39MOL   H21617012   1.249   4.005   0.454  0.7987  1.4869  2.0866
   39MOL   H21717013   1.193   4.160   0.410  0.5212 -0.4515 -3.6037
   39MOL   H21817014   1.117   4.102   0.640  2.4058  0.5028 -1.7966
   39MOL   H21917015   0.988   4.153   0.542  1.5177  1.2134  0.3744
   39MOL   H22017016   0.759   4.066   0.551 -0.8009 -1.3510 -2.1821
   39MOL   H22117017   0.673   3.923   0.599 -1.3865  2.6116 -2.5721
   39MOL   C22217018   0.672   4.095   0.744  0.9369 -0.5453  0.1510
   39MOL   C22317019   0.625   4.022   0.879 -0.2429  0.6215  0.3599
   39MOL   C22417020   0.510   3.923   0.855  0.1498 -0.0981  0.1419
   39MOL   C22517021   0.478   3.849   0.987  0.3403 -0.4330 -0.3248
   39MOL   C22617022   0.447   3.948   1.106  0.2151 -0.3776  0.4544
   39MOL   C22717023   0.546   4.058   1.130 -0.6003  0.1373  0.2655
   39MOL   C22817024   0.581   4.123   0.990  0.2236 -0.0995 -0.1915
   39MOL   C22917025   0.768   4.218   0.762  0.2225  0.4862  0.1422
   39MOL   H23017026   0.579   4.124   0.695 -0.9854 -2.5644  2.4467
   39MOL   H23117027   0.713   3.976   0.923 -0.2169 -0.7284 -1.0517
   39MOL   H23217028   0.421   3.980   0.829  1.1471  0.9468 -1.1032
   39MOL   H23317029   0.536   3.840   0.789  1.0050 -0.8314  1.3686
   39MOL   H23417030   0.564   3.796   1.029  1.3785  0.4525 -1.3094
   39MOL   H23517031   0.397   3.776   0.981  0.2141 -0.2951 -0.3154
   39MOL   H23617032   0.345   3.985   1.098 -0.4075 -2.2036 -0.4924
   39MOL   H23717033   0.446   3.890   1.198  0.5861 -1.8968 -0.4730
   39MOL   H23817034   0.637   4.017   1.174  0.9175  1.5970 -1.4123
   39MOL   H23917035   0.519   4.132   1.205  0.0034  0.6106  0.0264
   39MOL   H24017036   0.505   4.193   0.956  1.0384  2.2199  2.5472
   39MOL   H24117037   0.663   4.191   1.015 -1.2362  1.8750 -0.6232
   39MOL   H24217038   0.857   4.224   0.699 -0.1787  1.8614 -0.3024
   39MOL   H24317039   0.817   4.213   0.860 -2.7868 -0.5176  1.6703
   39MOL   C24417040   0.683   4.350   0.755 -0.3058 -0.5052  0.3925
   39MOL   C24517041   0.665   4.402   0.611  0.5400 -0.2802 -0.6941
   39MOL   C24617042   0.526   4.368   0.563  0.0399 -0.2178 -0.3715
   39MOL   C24717043   0.493   4.444   0.434  0.2882 -0.9182 -0.1602
   39MOL   C24817044   0.596   4.405   0.329  0.2572 -0.3377  0.1850
   39MOL   C24917045   0.736   4.450   0.378 -0.4258  0.1453 -0.0103
   39MOL   C25017046   0.779   4.381   0.507  0.2788  0.4739 -0.4992
   39MOL   C25117047   0.742   4.460   0.852 -0.0875  0.2991  0.9584
   39MOL   H25217048   0.584   4.331   0.795 -0.4658 -0.1539  0.1730
   39MOL   H25317049   0.676   4.510   0.628 -0.3578 -0.0681 -1.4239
   39MOL   H25417050   0.447   4.395   0.632 -0.6368  0.0846 -1.2518
   39MOL   H25517051   0.508   4.262   0.541 -1.2330 -0.1607  0.3757
   39MOL   H25617052   0.391   4.410   0.413 -0.4231 -0.5572  2.5158
   39MOL   H25717053   0.484   4.548   0.464 -0.5293 -0.7673 -0.9009
   39MOL   H25817054   0.597   4.300   0.301 -0.0637 -0.6232  1.2207
   39MOL   H25917055   0.578   4.472   0.244 -2.5572  3.0382  3.2908
   39MOL   H26017056   0.745   4.558   0.385 -4.7154  0.6460 -1.0877
   39MOL   H26117057   0.805   4.409   0.305  1.2645 -1.0091  2.1464
   39MOL   H26217058   0.786   4.276   0.478 -2.1792  0.1019  0.1767
   39MOL   H26317059   0.876   4.417   0.543  1.8405 -1.9188 -2.0864
   39MOL   H26417060   0.818   4.510   0.791  0.3892 -0.6325  0.7702
   39MOL   H26517061   0.794   4.409   0.933  0.3736  0.0973  0.5417
   39MOL   C26617062   0.620   4.553   0.892  0.0250 -0.5117  1.1099
   39MOL   C26717063   0.574   4.517   1.036 -0.1764 -0.4326 -0.4514
   39MOL   C26817064   0.420   4.541   1.065 -0.5203  0.0235 -0.2554
   39MOL   C26917065   0.390   4.492   1.205 -0.0626 -0.3277 -0.1664
   39MOL   C27017066   0.476   4.545   1.321 -0.4477 -0.0667 -0.2139
   39MOL   C27117067   0.622   4.514   1.288 -0.2146  1.0483 -0.1309
   39MOL   C27217068   0.663   4.558   1.153 -0.4198 -0.8591 -0.1077
   39MOL   C27317069   0.663   4.704   0.861  0.2048 -0.2408 -0.6659
   39MOL   H27417070   0.535   4.537   0.826 -0.3439  1.6463  1.0259
   39MOL   H27517071   0.576   4.408   1.042 -3.2950 -0.4510  1.1367
   39MOL   H27617072   0.403   4.649   1.070  0.7058  0.1729  0.7401
   39MOL   H27717073   0.352   4.506   0.987  1.4183 -0.4989 -1.7433
   39MOL   H27817074   0.392   4.383   1.211  0.2368 -0.2252  2.0276
   39MOL   H27917075   0.287   4.518   1.229  0.1637 -0.9956  1.5881
   39MOL   H28017076   0.466   4.653   1.333  0.1387 -0.0308  0.0006
   39MOL   H28117077   0.450   4.501   1.417  1.0011 -0.0884  0.1943
   39MOL   H28217078   0.634   4.406   1.295  0.4333  1.1580  0.4952
   39MOL   H28317079   0.680   4.562   1.367  0.9019 -0.9434  0.2921
   39MOL   H28417080   0.768   4.545   1.127 -0.9758  0.4913 -3.2928
   39MOL   H28517081   0.649   4.666   1.148  1.6593 -0.4266  2.3914
   39MOL   H28617082   0.732   4.728   0.780  0.5543  1.0520  0.0058
   39MOL   H28717083   0.732   4.725   0.942 -1.8572  1.4351  0.7245
   39MOL   C28817084   0.561   4.816   0.875 -0.3070 -1.0872  0.1230
   39MOL   C28917085   0.424   4.802   0.805 -0.4628  0.0225 -0.2416
   39MOL   C29017086   0.311   4.888   0.868 -0.1288 -0.0331 -0.1240
   39MOL   C29117087   0.171   4.850   0.802  0.2604 -0.4090  0.2365
   39MOL   C29217088   0.169   4.861   0.651 -0.1820 -0.4253  0.8926
   39MOL   C29317089   0.287   4.778   0.587  0.5157  0.1550 -0.9891
   39MOL   C29417090   0.428   4.816   0.654  0.1817  0.2829  0.4187
   39MOL   C29517091   0.626   4.951   0.833 -0.0225 -0.9317  0.4879
   39MOL   H29617092   0.545   4.833   0.982 -2.6877 -1.4258 -0.1391
   39MOL   H29717093   0.382   4.704   0.827 -0.3000  0.3317  1.4978
   39MOL   H29817094   0.313   4.865   0.975  1.7499 -1.2041 -0.3883
   39MOL   H29917095   0.336   4.994   0.865  3.0518 -0.7347  0.3308
   39MOL   H30017096   0.140   4.748   0.827  1.0279 -0.1309  2.3565
   39MOL   H30117097   0.098   4.920   0.843  0.2015 -0.8696  0.9191
   39MOL   H30217098   0.187   4.966   0.624 -1.6946 -0.2448  0.5792
   39MOL   H30317099   0.074   4.833   0.607  0.6978 -1.8381 -0.1686
   39MOL   H30417100   0.280   4.799   0.481 -0.5585 -0.6238 -1.0857
   39MOL   H30517101   0.272   4.673   0.613  1.3701  1.2321  4.4373
   39MOL   H30617102   0.451   4.921   0.633  2.5231 -0.1296  0.7408
   39MOL   H30717103   0.514   4.760   0.618  0.2186  1.4893 -1.4464
   39MOL   H30817104   0.658   4.928   0.731 -1.3501 -0.7991  0.0326
   39MOL   H30917105   0.545   5.023   0.826  2.1201  1.4770 -0.2385
   39MOL   C31017106   0.745   5.008   0.916  0.2086 -0.1715 -0.5006
   39MOL   C31117107   0.853   5.100   0.847  0.2946  0.1570 -0.3316
   39MOL   C31217108   0.948   5.011   0.776  0.7673  0.3769  0.2227
   39MOL   C31317109   1.058   5.088   0.701  0.4116 -0.4013 -0.2196
   39MOL   C31417110   0.999   5.201   0.613  0.4660  0.1559  0.1148
   39MOL   C31517111   0.908   5.287   0.690 -0.1322  0.0690 -0.7764
   39MOL   C31617112   0.792   5.208   0.748 -0.6253 -0.7088 -0.1708
   39MOL   C31717113   0.681   5.079   1.034  0.0695 -1.1474  0.0424
   39MOL   H31817114   0.797   4.921   0.957 -1.2910  0.2588  2.4450
   39MOL   H31917115   0.903   5.153   0.927 -1.4954 -0.6944  1.3881
   39MOL   H32017116   1.003   4.942   0.840  0.6482  0.2285  0.1668
   39MOL   H32117117   0.889   4.953   0.704 -0.1478  2.1906 -0.5384
   39MOL   H32217118   1.122   5.020   0.645  0.0817  0.7682 -2.0718
   39MOL   H32317119   1.127   5.127   0.775  1.7063 -1.4001 -0.8895
   39MOL   H32417120   1.082   5.257   0.569  1.2026  0.8640  2.3260
   39MOL   H32517121   0.936   5.153   0.538  1.2414 -0.5080 -0.1274
   39MOL   H32617122   0.959   5.352   0.761  1.7175 -0.5318 -1.5165
   39MOL   H32717123   0.865   5.355   0.617 -0.2179 -1.6876 -2.4114
   39MOL   H32817124   0.738   5.155   0.669 -0.8229 -1.0058  0.1587
   39MOL   H32917125   0.717   5.270   0.796 -1.8189 -2.5260  0.3748
   39MOL   H33017126   0.574   5.095   1.020  0.5772  2.0510 -0.4950
   39MOL   H33117127   0.715   5.183   1.036 -1.9198 -0.4471 -1.3375
   39MOL   C33217128   0.696   5.015   1.174 -0.7541  0.7329 -0.2937
   39MOL   C33317129   0.577   5.040   1.271 -0.1676  0.1532 -0.3228
   39MOL   C33417130   0.457   4.951   1.236 -0.5941  0.5488 -0.1421
   39MOL   C33517131   0.338   4.982   1.324  0.5421  0.6218  1.1224
   39MOL   C33617132   0.290   5.127   1.308 -0.0040  0.2277  0.0906
   39MOL   C33717133   0.404   5.214   1.365 -0.3864  0.4283  0.2764
   39MOL   C33817134   0.543   5.186   1.291  0.5483 -0.5422 -0.2299
   39MOL   C33917135   0.829   5.048   1.251 -0.0196  0.1004  0.4851
   39MOL   H34017136   0.681   4.909   1.158 -0.2069  0.3254  1.7110
   39MOL   H34117137   0.612   4.999   1.366  2.5941  3.8000  0.3292
   39MOL   H34217138   0.423   4.962   1.133 -1.5575  1.2426  0.2416
   39MOL   H34317139   0.483   4.846   1.254 -0.1511  0.6295 -0.3072
   39MOL   H34417140   0.257   4.918   1.287 -0.6492  0.9954  3.0408
   39MOL   H34517141   0.359   4.958   1.428 -1.4936 -2.2135  0.9504
   39MOL   H34617142   0.286   5.151   1.202 -0.9012  1.1977  0.3370
   39MOL   H34717143   0.204   5.155   1.369  1.4898  1.2795  1.7778
   39MOL   H34817144   0.417   5.205   1.472  1.1185 -1.1437 -0.0192
   39MOL   H34917145   0.377   5.319   1.353  2.1089  0.9854 -0.6691
   39MOL   H35017146   0.620   5.235   1.350 -1.1333 -0.3528  1.8831
   39MOL   H35117147   0.550   5.242   1.198  1.1730 -0.2183  0.0101
   39MOL   H35217148   0.814   5.026   1.357 -3.3372 -0.2839 -0.0219
   39MOL   H35317149   0.840   5.157   1.250  1.8649 -0.0625 -2.2542
   39MOL   C35417150   0.960   4.980   1.204  0.5211  0.1900  0.4924
   39MOL   C35517151   0.965   4.827   1.245 -0.5810  0.2528 -0.5459
   39MOL   C35617152   1.005   4.808   1.396  0.5146 -0.2784 -0.2527
   39MOL   C35717153   1.046   4.659   1.423  0.1233  0.2517  0.3798
   39MOL   C35817154   1.159   4.615   1.333 -0.4991  1.6452 -0.5678
   39MOL   C35917155   1.108   4.610   1.189 -1.0046  0.1054 -0.4409
   39MOL   C36017156   1.049   4.745   1.132 -0.3812  0.0240  0.0626
   39MOL   C36117157   1.080   5.058   1.261 -0.7428  0.3157  0.9631
   39MOL   H36217158   0.957   4.976   1.095  0.3770  0.1214  0.5001
   39MOL   H36317159   0.862   4.793   1.231 -0.1755 -0.6564 -1.3610
   39MOL   H36417160   0.926   4.843   1.463  0.1529  1.3040 -1.4990
   39MOL   H36517161   1.091   4.867   1.425  1.1953 -1.3572 -0.0192
   39MOL   H36617162   1.087   4.647   1.523  0.1763  2.2949  0.6308
   39MOL   H36717163   0.967   4.586   1.405 -0.0254  0.4886  0.0633
   39MOL   H36817164   1.240   4.688   1.329 -1.2027  2.4941  0.6073
   39MOL   H36917165   1.214   4.523   1.353  0.6376  1.9634 -2.1041
   39MOL   H37017166   1.195   4.582   1.130 -0.7035 -0.2131  0.1517
   39MOL   H37117167   1.056   4.524   1.145  0.9901  0.0561 -2.8413
   39MOL   H37217168   0.986   4.728   1.045  0.9767  0.0703 -0.9440
   39MOL   H37317169   1.132   4.809   1.102  1.2897 -2.7808 -1.4238
   39MOL   H37417170   1.157   4.981   1.251 -0.0711  1.1069 -0.0559
   39MOL   H37517171   1.078   5.090   1.365  0.1229  1.9991  0.4873
   39MOL   C37617172   1.147   5.161   1.165  0.1288 -0.0505  0.2600
   39MOL   C37717173   1.058   5.284   1.150  0.6425  0.3156 -0.3184
   39MOL   C37817174   1.092   5.371   1.023 -0.7023 -0.5012  0.8380
   39MOL   C37917175   1.001   5.496   1.014 -0.3766  0.0962  0.2511
   39MOL   C38017176   1.006   5.583   1.141 -0.2342  0.0054  0.1530
   39MOL   C38117177   0.956   5.496   1.258 -0.2954  0.4792  0.8465
   39MOL   C38217178   1.050   5.376   1.275  0.2245  0.1751 -0.8778
   39MOL   C38317179   1.292   5.192   1.215 -0.8328 -0.0211 -0.5100
   39MOL   H38417180   1.148   5.103   1.072  1.7757 -2.1885  1.5663
   39MOL   H38517181   0.953   5.262   1.133  0.5573 -0.7648  1.4814
   39MOL   H38617182   1.189   5.417   1.042 -1.5485  0.8018  2.1843
   39MOL   H38717183   1.106   5.322   0.927 -0.9370 -3.1879  2.1286
   39MOL   H38817184   0.903   5.455   0.991  0.5818 -1.5707 -1.0248
   39MOL   H38917185   1.020   5.558   0.926 -1.6323 -0.2829 -0.2983
   39MOL   H39017186   1.095   5.642   1.162 -0.5948 -0.1031  2.0947
   39MOL   H39117187   0.930   5.660   1.131 -0.6779 -0.0303  2.7498
   39MOL   H39217188   0.951   5.546   1.355  1.5855 -0.2640  1.3637
   39MOL   H39317189   0.857   5.454   1.243  0.8971 -1.3647 -2.5810
   39MOL   H39417190   1.148   5.420   1.296 -0.3258  0.1461  1.8873
   39MOL   H39517191   1.041   5.317   1.366  2.0541  1.1829 -0.0139
   39MOL   H39617192   1.289   5.216   1.321 -1.0111 -0.2820 -0.4568
   39MOL   H39717193   1.324   5.285   1.168 -0.9168 -0.9415 -2.4443
   39MOL   C39817194   1.403   5.082   1.181 -0.1406  0.7051 -0.0302
   39MOL   C39917195   1.462   5.077   1.044  0.0095 -0.5489  0.2403
   39MOL   C40017196   1.568   5.187   1.005  0.8517 -0.1194  0.2607
   39MOL   C40117197   1.621   5.180   0.860 -0.8547 -0.5260  0.1625
   39MOL   C40217198   1.685   5.041   0.834  0.1269  0.1363 -0.4403
   39MOL   C40317199   1.591   4.935   0.873 -0.1877  0.0901 -0.0444
   39MOL   C40417200   1.530   4.940   1.017  0.3694 -0.1697  0.2241
   39MOL   C40517201   1.512   5.097   1.294 -0.6497  0.4740 -0.8111
   39MOL   H40617202   1.356   4.985   1.195  1.4985 -0.3224 -1.4934
   39MOL   H40717203   1.383   5.090   0.970  0.3888  2.0956  0.2604
   39MOL   H40817204   1.647   5.176   1.079 -0.0034  0.1823  1.2304
   39MOL   H40917205   1.524   5.285   1.021  0.9196  0.0870 -0.7715
   39MOL   H41017206   1.696   5.256   0.835  0.2826 -2.3258 -2.0200
   39MOL   H41117207   1.542   5.194   0.786 -1.5830  0.1034  1.0590
   39MOL   H41217208   1.775   5.036   0.897 -0.4598  2.5059  0.6371
   39MOL   H41317209   1.712   5.020   0.731 -0.2550 -1.9019 -0.1543
   39MOL   H41417210   1.510   4.945   0.801  2.2806  3.6820 -2.5444
   39MOL   H41517211   1.631   4.835   0.853  0.5193  0.1604  0.9957
   39MOL   H41617212   1.465   4.855   1.036  2.2918 -1.8421 -0.4251
   39MOL   H41717213   1.613   4.934   1.089  1.2584 -1.5531 -0.8879
   39MOL   H41817214   1.607   5.049   1.271 -0.6207  0.9150 -1.6178
   39MOL   H41917215   1.537   5.202   1.314  0.4440 -0.0132  0.4896
   39MOL   C42017216   1.484   5.037   1.428 -0.1758  0.1646 -0.5551
   39MOL   C42117217   1.559   5.114   1.539 -0.0190 -0.3124  0.6064
   39MOL   C42217218   1.712   5.077   1.542  0.3441  0.0358 -0.3480
   39MOL   C42317219   1.796   5.133   1.662  0.4095 -0.2517  0.0680
   39MOL   C42417220   1.725   5.112   1.796 -0.9591 -0.0158  0.6293
   39MOL   C42517221   1.577   5.165   1.782  0.2690 -0.0797  0.6421
   39MOL   C42617222   1.500   5.088   1.677 -0.1732 -0.5467  0.1745
   39MOL   C42717223   1.496   4.884   1.440  0.3785 -0.2604 -0.0579
   39MOL   H42817224   1.378   5.051   1.450  0.4978  0.2899  3.0229
   39MOL   H42917225   1.550   5.220   1.517  1.1779 -0.3648 -0.1611
   39MOL   H43017226   1.715   4.968   1.541  0.9888  0.0497  0.4456
   39MOL   H43117227   1.753   5.116   1.448  1.6514 -1.5138 -0.4411
   39MOL   H43217228   1.897   5.094   1.666  0.2177 -0.9960 -1.9070
   39MOL   H43317229   1.801   5.238   1.633 -1.4612 -0.3335 -0.6407
   39MOL   H43417230   1.775   5.181   1.865 -0.3221  0.7128 -0.5316
   39MOL   H43517231   1.728   5.010   1.833  0.1661 -0.2248 -0.0076
   39MOL   H43617232   1.579   5.272   1.761  2.0404 -0.5347 -1.8717
   39MOL   H43717233   1.538   5.152   1.883  3.8374 -0.1373  2.1199
   39MOL   H43817234   1.499   4.980   1.691 -0.4111 -0.4655  0.7998
   39MOL   H43917235   1.393   5.111   1.683 -0.2280 -1.4191  3.4284
   39MOL   H44017236   1.453   4.835   1.352 -0.9357 -0.6735  0.8010
   39MOL   H44117237   1.592   4.831   1.444  0.5103  0.0150  0.4487
   39MOL   H44217238   1.437   4.842   1.521  1.4309 -1.6031  0.0407
   40MOL     C117239   7.153   5.739   2.252  0.3657 -0.3402  0.3014
   40MOL     C217240   7.192   5.772   2.111  0.9099 -0.5851  0.7617
   40MOL     C317241   7.347   5.787   2.087  0.1556  0.5531  0.0265
   40MOL     C417242   7.373   5.811   1.939 -0.5323 -0.3374  0.5821
   40MOL     C517243   7.311   5.944   1.890  0.6733 -0.1274  0.3095
   40MOL     C617244   7.159   5.939   1.911  0.3781 -0.2657  0.4911
   40MOL     C717245   7.132   5.905   2.057 -0.2622  0.4680  0.1970
   40MOL     C817246   7.200   5.605   2.309  0.1662 -0.3510 -0.3216
   40MOL     H917247   7.190   5.812   2.324  0.3411 -0.2366  0.2089
   40MOL    H1017248   7.149   5.685   2.062 -2.2150  0.3429  1.7595
   40MOL    H1117249   7.381   5.870   2.149  1.0047  0.6723 -0.5867
   40MOL    H1217250   7.406   5.703   2.126  0.4688 -0.1681 -1.9370
   40MOL    H1317251   7.334   5.723   1.888  0.3035  0.6570 -1.8426
   40MOL    H1417252   7.480   5.816   1.923 -0.4033  0.8738  1.8246
   40MOL    H1517253   7.333   5.971   1.786 -0.9914 -0.0173 -0.0232
   40MOL    H1617254   7.345   6.035   1.941  1.8870  0.3708 -1.3406
   40MOL    H1717255   7.111   6.036   1.900 -0.5876 -0.6075  1.5465
   40MOL    H1817256   7.101   5.867   1.852  2.0466 -1.4549  0.2622
   40MOL    H1917257   7.024   5.907   2.067 -0.3754  0.3671 -0.8908
   40MOL    H2017258   7.161   5.990   2.119  1.6836 -0.3936  0.5093
   40MOL    H2117259   7.302   5.590   2.273 -0.7104  0.2475 -3.1650
   40MOL    H2217260   7.150   5.525   2.255 -0.7710 -0.3247  0.4975
   40MOL    H2317261   7.045   5.742   2.265 -0.0385 -1.0270 -2.4608
   40MOL    C2417262   7.171   5.592   2.465  0.5625 -0.2821  0.3587
   40MOL    C2517263   7.055   5.492   2.508 -0.3655 -0.5323 -0.4219
   40MOL    C2617264   7.090   5.337   2.486  0.0127 -0.1985  0.2697
   40MOL    C2717265   6.978   5.247   2.529  0.7223  0.4448  0.1540
   40MOL    C2817266   6.839   5.281   2.472  0.0343 -0.2674  0.0235
   40MOL    C2917267   6.806   5.426   2.489 -0.1776  0.2059  0.4304
   40MOL    C3017268   6.920   5.525   2.444 -0.0645  0.2782 -0.3258
   40MOL    C3117269   7.296   5.572   2.544  0.1176  0.1479  0.1244
   40MOL    H3217270   7.140   5.690   2.502  0.3415 -1.2874  2.9750
   40MOL    H3317271   7.034   5.503   2.614  1.5229  0.8499 -0.1612
   40MOL    H3417272   7.182   5.302   2.533 -0.8285 -1.9711  0.6444
   40MOL    H3517273   7.109   5.335   2.379  1.2518  2.2918  0.4252
   40MOL    H3617274   7.008   5.150   2.491  1.9765  0.0178  2.1712
   40MOL    H3717275   6.964   5.241   2.637  0.7917 -2.6953  0.0273
   40MOL    H3817276   6.761   5.214   2.507  0.6047 -1.9966 -1.9197
   40MOL    H3917277   6.852   5.279   2.364  0.4117 -0.1747  0.0644
   40MOL    H4017278   6.722   5.468   2.434 -2.0596 -1.0924  2.2194
   40MOL    H4117279   6.788   5.453   2.593  1.3238  0.8261  0.5473
   40MOL    H4217280   6.931   5.526   2.335 -1.2467  1.1186 -0.4493
   40MOL    H4317281   6.888   5.623   2.480 -0.9760  0.0600 -0.5083
   40MOL    H4417282   7.351   5.492   2.495 -1.9102 -0.3135 -1.4592
   40MOL    H4517283   7.281   5.537   2.647  0.2675  2.8728  1.1257
   40MOL    C4617284   7.383   5.702   2.566  0.5798  0.2615 -0.2650
   40MOL    C4717285   7.536   5.689   2.547 -0.6307 -0.1549  0.1448
   40MOL    C4817286   7.618   5.599   2.647  0.2896  0.2522 -0.3274
   40MOL    C4917287   7.766   5.592   2.628  0.0483  0.0353  0.1664
   40MOL    C5017288   0.053   5.735   2.627  0.2384 -0.3056 -0.7736
   40MOL    C5117289   7.759   5.813   2.503  0.2928  0.8718  0.3771
   40MOL    C5217290   7.607   5.823   2.534  0.2696  0.0136 -0.8392
   40MOL    C5317291   7.344   5.776   2.699  0.4196  0.2690 -0.1178
   40MOL    H5417292   7.358   5.776   2.491 -1.5800 -0.7590 -0.5743
   40MOL    H5517293   7.535   5.633   2.453 -1.2946  0.8241 -0.4414
   40MOL    H5617294   7.605   5.653   2.742 -1.6441 -0.0969 -0.3767
   40MOL    H5717295   7.576   5.499   2.648 -0.7039  0.6379 -2.7076
   40MOL    H5817296   0.023   5.537   2.538  0.1822 -1.0363  0.8468
   40MOL    H5917297   0.026   5.531   2.712 -2.5529  1.9444  2.6383
   40MOL    H6017298   0.036   5.784   2.723  0.9650 -2.5513  0.5277
   40MOL    H6117299   0.160   5.733   2.607 -0.0478  0.0790 -2.4645
   40MOL    H6217300   7.770   5.775   2.402 -0.4371  0.5305  0.4202
   40MOL    H6317301   0.026   5.914   2.513 -0.2409  0.8474  3.0977
   40MOL    H6417302   7.597   5.891   2.619 -0.3901  0.7953 -1.5314
   40MOL    H6517303   7.559   5.886   2.459 -1.5822  0.6103  0.8202
   40MOL    H6617304   7.412   5.861   2.708 -0.7606  1.0897  1.3176
   40MOL    H6717305   7.356   5.702   2.778 -1.1048  1.5640  1.3583
   40MOL    C6817306   7.199   5.829   2.725  0.5750  0.0108 -0.7246
   40MOL    C6917307   7.190   5.877   2.873  0.0134  0.3861 -0.6774
   40MOL    C7017308   7.202   5.753   2.971  0.1129  0.2885  0.0883
   40MOL    C7117309   7.186   5.792   3.113 -0.0295  0.3326  0.1860
   40MOL    C7217310   7.263   5.916   3.151 -0.6948  0.0799 -0.0604
   40MOL    C7317311   7.259   6.033   3.052  0.3901  0.4470  0.6224
   40MOL    C7417312   7.289   5.988   2.908  0.3877 -0.0825  0.0370
   40MOL    C7517313   7.167   5.944   2.626 -0.2040 -0.2961 -0.3031
   40MOL    H7617314   7.127   5.750   2.707 -1.3964  1.4248  0.7158
   40MOL    H7717315   7.092   5.917   2.898  0.6750  0.9797  1.0097
   40MOL    H7817316   7.304   5.715   2.980  0.0105 -0.0851 -0.3078
   40MOL    H7917317   7.133   5.671   2.948 -0.2453  0.7404 -0.4657
   40MOL    H8017318   7.078   5.807   3.112  0.1931  2.0014 -2.2278
   40MOL    H8117319   7.212   5.711   3.183  0.4157  0.4258  0.1287
   40MOL    H8217320   7.367   5.891   3.175 -1.5701 -2.8106  0.9163
   40MOL    H8317321   7.235   5.952   3.249 -2.2702  0.9804 -0.8178
   40MOL    H8417322   7.329   6.106   3.093  1.4179 -0.3970  0.3843
   40MOL    H8517323   7.157   6.069   3.058  0.0772 -0.5232  1.3309
   40MOL    H8617324   7.393   5.958   2.909  1.1766  2.3811 -2.4862
   40MOL    H8717325   7.287   6.067   2.833 -1.6961  0.5622  0.7260
   40MOL    H8817326   7.247   6.017   2.625 -0.6572  0.1940 -1.4120
   40MOL    H8917327   7.167   5.913   2.522 -2.3668  0.8920 -0.6856
   40MOL    C9017328   7.033   6.013   2.654 -0.2011  0.2109 -0.3534
   40MOL    C9117329   7.004   6.125   2.555  0.5743  0.2151 -0.4716
   40MOL    C9217330   7.131   6.211   2.515  0.3320  0.6458 -0.2343
   40MOL    C9317331   7.094   6.315   2.413  0.1501  0.2355 -0.1778
   40MOL    C9417332   7.030   6.265   2.284  0.0208  0.9749  0.4472
   40MOL    C9517333   6.905   6.187   2.330 -0.1573 -0.2086  0.2952
   40MOL    C9617334   6.934   6.067   2.421 -0.2001  0.3557 -0.2759
   40MOL    C9717335   6.913   5.918   2.675  0.0611 -1.0054  0.0989
   40MOL    H9817336   7.053   6.062   2.750 -0.0757  0.3342 -0.4416
   40MOL    H9917337   6.939   6.195   2.608  1.9458  2.1249 -1.2456
   40MOL   H10017338   7.211   6.152   2.470 -0.3207 -2.1802  2.1270
   40MOL   H10117339   7.184   6.255   2.599 -0.0677 -1.4874  1.1628
   40MOL   H10217340   7.193   6.356   2.394  1.0491 -1.4291  0.7264
   40MOL   H10317341   7.028   6.383   2.467  0.8354  1.6168 -1.0737
   40MOL   H10417342   7.104   6.207   2.230 -1.0071 -0.8115  0.9141
   40MOL   H10517343   7.001   6.353   2.227 -0.1004 -1.4007 -3.2929
   40MOL   H10617344   6.834   6.259   2.371 -1.0062 -0.7363 -0.2110
   40MOL   H10717345   6.852   6.146   2.243  1.2698 -0.5383 -0.4382
   40MOL   H10817346   6.839   6.020   2.447  0.3503 -1.2791 -1.1457
   40MOL   H10917347   7.006   5.999   2.375  0.5841  0.5942  0.5731
   40MOL   H11017348   6.900   5.859   2.585 -1.2598 -0.0483 -0.3388
   40MOL   H11117349   6.942   5.851   2.757  2.7283  0.3962  0.3514
   40MOL   C11217350   6.774   5.967   2.723  0.5857 -0.3441  0.9710
   40MOL   C11317351   6.782   6.044   2.864 -0.2456  0.1308  0.5705
   40MOL   C11417352   6.805   5.959   2.988 -0.4447  0.1151 -0.5342
   40MOL   C11517353   6.828   6.048   3.112  0.4140 -0.1187 -0.5045
   40MOL   C11617354   6.717   6.153   3.131 -0.4815 -0.2318 -0.5153
   40MOL   C11717355   6.680   6.231   3.006  0.0740  0.8636  0.6392
   40MOL   C11817356   6.666   6.148   2.876 -0.1358 -0.3675 -0.3026
   40MOL   C11917357   6.671   5.856   2.708 -0.2343  1.2652  0.1315
   40MOL   H12017358   6.757   6.051   2.656 -2.8283 -1.8352 -0.1562
   40MOL   H12117359   6.874   6.103   2.862 -0.7104  0.8027 -0.7888
   40MOL   H12217360   6.889   5.890   2.980  0.6300  1.2491  0.6021
   40MOL   H12317361   6.718   5.897   3.005 -1.3285  1.4045 -0.2821
   40MOL   H12417362   6.833   5.974   3.192  2.1018 -0.6649 -1.0889
   40MOL   H12517363   6.929   6.089   3.104 -0.3232  1.7430 -0.5702
   40MOL   H12617364   6.624   6.098   3.147  0.2196 -1.4313 -0.5074
   40MOL   H12717365   6.726   6.206   3.226 -0.0439  0.4856 -0.9558
   40MOL   H12817366   6.594   6.292   3.033 -0.7852 -0.8944  1.9482
   40MOL   H12917367   6.756   6.303   2.977 -1.4626  3.0976  1.9872
   40MOL   H13017368   6.671   6.214   2.789  0.1732  1.0824  0.7900
   40MOL   H13117369   6.570   6.096   2.882 -0.3620  0.1093  0.3610
   40MOL   H13217370   6.662   5.792   2.795 -1.7884  1.6353  0.2597
   40MOL   H13317371   6.709   5.791   2.629 -1.6707  1.5001 -0.7729
   40MOL   C13417372   6.536   5.901   2.656 -0.0309  0.1887 -0.1607
   40MOL   C13517373   6.429   5.786   2.667  0.1810 -0.0807  0.6610
   40MOL   C13617374   6.385   5.770   2.818  0.1823  0.2945 -0.4660
   40MOL   C13717375   6.290   5.650   2.846 -0.2180 -0.2018  0.1383
   40MOL   C13817376   6.321   5.523   2.762 -0.0693  0.4577 -0.5284
   40MOL   C13917377   6.358   5.546   2.618 -0.1298 -0.2774  0.0412
   40MOL   C14017378   6.467   5.650   2.605  0.3170  0.8630  0.9025
   40MOL   C14117379   6.547   5.970   2.516 -0.0707  0.1475  0.2203
   40MOL   H14217380   6.493   5.980   2.717  0.9268  0.9709 -0.4819
   40MOL   H14317381   6.339   5.820   2.616 -0.9849 -0.1899  2.5789
   40MOL   H14417382   6.473   5.754   2.881 -0.3092 -1.8355 -0.2675
   40MOL   H14517383   6.341   5.856   2.867 -1.2132 -0.6358 -0.0446
   40MOL   H14617384   6.195   5.688   2.808  0.0753  0.1040 -0.3009
   40MOL   H14717385   6.285   5.629   2.953 -1.2875  0.8082  0.2950
   40MOL   H14817386   6.393   5.457   2.811 -0.9774  0.7485  1.2130
   40MOL   H14917387   6.237   5.460   2.733 -0.8960  1.8040 -1.0999
   40MOL   H15017388   6.263   5.583   2.581 -1.0309 -1.8564  0.7123
   40MOL   H15117389   6.387   5.452   2.570  0.3410  0.1569 -0.5267
   40MOL   H15217390   6.555   5.607   2.653 -1.5017 -2.9494  0.9985
   40MOL   H15317391   6.484   5.665   2.498  0.9896 -0.4495  0.8033
   40MOL   H15417392   6.593   5.890   2.458  3.4601  1.4896  1.0705
   40MOL   H15517393   6.610   6.057   2.536  0.5972 -0.0898 -0.8145
   40MOL   C15617394   6.413   6.015   2.454  0.0718 -0.1481  0.1398
   40MOL   C15717395   6.368   5.912   2.342  0.4572 -0.1488 -0.8562
   40MOL   C15817396   6.223   5.927   2.303 -0.1374  0.3567  0.1826
   40MOL   C15917397   6.165   5.811   2.218  0.1557  0.5204 -0.0214
   40MOL   C16017398   6.253   5.789   2.094 -0.1934 -0.2322  0.0701
   40MOL   C16117399   6.406   5.773   2.135  0.4869  0.1282  0.6085
   40MOL   C16217400   6.461   5.895   2.220 -0.3369  0.1941 -0.0443
   40MOL   C16317401   6.426   6.164   2.397 -0.8312 -0.1699 -0.6403
   40MOL   H16417402   6.332   6.015   2.527 -1.9891 -0.5637 -2.0894
   40MOL   H16517403   6.371   5.818   2.397 -1.0091  0.0074 -0.4731
   40MOL   H16617404   6.158   5.937   2.390  1.1972  1.3786  1.0858
   40MOL   H16717405   6.212   6.021   2.249  1.4724  0.5460  0.1582
   40MOL   H16817406   6.181   5.720   2.276 -0.0723  0.3043 -0.3015
   40MOL   H16917407   6.061   5.824   2.191  0.1771 -0.1626 -0.4266
   40MOL   H17017408   6.233   5.860   2.014 -1.3977 -2.7898 -1.9851
   40MOL   H17117409   6.210   5.698   2.052  0.3027 -0.9924  1.1939
   40MOL   H17217410   6.467   5.746   2.049 -0.0546 -2.2708  0.9206
   40MOL   H17317411   6.414   5.676   2.186  1.2878 -0.0548  0.1272
   40MOL   H17417412   6.567   5.884   2.241 -0.2197  0.7788 -0.3281
   40MOL   H17517413   6.460   5.986   2.160  1.0371  0.9652  1.0814
   40MOL   H17617414   6.343   6.184   2.329 -2.9731  0.6426  2.1259
   40MOL   H17717415   6.512   6.179   2.331  0.0693  1.4105  0.8405
   40MOL   C17817416   6.418   6.271   2.510 -0.3496  0.0863 -0.2972
   40MOL   C17917417   6.545   6.350   2.508 -0.2961  0.0836 -0.3197
   40MOL   C18017418   6.567   6.431   2.630  0.5252 -0.1393  0.6162
   40MOL   C18117419   6.703   6.493   2.639  0.8735  0.2056  0.4845
   40MOL   C18217420   6.723   6.594   2.526 -0.3170 -0.4190 -0.2404
   40MOL   C18317421   6.692   6.530   2.388 -0.8023 -0.2807  0.6675
   40MOL   C18417422   6.552   6.450   2.394  0.6926  0.0602  0.0801
   40MOL   C18517423   6.288   6.358   2.504  0.5695  0.0008 -0.1774
   40MOL   H18617424   6.423   6.228   2.610 -1.2367  0.0200 -0.2748
   40MOL   H18717425   6.629   6.282   2.496  0.1259  0.7423 -1.1010
   40MOL   H18817426   6.494   6.512   2.632  2.0424  1.2804  0.3410
   40MOL   H18917427   6.546   6.375   2.721  2.6013 -0.5487  0.8727
   40MOL   H19017428   6.775   6.413   2.626  1.1782  0.7078 -1.0028
   40MOL   H19117429   6.710   6.532   2.741 -0.7872  1.9608 -0.0248
   40MOL   H19217430   6.658   6.682   2.527 -0.0320 -0.2093 -0.1761
   40MOL   H19317431   6.826   6.629   2.531 -1.0059  1.5894  0.2143
   40MOL   H19417432   6.772   6.464   2.355 -0.1185  0.2852  1.1685
   40MOL   H19517433   6.687   6.607   2.311  0.0301  0.4124  1.2862
   40MOL   H19617434   6.466   6.516   2.391  0.3900 -0.3221  0.3636
   40MOL   H19717435   6.543   6.390   2.303  2.2373 -2.2967  1.4357
   40MOL   H19817436   6.304   6.453   2.555  1.5707  0.4012 -1.2163
   40MOL   H19917437   6.274   6.398   2.404  0.3379  0.5389  0.0670
   40MOL   C20017438   6.151   6.292   2.549 -0.0320  0.1845  0.4541
   40MOL   C20117439   6.159   6.228   2.688 -0.3875  0.1567 -1.2859
   40MOL   C20217440   6.218   6.311   2.802 -0.8749 -0.1821  0.4324
   40MOL   C20317441   6.231   6.227   2.936 -0.1377 -0.1024  0.5253
   40MOL   C20417442   6.099   6.159   2.968  0.2138 -0.2151  0.1906
   40MOL   C20517443   6.048   6.073   2.854 -0.2370 -0.6229  0.3282
   40MOL   C20617444   6.027   6.157   2.730 -0.4082  0.5137  0.3619
   40MOL   C20717445   6.029   6.385   2.530  0.0517  0.1962  0.5710
   40MOL   H20817446   6.141   6.209   2.479 -0.5094  1.6112 -1.1699
   40MOL   H20917447   6.232   6.148   2.682 -2.8125 -2.3306  0.8760
   40MOL   H21017448   6.150   6.397   2.804  0.3046  0.7521  1.1432
   40MOL   H21117449   6.318   6.347   2.775 -1.8672  0.4288 -2.6283
   40MOL   H21217450   6.307   6.154   2.906  0.2069 -0.2978  1.8630
   40MOL   H21317451   6.268   6.284   3.021 -0.3736 -0.6224  0.9798
   40MOL   H21417452   6.104   6.086   3.048 -0.0005  1.0975  1.4283
   40MOL   H21517453   6.032   6.231   3.015  0.6145  0.0838  0.3058
   40MOL   H21617454   6.121   5.997   2.828 -0.7107 -1.0957  0.3561
   40MOL   H21717455   5.946   6.039   2.876 -2.2707  1.8750 -4.4377
   40MOL   H21817456   6.007   6.090   2.646  0.5989  0.7221 -0.0589
   40MOL   H21917457   5.943   6.224   2.745 -1.5801 -0.8622  0.0304
   40MOL   H22017458   5.943   6.357   2.591 -1.2079  2.0688 -0.3025
   40MOL   H22117459   6.063   6.479   2.574 -0.2806  0.8117 -0.4755
   40MOL   C22217460   5.983   6.413   2.384 -0.1141  0.2046  0.1216
   40MOL   C22317461   5.882   6.306   2.331  0.5420  0.7244  0.2662
   40MOL   C22417462   5.749   6.309   2.410  0.0475 -0.1093 -0.2773
   40MOL   C22517463   5.651   6.206   2.349 -0.5161 -0.4714 -0.3195
   40MOL   C22617464   5.705   6.064   2.338  0.0052 -0.6767  0.0848
   40MOL   C22717465   5.847   6.059   2.268 -0.0041 -0.2143  0.1968
   40MOL   C22817466   5.944   6.166   2.330 -0.1116  0.4562 -0.2465
   40MOL   C22917467   5.927   6.558   2.362 -0.0827 -0.7540  0.0832
   40MOL   H23017468   6.073   6.384   2.329 -0.0213 -0.9889  0.8861
   40MOL   H23117469   5.876   6.327   2.224  0.3509 -2.1924 -0.3287
   40MOL   H23217470   5.775   6.290   2.514  0.1114 -1.3577 -0.5214
   40MOL   H23317471   5.702   6.407   2.404  0.0191 -0.0041  1.4585
   40MOL   H23417472   5.616   6.237   2.250 -1.5002 -1.2937 -0.2409
   40MOL   H23517473   5.567   6.204   2.419  0.3962 -0.4045  0.7794
   40MOL   H23617474   5.714   6.035   2.442 -0.1452  2.7792  1.1266
   40MOL   H23717475   5.628   6.005   2.288 -0.6199  1.8722 -2.0904
   40MOL   H23817476   5.829   6.077   2.162 -0.1670 -0.2166  0.2224
   40MOL   H23917477   5.890   5.962   2.290  0.7870  0.3268  1.0529
   40MOL   H24017478   5.967   6.140   2.434 -0.3671  1.5989  0.0964
   40MOL   H24117479   6.037   6.159   2.275 -0.2564  0.7195 -0.5228
   40MOL   H24217480   5.861   6.583   2.445  0.1857 -0.8632  0.3309
   40MOL   H24317481   5.858   6.546   2.279 -0.4788  1.2563  0.0894
   40MOL   C24417482   6.037   6.667   2.334  0.4551  0.6207  0.4522
   40MOL   C24517483   6.034   6.784   2.436 -0.4772 -1.3899  0.6783
   40MOL   C24617484   6.079   6.739   2.574  0.0950 -0.1410 -0.4432
   40MOL   C24717485   6.068   6.871   2.658  0.6162  0.1099 -0.4085
   40MOL   C24817486   5.933   6.938   2.671  0.0018 -0.3013  0.5128
   40MOL   C24917487   5.885   6.982   2.535 -0.3440 -0.4120 -0.0364
   40MOL   C25017488   5.906   6.867   2.439 -0.1371 -0.1712 -0.6475
   40MOL   C25117489   6.030   6.722   2.187  0.0575  0.4784 -0.3390
   40MOL   H25217490   6.136   6.626   2.354  0.0990 -0.1249  0.6960
   40MOL   H25317491   6.104   6.857   2.397 -1.1549 -1.2389 -0.2713
   40MOL   H25417492   6.183   6.710   2.585  0.4357  1.6739  1.5005
   40MOL   H25517493   6.009   6.675   2.626  1.0916 -0.6903  0.2420
   40MOL   H25617494   6.103   6.853   2.759 -2.9109  0.6369  0.9722
   40MOL   H25717495   6.137   6.945   2.618 -0.7621  1.6347 -0.0376
   40MOL   H25817496   5.871   6.870   2.731 -2.4020  0.0814 -1.4308
   40MOL   H25917497   5.964   7.023   2.732  2.1173 -0.7801  0.1352
   40MOL   H26017498   5.950   7.056   2.489 -0.9697 -0.0808 -0.3856
   40MOL   H26117499   5.783   7.018   2.522  0.2407  1.8733  1.4750
   40MOL   H26217500   5.825   6.797   2.462  0.2397 -0.6611 -0.7929
   40MOL   H26317501   5.889   6.910   2.340  1.4135  0.9804 -0.4174
   40MOL   H26417502   6.082   6.816   2.176  1.9350 -0.3864  0.9326
   40MOL   H26517503   5.926   6.753   2.180 -0.5532 -1.3082  0.3150
   40MOL   C26617504   6.068   6.639   2.067  0.4713 -0.3035  0.3477
   40MOL   C26717505   6.006   6.704   1.933 -0.4961 -0.0365  0.4074
   40MOL   C26817506   6.055   6.849   1.898 -0.7879 -0.8508 -0.7819
   40MOL   C26917507   5.980   6.894   1.775  0.1600 -0.3564 -0.1925
   40MOL   C27017508   5.830   6.892   1.788 -0.5934  0.0595  0.5525
   40MOL   C27117509   5.779   6.752   1.801  0.3252 -0.8128 -0.3016
   40MOL   C27217510   5.845   6.690   1.921 -0.4146 -0.0264 -1.4560
   40MOL   C27317511   6.214   6.600   2.046  0.0622 -0.2485 -0.1142
   40MOL   H27417512   6.009   6.547   2.073 -0.8896  0.2256 -3.4503
   40MOL   H27517513   6.031   6.649   1.843  1.2596  0.1747  0.7572
   40MOL   H27617514   6.047   6.912   1.987 -0.2116 -0.9280 -0.6772
   40MOL   H27717515   6.157   6.854   1.861 -2.2104  2.4997 -4.7861
   40MOL   H27817516   5.998   6.832   1.687 -2.4727 -2.4149  0.6688
   40MOL   H27917517   6.010   6.995   1.747  0.7503  0.0056  1.6510
   40MOL   H28017518   5.800   6.956   1.871  1.0430  0.3269  0.9611
   40MOL   H28117519   5.790   6.940   1.699 -0.2477  0.7453  0.7586
   40MOL   H28217520   5.794   6.694   1.710  1.4003 -0.0445 -0.6255
   40MOL   H28317521   5.672   6.743   1.822  0.2187 -0.6692 -0.7543
   40MOL   H28417522   5.841   6.581   1.916  1.3502 -0.3391  2.0230
   40MOL   H28517523   5.788   6.712   2.011  2.4205  0.6417  0.2424
   40MOL   H28617524   6.245   6.548   2.136  0.4720 -0.6763 -0.4966
   40MOL   H28717525   6.256   6.700   2.034  2.1913 -1.0465  0.3918
   40MOL   C28817526   6.261   6.503   1.932  0.3500 -1.2222  0.5264
   40MOL   C28917527   6.173   6.378   1.904 -0.5757 -0.5268 -0.3919
   40MOL   C29017528   6.192   6.309   1.767 -0.5691 -0.2602 -0.4232
   40MOL   C29117529   6.106   6.194   1.744 -0.3533 -0.1861  0.4696
   40MOL   C29217530   6.107   6.087   1.850 -0.7391  0.1425 -0.1299
   40MOL   C29317531   6.077   6.154   1.991  0.2681  0.2178 -0.2239
   40MOL   C29417532   6.172   6.276   2.015  0.0963  0.1547 -0.1966
   40MOL   C29517533   6.409   6.466   1.959  0.4412  0.4864  0.2760
   40MOL   H29617534   6.247   6.562   1.841  0.1447  1.5210  2.2502
   40MOL   H29717535   6.068   6.408   1.902 -0.3151  0.3434 -1.1335
   40MOL   H29817536   6.168   6.383   1.691 -0.9276  1.5032  1.3540
   40MOL   H29917537   6.295   6.277   1.750  0.0041  0.2224  1.9114
   40MOL   H30017538   6.001   6.225   1.744 -0.6370 -1.0414 -2.0310
   40MOL   H30117539   6.128   6.152   1.646  0.6542 -1.4830  1.2390
   40MOL   H30217540   6.211   6.055   1.849 -0.2451  1.6719  0.8728
   40MOL   H30317541   6.040   6.003   1.829  0.4473 -1.1424  1.0365
   40MOL   H30417542   6.097   6.076   2.064  3.9600  1.5236  0.3009
   40MOL   H30517543   5.972   6.181   1.985  0.7553  2.4133  0.6249
   40MOL   H30617544   6.270   6.236   2.041  0.0739 -0.1741 -0.6190
   40MOL   H30717545   6.141   6.313   2.113  1.9745 -1.1091  0.9121
   40MOL   H30817546   6.424   6.440   2.064 -0.1061 -1.2907 -0.0658
   40MOL   H30917547   6.422   6.372   1.907 -0.4435  0.8916 -0.6895
   40MOL   C31017548   6.520   6.565   1.919 -0.5876 -1.2636  0.1306
   40MOL   C31117549   6.658   6.509   1.957 -0.3771  0.6157 -0.6889
   40MOL   C31217550   6.710   6.392   1.869  0.3558 -0.6030  0.4622
   40MOL   C31317551   6.823   6.324   1.941  0.0885 -0.1899 -1.3407
   40MOL   C31417552   6.938   6.421   1.955 -0.3087 -0.3595 -0.1599
   40MOL   C31517553   6.888   6.555   2.023  0.0363 -0.5113 -0.5259
   40MOL   C31617554   6.771   6.614   1.958  0.7100  0.0521  0.3786
   40MOL   C31717555   6.509   6.613   1.770 -0.0268 -0.3321  0.0560
   40MOL   H31817556   6.513   6.651   1.985  0.8300 -1.0803  0.0466
   40MOL   H31917557   6.643   6.475   2.059 -0.9499  0.5157 -0.8024
   40MOL   H32017558   6.648   6.305   1.844  0.3651 -0.6820  0.7169
   40MOL   H32117559   6.748   6.421   1.771 -2.2454  0.2085 -0.3431
   40MOL   H32217560   6.862   6.238   1.887  0.2344 -0.9678 -0.0154
   40MOL   H32317561   6.789   6.296   2.041  2.7280 -4.0821 -1.4152
   40MOL   H32417562   7.018   6.368   2.007  1.1804  1.0938 -0.9261
   40MOL   H32517563   6.980   6.451   1.859 -0.4447 -2.5437 -0.9257
   40MOL   H32617564   6.859   6.534   2.126 -1.3751 -0.4956 -0.9144
   40MOL   H32717565   6.965   6.632   2.028  1.3560 -1.8937  1.0067
   40MOL   H32817566   6.782   6.630   1.851 -0.1199  0.5992  0.3679
   40MOL   H32917567   6.747   6.710   2.004 -2.1346 -0.2284 -0.4108
   40MOL   H33017568   6.445   6.532   1.734 -1.0154 -0.4751  2.0409
   40MOL   H33117569   6.605   6.592   1.725 -0.3508 -0.1714 -0.7143
   40MOL   C33217570   6.452   6.749   1.733 -0.1809  0.2607 -0.2930
   40MOL   C33317571   6.407   6.755   1.582  0.2191 -0.6146  0.1296
   40MOL   C33417572   6.283   6.668   1.563  0.2059 -0.9069  0.1997
   40MOL   C33517573   6.220   6.680   1.422  0.0917  0.1633 -0.2203
   40MOL   C33617574   6.327   6.669   1.313  0.1559  0.1241 -0.3000
   40MOL   C33717575   6.450   6.759   1.332 -0.0018 -0.3738  0.3803
   40MOL   C33817576   6.514   6.740   1.470 -0.2437  0.7517 -0.3184
   40MOL   C33917577   6.555   6.860   1.782  0.0219  0.5152  0.0381
   40MOL   H34017578   6.361   6.766   1.790 -1.8092 -1.6890 -2.2100
   40MOL   H34117579   6.361   6.853   1.569 -0.1671 -0.7873  0.2059
   40MOL   H34217580   6.314   6.564   1.571 -0.3102 -1.0731  0.0728
   40MOL   H34317581   6.209   6.681   1.642 -0.5728  1.2249 -0.8302
   40MOL   H34417582   6.145   6.601   1.410 -0.2719  0.9888 -3.8711
   40MOL   H34517583   6.167   6.775   1.413 -0.5399 -0.2020 -0.4595
   40MOL   H34617584   6.366   6.567   1.306 -1.3316 -0.4532 -0.3525
   40MOL   H34717585   6.278   6.689   1.218 -0.5475 -0.3418 -0.0389
   40MOL   H34817586   6.409   6.860   1.330 -1.7427 -1.0844 -1.4848
   40MOL   H34917587   6.525   6.747   1.254  1.0605 -0.3185  1.3835
   40MOL   H35017588   6.585   6.822   1.481 -0.9111  1.4169 -0.9138
   40MOL   H35117589   6.571   6.648   1.470 -2.6994 -0.8452  1.9398
   40MOL   H35217590   6.650   6.829   1.739 -0.6727 -0.2140 -1.0081
   40MOL   H35317591   6.576   6.845   1.888  0.6387 -1.2202 -0.3231
   40MOL   C35417592   6.540   7.008   1.735  0.7931 -0.0987  0.1760
   40MOL   C35517593   6.667   7.095   1.762  0.4443 -0.3898 -0.3788
   40MOL   C35617594   6.795   7.046   1.691 -0.2239  0.8631 -0.3112
   40MOL   C35717595   6.904   7.152   1.702  0.2867  0.2170 -0.3675
   40MOL   C35817596   6.938   7.177   1.845  0.5844 -0.4958 -0.1106
   40MOL   C35917597   6.820   7.212   1.931  0.4627  0.4138  0.2146
   40MOL   C36017598   6.702   7.112   1.914  0.6082 -0.1658 -0.3369
   40MOL   C36117599   6.408   7.070   1.798  0.0725 -0.1540  1.0422
   40MOL   H36217600   6.525   7.007   1.627 -0.2771 -1.4164  0.3245
   40MOL   H36317601   6.639   7.189   1.715  0.2370 -0.3830 -0.2424
   40MOL   H36417602   6.770   7.032   1.586 -1.5270 -0.3689  0.1391
   40MOL   H36517603   6.841   6.950   1.716  2.5861  2.6760  1.7849
   40MOL   H36617604   6.991   7.111   1.652 -0.3691 -1.9692  0.2153
   40MOL   H36717605   6.871   7.236   1.641  0.7158 -0.1463 -1.1022
   40MOL   H36817606   6.990   7.090   1.886  0.0962  0.0610  1.7041
   40MOL   H36917607   7.022   7.245   1.855  2.2036 -1.7643 -3.9063
   40MOL   H37017608   6.847   7.207   2.037 -0.2286 -1.3612  0.3358
   40MOL   H37117609   6.783   7.313   1.914  0.8382  0.4142 -0.5995
   40MOL   H37217610   6.619   7.140   1.979  0.8246 -0.7106  0.1699
   40MOL   H37317611   6.729   7.014   1.953 -0.8783 -0.2055  0.6192
   40MOL   H37417612   6.420   7.075   1.907 -2.5726  1.8010  1.2825
   40MOL   H37517613   6.327   6.998   1.790 -0.6099  0.4795  2.1354
   40MOL   C37617614   6.355   7.209   1.747 -0.7711  0.3533 -0.0253
   40MOL   C37717615   6.311   7.198   1.595 -0.4688  0.6501 -0.4223
   40MOL   C37817616   6.314   7.341   1.527 -0.5055  0.4847  0.6597
   40MOL   C37917617   6.265   7.336   1.383  0.7917  0.0849  0.9185
   40MOL   C38017618   6.134   7.252   1.357 -0.2444  0.5567 -1.0308
   40MOL   C38117619   6.157   7.113   1.405  0.0475 -0.3690  0.3356
   40MOL   C38217620   6.182   7.121   1.560 -0.8077  0.0411 -0.3038
   40MOL   C38317621   6.249   7.277   1.837 -0.3021 -0.6398  1.0618
   40MOL   H38417622   6.441   7.276   1.754  0.3101 -1.1224  1.2859
   40MOL   H38517623   6.387   7.148   1.536 -0.6666  1.1056 -1.0703
   40MOL   H38617624   6.253   7.405   1.590  0.7074  0.5757  1.7822
   40MOL   H38717625   6.413   7.384   1.541  0.2493 -1.7708  2.5397
   40MOL   H38817626   6.348   7.302   1.321 -0.3969 -0.1332 -0.5611
   40MOL   H38917627   6.251   7.438   1.346  0.0170  0.6871  2.8158
   40MOL   H39017628   6.050   7.301   1.406 -0.1960  1.0295 -1.4213
   40MOL   H39117629   6.115   7.257   1.250 -1.9519 -1.8848 -0.8796
   40MOL   H39217630   6.068   7.056   1.380 -2.5541  3.4224  0.3681
   40MOL   H39317631   6.240   7.064   1.353  0.8525  1.7759 -0.4716
   40MOL   H39417632   6.095   7.164   1.610 -1.3115 -1.2090 -0.0746
   40MOL   H39517633   6.190   7.018   1.596  1.8466  0.1488 -0.4640
   40MOL   H39617634   6.167   7.206   1.846  1.6707 -3.1815 -0.4039
   40MOL   H39717635   6.212   7.369   1.793  0.9502 -1.2220 -1.2910
   40MOL   C39817636   6.274   7.307   1.984 -0.6255 -0.6741  0.2276
   40MOL   C39917637   6.401   7.393   2.009 -0.2113 -0.0575 -0.0059
   40MOL   C40017638   6.392   7.539   1.961 -0.3196  0.2204  0.4401
   40MOL   C40117639   6.510   7.626   2.007  0.2107 -0.2937 -0.3203
   40MOL   C40217640   6.544   7.610   2.160  0.4080  1.0895 -0.4376
   40MOL   C40317641   6.570   7.462   2.181  0.2440  0.0576 -0.2261
   40MOL   C40417642   6.442   7.384   2.162 -0.3799 -0.6580 -0.1354
   40MOL   C40517643   6.144   7.354   2.059 -0.2157  0.3688  0.0862
   40MOL   H40617644   6.301   7.212   2.031  2.6450 -1.1121 -2.3517
   40MOL   H40717645   6.479   7.346   1.949 -0.7805 -0.8591 -0.1132
   40MOL   H40817646   6.302   7.583   2.003 -0.2294  0.8684 -0.0464
   40MOL   H40917647   6.370   7.537   1.855  0.0503 -2.1367  0.3835
   40MOL   H41017648   6.482   7.730   1.990  3.7448  0.7041 -0.3875
   40MOL   H41117649   6.605   7.616   1.954  0.0693  0.3560 -0.6969
   40MOL   H41217650   6.458   7.644   2.217  0.5992  0.3077  0.3269
   40MOL   H41317651   6.629   7.670   2.194 -0.1633  1.6099  0.0909
   40MOL   H41417652   6.648   7.434   2.110 -0.3342  2.0669 -1.6808
   40MOL   H41517653   6.608   7.448   2.283  2.0544  0.7754 -0.7747
   40MOL   H41617654   6.438   7.278   2.190 -0.2911 -0.7805 -0.5747
   40MOL   H41717655   6.363   7.437   2.215 -1.9094 -0.3067 -2.6622
   40MOL   H41817656   6.157   7.421   2.143 -1.3110  0.1166  0.4694
   40MOL   H41917657   6.081   7.406   1.987  0.8989 -0.4673 -1.5270
   40MOL   C42017658   6.061   7.228   2.118 -0.2957  0.3433  1.2140
   40MOL   C42117659   5.910   7.238   2.086  0.7095  0.4520  0.0439
   40MOL   C42217660   5.846   7.364   2.150 -1.0216  0.9480  0.3842
   40MOL   C42317661   5.697   7.383   2.116  0.2981  0.9131  0.2362
   40MOL   C42417662   5.619   7.269   2.169  0.2209  0.1537 -0.1645
   40MOL   C42517663   5.673   7.132   2.118  0.0807  0.6165 -0.0819
   40MOL   C42617664   5.832   7.121   2.149 -0.3587  0.2552 -0.2036
   40MOL   C42717665   6.110   7.198   2.264  0.0993 -0.4340  0.4313
   40MOL   H42817666   6.096   7.147   2.054 -2.1898  3.3302 -3.9113
   40MOL   H42917667   5.898   7.243   1.978  0.2872 -3.0833 -0.1317
   40MOL   H43017668   5.867   7.363   2.257 -1.8484 -0.7584  0.5397
   40MOL   H43117669   5.901   7.456   2.132 -0.0573  0.1977 -0.5117
   40MOL   H43217670   5.668   7.481   2.157  0.6310  0.7385  0.9004
   40MOL   H43317671   5.677   7.391   2.009  0.5233  2.0497  0.2717
   40MOL   H43417672   5.513   7.277   2.142  0.2685 -0.0967 -0.4205
   40MOL   H43517673   5.630   7.259   2.277  1.3599  0.2226 -0.2714
   40MOL   H43617674   5.655   7.105   2.014  0.4228 -1.7520  0.4544
   40MOL   H43717675   5.625   7.047   2.167 -0.6093  1.7760  1.2987
   40MOL   H43817676   5.839   7.131   2.258 -2.1789  0.5463 -0.1030
   40MOL   H43917677   5.875   7.030   2.108  0.2284  1.2853 -1.8979
   40MOL   H44017678   6.081   7.279   2.330 -1.7215 -0.5360 -0.1909
   40MOL   H44117679   6.062   7.107   2.300 -1.7959  0.2054 -0.4055
   40MOL   H44217680   6.216   7.179   2.277  0.1749  0.5035  1.1973
   41MOL     C117681   5.096   3.457   6.384 -0.1689 -0.1006  0.2902
   41MOL     C217682   5.065   3.398   6.241  0.6506 -0.5983 -0.3129
   41MOL     C317683   5.076   3.248   6.238  0.9409 -0.0443  0.3192
   41MOL     C417684   5.221   3.193   6.237  0.2915 -0.3454  0.3531
   41MOL     C517685   5.322   3.262   6.135 -0.0348 -0.2059 -0.0065
   41MOL     C617686   5.304   3.416   6.135 -0.0910  0.0202  0.3585
   41MOL     C717687   5.153   3.454   6.130  0.7079 -0.0268 -0.4815
   41MOL     C817688   5.113   3.608   6.404 -0.3387 -0.4159  0.2187
   41MOL     H917689   5.030   3.412   6.459 -1.0854  1.3466  0.3868
   41MOL    H1017690   4.965   3.430   6.211  0.3024  0.9983  2.3167
   41MOL    H1117691   5.024   3.212   6.326  0.7847 -1.7190 -0.4350
   41MOL    H1217692   5.009   3.216   6.158 -0.1705  0.9649  0.8389
   41MOL    H1317693   5.213   3.087   6.211  0.9901 -0.3425  0.1317
   41MOL    H1417694   5.265   3.181   6.336  1.3844 -2.0367 -0.3175
   41MOL    H1517695   5.297   3.224   6.036  2.4726 -0.8636 -0.4255
   41MOL    H1617696   5.425   3.235   6.160 -0.5908 -0.9152  1.5432
   41MOL    H1717697   5.337   3.450   6.234 -0.2000  1.5486 -0.1179
   41MOL    H1817698   5.369   3.459   6.059 -0.4451  2.7821  1.5604
   41MOL    H1917699   5.116   3.429   6.031  0.5034 -0.2148 -0.3578
   41MOL    H2017700   5.149   3.562   6.137 -0.5685 -0.0870 -0.2076
   41MOL    H2117701   5.208   3.636   6.359  0.0275 -1.8932  0.0372
   41MOL    H2217702   5.133   3.643   6.506  2.2914  4.0840 -1.7156
   41MOL    H2317703   5.197   3.424   6.409 -0.6327  0.2484  2.8126
   41MOL    C2417704   4.999   3.695   6.349 -0.3746 -0.4124 -0.2206
   41MOL    C2517705   4.857   3.658   6.397  0.6445 -0.2426 -0.2220
   41MOL    C2617706   4.748   3.703   6.295  0.2527  0.3190 -0.3734
   41MOL    C2717707   4.605   3.667   6.335 -0.0303  0.2384  0.3783
   41MOL    C2817708   4.576   3.715   6.473 -0.0664  0.9365 -0.7290
   41MOL    C2917709   4.684   3.683   6.577  0.6856 -0.4514 -0.2330
   41MOL    C3017710   4.821   3.723   6.533  0.0312 -0.4123  0.4169
   41MOL    C3117711   5.035   3.850   6.359  0.1572 -0.2137  0.3356
   41MOL    H3217712   5.003   3.676   6.241  2.3787  2.4636 -0.7224
   41MOL    H3317713   4.856   3.549   6.401  0.1263 -0.2883 -1.4286
   41MOL    H3417714   4.773   3.660   6.197  3.0188  0.3372  0.2858
   41MOL    H3517715   4.753   3.811   6.282  0.0266  0.3770  0.0317
   41MOL    H3617716   4.529   3.700   6.265 -1.9251 -1.3357  1.6530
   41MOL    H3717717   4.589   3.560   6.325  0.0523  0.2048  0.6098
   41MOL    H3817718   4.479   3.686   6.513 -0.6009  4.4421  0.7163
   41MOL    H3917719   4.574   3.824   6.470  2.6127  1.1072  1.1548
   41MOL    H4017720   4.664   3.747   6.664  0.1244 -0.1422 -0.5847
   41MOL    H4117721   4.678   3.581   6.616  2.1440 -0.6414 -0.4860
   41MOL    H4217722   4.814   3.831   6.542  1.6941 -0.2627  0.1291
   41MOL    H4317723   4.892   3.692   6.610 -0.8627 -1.8175  0.6917
   41MOL    H4417724   5.065   3.867   6.462  0.0605 -0.6650  0.4417
   41MOL    H4517725   4.945   3.910   6.349 -0.1617 -0.7261  0.0660
   41MOL    C4617726   5.150   3.897   6.266 -0.2613 -0.3175 -0.0492
   41MOL    C4717727   5.290   3.908   6.342  0.2781  0.0071  0.1926
   41MOL    C4817728   5.305   4.041   6.425 -0.1865  0.5457  0.1480
   41MOL    C4917729   5.445   4.051   6.490 -0.7020 -0.0090 -0.5357
   41MOL    C5017730   5.556   4.039   6.390  0.1935 -0.4668  0.4096
   41MOL    C5117731   5.551   3.904   6.310 -0.4632 -1.1289  1.1053
   41MOL    C5217732   5.413   3.905   6.238  0.1156 -0.2605 -0.0499
   41MOL    C5317733   5.113   4.019   6.176  0.2594  0.0330 -0.0874
   41MOL    H5417734   5.170   3.811   6.201  1.3802  2.0686 -2.8150
   41MOL    H5517735   5.309   3.831   6.416  0.3784 -0.7884 -0.6497
   41MOL    H5617736   5.292   4.124   6.356  1.6066 -0.0091 -0.8955
   41MOL    H5717737   5.234   4.039   6.507 -1.5113 -1.7806 -1.0045
   41MOL    H5817738   5.452   3.973   6.566  1.4402  0.4429 -0.2245
   41MOL    H5917739   5.460   4.151   6.531 -1.1101 -0.2162  0.1199
   41MOL    H6017740   5.551   4.128   6.327 -0.9099  0.6817  2.1000
   41MOL    H6117741   5.650   4.059   6.442  1.2551  0.3054 -1.7236
   41MOL    H6217742   5.561   3.824   6.383  0.9212  0.6903  2.9684
   41MOL    H6317743   5.640   3.896   6.248  0.2525 -1.3436  2.1488
   41MOL    H6417744   5.406   3.982   6.162  0.0858 -1.0456 -0.8506
   41MOL    H6517745   5.395   3.814   6.181  3.2212  0.2176 -1.8926
   41MOL    H6617746   5.207   4.067   6.148  0.6928 -1.6690 -1.6164
   41MOL    H6717747   5.051   4.090   6.230 -0.3551 -0.5655 -0.0058
   41MOL    C6817748   5.037   3.970   6.051  1.2612  0.3160 -0.1482
   41MOL    C6917749   4.928   4.078   5.991  0.2547 -0.1513 -0.1338
   41MOL    C7017750   4.798   4.072   6.067 -0.1869  0.2747  0.5538
   41MOL    C7117751   4.699   4.183   6.026 -0.1598 -0.1538  0.2349
   41MOL    C7217752   4.767   4.319   6.007  0.1993 -0.0240  0.3236
   41MOL    C7317753   4.899   4.313   5.918  0.8371  0.0415 -0.5701
   41MOL    C7417754   4.991   4.218   5.988  0.1180 -0.0800 -0.5984
   41MOL    C7517755   5.132   3.924   5.940 -0.0077  0.7756 -0.7875
   41MOL    H7617756   4.974   3.892   6.095  1.8538  1.1182  2.1981
   41MOL    H7717757   4.886   4.046   5.895 -0.4890  1.4872 -0.3689
   41MOL    H7817758   4.811   4.086   6.174  0.9745  1.3690  0.2782
   41MOL    H7917759   4.755   3.972   6.053  1.5813 -0.6524  1.6003
   41MOL    H8017760   4.655   4.147   5.932  0.2961 -0.5341  0.1650
   41MOL    H8117761   4.613   4.186   6.092  0.5915  1.0502  1.1823
   41MOL    H8217762   4.773   4.375   6.100 -2.4545  1.3884 -0.3002
   41MOL    H8317763   4.693   4.386   5.964 -0.3321  0.7772  2.4452
   41MOL    H8417764   4.938   4.414   5.924  2.4701 -0.6584  1.1479
   41MOL    H8517765   4.885   4.294   5.811  1.0713  0.8900 -0.7543
   41MOL    H8617766   5.018   4.254   6.087 -1.2455  0.7088 -0.5035
   41MOL    H8717767   5.088   4.225   5.937  0.6600  0.7060  0.5183
   41MOL    H8817768   5.181   4.010   5.894  1.4685  0.2744 -0.1753
   41MOL    H8917769   5.219   3.872   5.979 -1.7038  0.1074  2.2293
   41MOL    C9017770   5.065   3.852   5.817 -0.6536  0.1278 -0.2758
   41MOL    C9117771   5.177   3.781   5.733  0.1372  0.1893 -0.6009
   41MOL    C9217772   5.269   3.871   5.648 -0.0807  0.4292 -0.1401
   41MOL    C9317773   5.360   3.775   5.561  0.2234 -0.6113  0.4938
   41MOL    C9417774   5.430   3.659   5.630 -0.8097  0.6856 -0.1908
   41MOL    C9517775   5.326   3.580   5.703 -0.3744  0.8536  0.9407
   41MOL    C9617776   5.246   3.665   5.804  0.1863  0.3719  0.2152
   41MOL    C9717777   4.953   3.756   5.871 -0.1495  0.1930  0.7759
   41MOL    H9817778   5.026   3.924   5.745 -2.1456 -0.0067  0.3812
   41MOL    H9917779   5.129   3.727   5.652  2.3089 -0.2569 -1.6281
   41MOL   H10017780   5.334   3.930   5.712  1.1061 -0.4845 -0.5025
   41MOL   H10117781   5.221   3.940   5.578  1.3646 -1.0860 -2.6778
   41MOL   H10217782   5.427   3.836   5.501  1.6238 -1.3155  1.3178
   41MOL   H10317783   5.298   3.729   5.483  0.0709 -0.3158  0.4397
   41MOL   H10417784   5.498   3.711   5.697  0.4916  1.3081 -1.9523
   41MOL   H10517785   5.486   3.601   5.557 -1.6746  0.7919 -0.9526
   41MOL   H10617786   5.270   3.515   5.636  2.3930  3.1440 -3.8221
   41MOL   H10717787   5.384   3.504   5.757  0.2817 -0.5692 -1.6908
   41MOL   H10817788   5.178   3.604   5.863 -2.6331  1.3426 -1.9188
   41MOL   H10917789   5.304   3.703   5.888  0.4190 -1.2205  0.8089
   41MOL   H11017790   4.988   3.704   5.960 -0.5476  0.6700  1.2225
   41MOL   H11117791   4.872   3.812   5.919  0.0515  1.1407  0.0231
   41MOL   C11217792   4.871   3.670   5.768  0.9661  0.0178 -0.3721
   41MOL   C11317793   4.811   3.761   5.653  0.4754 -0.5057 -0.3250
   41MOL   C11417794   4.694   3.852   5.694 -0.4280  0.2287  0.7590
   41MOL   C11517795   4.667   3.952   5.582 -0.5692 -0.2631  0.2209
   41MOL   C11617796   4.626   3.885   5.449 -0.0820  0.0761  0.1468
   41MOL   C11717797   4.729   3.776   5.416 -0.4102 -0.6378  0.3480
   41MOL   C11817798   4.761   3.675   5.532  0.3575 -0.1690 -0.0490
   41MOL   C11917799   4.767   3.591   5.845 -0.6343  0.3393  0.0617
   41MOL   H12017800   4.944   3.598   5.731  0.9134 -0.8210  1.1201
   41MOL   H12117801   4.893   3.821   5.614  0.0644  0.9639  1.0158
   41MOL   H12217802   4.713   3.914   5.782  0.5647 -1.5255  1.8039
   41MOL   H12317803   4.606   3.794   5.719 -1.3549  1.5736  0.6460
   41MOL   H12417804   4.583   4.014   5.613  0.0788  2.7275 -3.5771
   41MOL   H12517805   4.753   4.018   5.569  0.4932 -1.3778  1.4160
   41MOL   H12617806   4.530   3.835   5.459 -0.0104  0.0126  0.5229
   41MOL   H12717807   4.610   3.964   5.376 -0.4449 -0.0674  0.0697
   41MOL   H12817808   4.692   3.723   5.329  2.3274  0.1636 -1.3774
   41MOL   H12917809   4.823   3.821   5.384 -0.8482 -1.1385 -1.7498
   41MOL   H13017810   4.842   3.609   5.503  0.1144 -0.2485 -0.5552
   41MOL   H13117811   4.661   3.639   5.556 -1.2420  4.0583 -0.0040
   41MOL   H13217812   4.678   3.651   5.865 -0.6347  0.3986 -0.1223
   41MOL   H13317813   4.812   3.577   5.944  1.9336  2.0801 -0.7912
   41MOL   C13417814   4.737   3.452   5.784  0.3606  0.3136 -0.3114
   41MOL   C13517815   4.595   3.394   5.814  0.1350  0.0892  0.3908
   41MOL   C13617816   4.487   3.461   5.733  0.0561 -0.1867  0.7436
   41MOL   C13717817   4.343   3.412   5.761 -0.0761  0.4049  0.1376
   41MOL   C13817818   4.312   3.417   5.911 -0.4092  0.3429 -0.3822
   41MOL   C13917819   4.416   3.342   5.999 -0.1306 -0.3289 -0.5571
   41MOL   C14017820   4.558   3.394   5.966  0.3267 -0.4222 -0.1975
   41MOL   C14117821   4.848   3.355   5.830 -0.0338  0.3540 -0.3400
   41MOL   H14217822   4.746   3.468   5.676  0.7033  3.6135  0.1586
   41MOL   H14317823   4.599   3.292   5.778  1.5129  1.0448 -2.2929
   41MOL   H14417824   4.491   3.569   5.752  0.6334 -0.3744  1.6703
   41MOL   H14517825   4.494   3.443   5.626  0.2737  3.3673  0.0910
   41MOL   H14617826   4.316   3.316   5.716 -0.6694  0.8370 -0.4455
   41MOL   H14717827   4.267   3.477   5.718 -1.6041 -1.0048  0.6695
   41MOL   H14817828   4.301   3.522   5.937 -1.0176  0.3440 -0.6202
   41MOL   H14917829   4.217   3.370   5.937  0.8844 -2.1913 -0.0909
   41MOL   H15017830   4.409   3.234   5.982 -0.1492 -0.4292  0.0927
   41MOL   H15117831   4.392   3.382   6.097 -2.5888 -2.6192 -0.1721
   41MOL   H15217832   4.568   3.498   5.998 -1.5520  0.6864 -2.9820
   41MOL   H15317833   4.627   3.334   6.025 -0.6851 -0.1786  1.2566
   41MOL   H15417834   4.820   3.299   5.919  1.3980 -1.8903 -1.2824
   41MOL   H15517835   4.939   3.407   5.861  0.8212 -1.1146 -0.3573
   41MOL   C15617836   4.888   3.253   5.711  0.0079 -0.0499  0.0454
   41MOL   C15717837   4.960   3.121   5.760  0.5112  0.4603  0.1593
   41MOL   C15817838   5.092   3.139   5.830  0.5068 -0.0163 -0.8881
   41MOL   C15917839   5.147   3.008   5.899 -0.6635  0.4554  0.3122
   41MOL   C16017840   5.038   2.934   5.984  0.1149 -0.1543 -0.4735
   41MOL   C16117841   4.923   2.901   5.893  0.0724  0.0847  0.5411
   41MOL   C16217842   4.860   3.036   5.850 -0.0107  0.7005  0.4230
   41MOL   C16317843   4.981   3.326   5.606 -0.3069  0.4009  0.3206
   41MOL   H16417844   4.799   3.234   5.653 -0.2800 -0.6680  0.6748
   41MOL   H16517845   4.975   3.068   5.667 -0.8143  1.6131 -0.7332
   41MOL   H16617846   5.170   3.168   5.760  0.5510 -2.3382 -1.8489
   41MOL   H16717847   5.090   3.207   5.916  1.6436  0.7926 -1.4770
   41MOL   H16817848   5.181   2.953   5.811 -0.9389 -0.0511  0.5149
   41MOL   H16917849   5.239   3.031   5.952  0.7381  0.8903 -2.2554
   41MOL   H17017850   5.017   2.992   6.074  1.6463  0.0688 -0.2434
   41MOL   H17117851   5.071   2.836   6.019  1.0333  0.7373  1.2236
   41MOL   H17217852   4.851   2.850   5.958  0.7194 -0.3687  0.9056
   41MOL   H17317853   4.951   2.837   5.810 -1.7253 -0.5368  0.4000
   41MOL   H17417854   4.761   3.026   5.804 -0.6400 -1.7535  2.2132
   41MOL   H17517855   4.828   3.100   5.932 -1.5845  0.5051 -0.0213
   41MOL   H17617856   5.076   3.345   5.656  0.0434 -1.0074  0.2130
   41MOL   H17717857   4.942   3.427   5.595 -0.9643 -0.1231 -2.4098
   41MOL   C17817858   5.019   3.251   5.477 -0.4572 -1.0207  0.1155
   41MOL   C17917859   4.889   3.198   5.401  0.1835  0.0726  0.5569
   41MOL   C18017860   4.940   3.111   5.284 -0.4064  0.0015  0.6638
   41MOL   C18117861   4.821   3.054   5.203 -0.7942 -0.6832  0.0195
   41MOL   C18217862   4.728   3.169   5.154  0.5904  0.9435 -0.3519
   41MOL   C18317863   4.669   3.243   5.268  0.5066 -0.5825  0.2562
   41MOL   C18417864   4.787   3.301   5.358 -0.3233 -0.5990  0.0411
   41MOL   C18517865   5.123   3.335   5.402  0.2553  0.2314  0.4763
   41MOL   H18617866   5.065   3.158   5.508 -0.3062 -1.7796 -2.2528
   41MOL   H18717867   4.841   3.134   5.476  0.4818  1.0990  1.6258
   41MOL   H18817868   4.996   3.174   5.214  0.1256 -0.0723  1.0230
   41MOL   H18917869   5.012   3.036   5.313 -1.1579 -0.8109  0.4477
   41MOL   H19017870   4.765   2.992   5.274  0.8404  0.0183  1.9597
   41MOL   H19117871   4.856   3.002   5.114  1.0771  2.6432 -1.2644
   41MOL   H19217872   4.779   3.248   5.099  3.1620  0.9597  1.9360
   41MOL   H19317873   4.641   3.121   5.109  0.2640  0.3858  0.8522
   41MOL   H19417874   4.599   3.180   5.323 -1.5540  1.4974  0.0579
   41MOL   H19517875   4.611   3.319   5.216  2.0588 -0.3193 -1.1504
   41MOL   H19617876   4.839   3.374   5.296 -2.2559 -0.1724 -1.1296
   41MOL   H19717877   4.750   3.356   5.444 -0.4670 -1.1015  0.3027
   41MOL   H19817878   5.071   3.414   5.348 -1.8720 -1.7979 -0.4998
   41MOL   H19917879   5.175   3.385   5.484  0.3029  0.8621  0.0672
   41MOL   C20017880   5.236   3.251   5.335  0.1395  0.0594 -0.0812
   41MOL   C20117881   5.281   3.324   5.207 -0.4558 -0.4351 -0.3198
   41MOL   C20217882   5.347   3.460   5.226 -0.3105  0.3808  0.8652
   41MOL   C20317883   5.359   3.540   5.098 -0.4060  0.6683 -0.1299
   41MOL   C20417884   5.433   3.459   4.983  0.7152 -0.0782 -0.1472
   41MOL   C20517885   5.367   3.321   4.972  0.2456  0.0616 -0.2302
   41MOL   C20617886   5.363   3.249   5.105 -0.1865 -1.2352 -0.0706
   41MOL   C20717887   5.354   3.220   5.428  0.0758  0.4223  0.1529
   41MOL   H20817888   5.197   3.156   5.301  0.4774  0.2488 -1.0040
   41MOL   H20917889   5.195   3.349   5.146 -1.1109  1.0316  1.1588
   41MOL   H21017890   5.445   3.459   5.274 -0.4362 -0.9884  1.0960
   41MOL   H21117891   5.279   3.510   5.295 -1.5956  1.0727 -0.8756
   41MOL   H21217892   5.255   3.558   5.067  0.1745  0.7792 -2.1008
   41MOL   H21317893   5.402   3.638   5.117 -0.2195  0.5151  0.2362
   41MOL   H21417894   5.429   3.519   4.892 -2.6391  0.7852  0.5021
   41MOL   H21517895   5.540   3.454   5.002  0.8177  1.8018 -0.0842
   41MOL   H21617896   5.265   3.328   4.934  0.9020  1.3106 -1.8720
   41MOL   H21717897   5.422   3.269   4.893 -1.6953 -1.0622 -0.8675
   41MOL   H21817898   5.307   3.156   5.093 -1.7561 -0.4290  0.9852
   41MOL   H21917899   5.455   3.215   5.153 -0.9551 -2.2455  0.7203
   41MOL   H22017900   5.433   3.295   5.425 -0.6709  1.2602  1.1521
   41MOL   H22117901   5.320   3.218   5.532 -0.7152 -0.4192 -0.1107
   41MOL   C22217902   5.420   3.080   5.408 -0.0258 -0.0866  0.4365
   41MOL   C22317903   5.569   3.073   5.438 -0.4418 -0.7343 -0.9414
   41MOL   C22417904   5.613   3.145   5.569 -1.0318 -0.2058 -0.2493
   41MOL   C22517905   5.769   3.126   5.596 -0.1107  0.3703 -0.5483
   41MOL   C22617906   5.851   3.176   5.470  0.0454  0.8605 -0.8533
   41MOL   C22717907   5.804   3.107   5.342 -0.6456  0.2454  0.2529
   41MOL   C22817908   5.650   3.126   5.320 -0.9349  0.0389 -0.4426
   41MOL   C22917909   5.330   2.975   5.473  1.0469  0.1914 -0.0202
   41MOL   H23017910   5.414   3.040   5.307 -2.0002 -1.4558  1.0786
   41MOL   H23117911   5.599   2.968   5.440  1.4038 -0.2000  0.7559
   41MOL   H23217912   5.597   3.251   5.548  0.3249  0.0318 -0.0989
   41MOL   H23317913   5.556   3.114   5.657 -0.4350  0.4199  0.3682
   41MOL   H23417914   5.772   3.022   5.628  1.7807  1.5065  3.2487
   41MOL   H23517915   5.790   3.181   5.687 -1.4463 -1.0605  0.6534
   41MOL   H23617916   5.852   3.285   5.469  0.1119  0.8993  0.8684
   41MOL   H23717917   5.952   3.142   5.495 -0.5642 -0.6150 -0.3590
   41MOL   H23817918   5.837   3.003   5.336  0.5348  0.5380  1.6244
   41MOL   H23917919   5.864   3.154   5.264 -0.4413 -0.4620 -0.0186
   41MOL   H24017920   5.628   3.233   5.312  2.4773  0.9816  1.5049
   41MOL   H24117921   5.619   3.078   5.228  0.9556 -2.1502  0.0176
   41MOL   H24217922   5.226   2.983   5.441  0.0594  0.5347  3.1238
   41MOL   H24317923   5.312   2.996   5.578  0.8047 -2.4249  0.4908
   41MOL   C24417924   5.368   2.827   5.461 -0.5323 -0.6371 -0.1614
   41MOL   C24517925   5.319   2.755   5.331 -0.8962  0.0381 -0.0355
   41MOL   C24617926   5.422   2.772   5.213  0.2516  0.2433 -0.2739
   41MOL   C24717927   5.388   2.675   5.105 -0.8057 -0.6616  0.2423
   41MOL   C24817928   5.240   2.694   5.059 -0.4211 -0.3586  0.0775
   41MOL   C24917929   5.135   2.693   5.171 -0.6098  0.0063 -0.5445
   41MOL   C25017930   5.181   2.794   5.277 -0.2900  0.0730 -0.2963
   41MOL   C25117931   5.315   2.743   5.580 -0.4487  0.3900 -0.2592
   41MOL   H25217932   5.476   2.824   5.476 -0.8827  0.0673  2.8233
   41MOL   H25317933   5.314   2.647   5.345 -0.9843  0.1801  1.0779
   41MOL   H25417934   5.526   2.756   5.242 -0.0699  1.5008  1.7022
   41MOL   H25517935   5.417   2.868   5.162  0.8272 -0.1278 -1.0431
   41MOL   H25617936   5.458   2.693   5.023 -1.3203  2.9178  0.5107
   41MOL   H25717937   5.412   2.575   5.141  1.9857  0.3532  1.2616
   41MOL   H25817938   5.220   2.785   5.002  1.3274 -0.6207 -0.9761
   41MOL   H25917939   5.214   2.617   4.988  0.4534 -1.6107  1.0888
   41MOL   H26017940   5.137   2.593   5.213  0.6525  0.4376  0.4492
   41MOL   H26117941   5.032   2.714   5.141 -0.3867 -3.0881 -3.7862
   41MOL   H26217942   5.181   2.890   5.225 -0.1889  0.5013  0.4783
   41MOL   H26317943   5.107   2.792   5.357 -0.4719  1.7716 -0.4039
   41MOL   H26417944   5.210   2.718   5.562 -0.3579  0.1624 -0.4609
   41MOL   H26517945   5.317   2.807   5.668  1.6454  0.9708 -0.7150
   41MOL   C26617946   5.386   2.620   5.622  0.0027  0.6860 -0.0082
   41MOL   C26717947   5.482   2.641   5.742  0.5178  0.1705  0.4967
   41MOL   C26817948   5.411   2.653   5.879 -0.2275  0.2530  0.0416
   41MOL   C26917949   5.509   2.644   5.993  0.4538 -0.2750  0.1554
   41MOL   C27017950   5.627   2.749   5.984 -0.0124 -0.6526 -0.4915
   41MOL   C27117951   5.694   2.747   5.843  0.4395  0.6327 -0.3766
   41MOL   C27217952   5.594   2.751   5.728  0.0233 -0.2851 -0.1458
   41MOL   C27317953   5.284   2.507   5.634  0.1465  0.3683  0.1181
   41MOL   H27417954   5.451   2.593   5.540  1.1040 -1.0493  1.3866
   41MOL   H27517955   5.544   2.552   5.747  1.2023  0.6382  0.4070
   41MOL   H27617956   5.360   2.750   5.879  0.8515  0.8395 -0.9442
   41MOL   H27717957   5.339   2.573   5.896 -0.7191  1.0261  1.7121
   41MOL   H27817958   5.548   2.542   5.990 -0.2408 -0.5772  1.0625
   41MOL   H27917959   5.452   2.673   6.081  0.8613  1.7077 -0.2082
   41MOL   H28017960   5.583   2.847   6.000  0.1672 -0.8176  1.0456
   41MOL   H28117961   5.707   2.741   6.058 -0.0652 -0.0759 -0.3689
   41MOL   H28217962   5.766   2.666   5.834  1.5663  1.1113  3.4857
   41MOL   H28317963   5.751   2.838   5.830 -1.9276  2.2271  0.1042
   41MOL   H28417964   5.658   2.739   5.640 -0.1541  0.3569 -0.3712
   41MOL   H28517965   5.555   2.852   5.714  1.3059 -0.0053 -1.9359
   41MOL   H28617966   5.223   2.503   5.544 -0.1941  1.2830  0.3047
   41MOL   H28717967   5.207   2.524   5.709  0.9354  1.5117  0.6900
   41MOL   C28817968   5.344   2.370   5.654 -0.3655  0.0687  0.0213
   41MOL   C28917969   5.418   2.313   5.526 -0.8195  0.0446  0.3750
   41MOL   C29017970   5.506   2.200   5.564  0.0119  0.3927 -0.4985
   41MOL   C29117971   5.585   2.148   5.449 -0.1791 -0.1572  0.1464
   41MOL   C29217972   5.501   2.123   5.321 -0.1268 -0.4216  0.0410
   41MOL   C29317973   5.412   2.240   5.281  0.2895 -0.7040  0.2465
   41MOL   C29417974   5.329   2.280   5.406  1.0010 -0.8278  0.5414
   41MOL   C29517975   5.234   2.275   5.708  0.6917 -0.0254 -0.9934
   41MOL   H29617976   5.424   2.383   5.728  0.2444 -0.7234 -0.4866
   41MOL   H29717977   5.487   2.394   5.500  1.3346 -1.9864 -0.3877
   41MOL   H29817978   5.572   2.210   5.650  1.3993 -0.9673 -1.3656
   41MOL   H29917979   5.441   2.116   5.591  1.4345 -0.7184 -0.4425
   41MOL   H30017980   5.652   2.232   5.430 -1.4051  0.4728 -1.4849
   41MOL   H30117981   5.639   2.056   5.470 -1.3134 -0.5857  1.2101
   41MOL   H30217982   5.446   2.034   5.354  0.7059 -1.6678 -1.8723
   41MOL   H30317983   5.561   2.082   5.240  1.8657 -0.3574  1.4408
   41MOL   H30417984   5.357   2.216   5.189 -0.3950 -0.3056  0.5465
   41MOL   H30517985   5.484   2.318   5.260 -0.1808 -0.9238 -2.4382
   41MOL   H30617986   5.266   2.198   5.443  1.3015 -1.4181 -0.2314
   41MOL   H30717987   5.269   2.368   5.386  0.7440 -0.9713  0.6730
   41MOL   H30817988   5.139   2.308   5.667  1.2591  0.0636 -2.2680
   41MOL   H30917989   5.243   2.171   5.675 -1.9494 -0.6122  0.0490
   41MOL   C31017990   5.216   2.270   5.861 -0.0798 -0.0483  0.3213
   41MOL   C31117991   5.069   2.239   5.907 -0.2256 -0.4391 -0.2793
   41MOL   C31217992   4.972   2.359   5.902  0.4950 -0.9062 -0.3730
   41MOL   C31317993   4.843   2.325   5.978  0.1203 -1.1436  0.2837
   41MOL   C31417994   4.777   2.191   5.927 -0.0947  0.1243  0.5535
   41MOL   C31517995   4.878   2.081   5.914  0.5188 -0.3615 -0.0746
   41MOL   C31617996   5.001   2.120   5.836 -0.2588  0.4555  0.2668
   41MOL   C31717997   5.320   2.170   5.919  0.4021 -0.0029  0.1934
   41MOL   H31817998   5.242   2.372   5.890 -1.4681  0.3038  0.3289
   41MOL   H31917999   5.073   2.218   6.013 -1.7453 -0.2015 -0.1623
   41MOL   H32018000   5.022   2.447   5.942 -1.6827  1.0052 -1.6870
   41MOL   H32118001   4.937   2.383   5.802 -2.9700  1.9373  1.3939
   41MOL   H32218002   4.777   2.409   5.962 -0.7425 -2.1215 -1.4149
   41MOL   H32318003   4.850   2.330   6.087  0.9697 -0.0441  0.1938
   41MOL   H32418004   4.701   2.159   5.999 -0.9459  0.3862 -0.2192
   41MOL   H32518005   4.734   2.214   5.829  2.6857 -1.4700 -1.0900
   41MOL   H32618006   4.909   2.038   6.009  0.6085 -0.0364  0.0460
   41MOL   H32718007   4.833   1.993   5.869  0.8180 -0.6508  0.1910
   41MOL   H32818008   4.976   2.156   5.736 -0.7509 -0.0345  0.2109
   41MOL   H32918009   5.075   2.041   5.823 -0.6761 -0.2470  2.0119
   41MOL   H33018010   5.402   2.157   5.848  0.0894 -0.3884 -0.0978
   41MOL   H33118011   5.274   2.074   5.943  0.2243 -0.4135 -1.7269
   41MOL   C33218012   5.402   2.220   6.040  0.6501 -0.1635 -0.0350
   41MOL   C33318013   5.488   2.096   6.088 -0.0471  0.6064  0.5118
   41MOL   C33418014   5.589   2.043   5.975  0.3740  0.2041  0.4811
   41MOL   C33518015   5.682   1.937   6.027 -0.3822  0.4700  0.3690
   41MOL   C33618016   5.623   1.823   6.111  0.1929  0.2369 -0.1315
   41MOL   C33718017   5.527   1.878   6.215  0.1243 -0.1668 -0.0051
   41MOL   C33818018   5.419   1.974   6.149 -0.1457 -0.1572 -1.0971
   41MOL   C33918019   5.309   2.265   6.156  0.0118  0.3939 -0.3720
   41MOL   H34018020   5.467   2.299   6.003  0.3786  0.6154  1.1131
   41MOL   H34118021   5.555   2.143   6.160  0.3763  0.0665  0.4746
   41MOL   H34218022   5.532   1.989   5.900  1.4693 -0.2307 -0.0480
   41MOL   H34318023   5.642   2.116   5.915 -1.3160 -0.3127 -1.7071
   41MOL   H34418024   5.745   1.899   5.947  1.6723  1.1927  1.5923
   41MOL   H34518025   5.747   1.999   6.089 -0.8272 -0.6766  2.0108
   41MOL   H34618026   5.563   1.751   6.055 -0.0115 -1.5659  2.3231
   41MOL   H34718027   5.699   1.764   6.162 -1.6054 -1.0671  1.1464
   41MOL   H34818028   5.593   1.939   6.277  2.1656 -0.7453 -1.5407
   41MOL   H34918029   5.487   1.797   6.276 -0.4490  2.2763  2.9739
   41MOL   H35018030   5.336   1.998   6.215  2.1058  0.4876  1.6096
   41MOL   H35118031   5.378   1.923   6.063 -0.5672 -2.3458  0.3700
   41MOL   H35218032   5.238   2.183   6.170  1.2063 -1.1875 -3.0728
   41MOL   H35318033   5.256   2.343   6.101 -1.9049 -1.4644 -1.2625
   41MOL   C35418034   5.378   2.297   6.301  0.1167 -0.9754 -0.0201
   41MOL   C35518035   5.279   2.340   6.412  0.2125 -0.0555 -0.3946
   41MOL   C35618036   5.198   2.217   6.468  0.3013 -0.5187 -0.4921
   41MOL   C35718037   5.092   2.245   6.574 -0.3877 -0.1373  0.3275
   41MOL   C35818038   5.008   2.362   6.529  0.3426  0.8722 -0.6112
   41MOL   C35918039   5.086   2.489   6.475  0.5638  0.5061  0.3434
   41MOL   C36018040   5.177   2.446   6.362 -0.1384  0.0414  0.1107
   41MOL   C36118041   5.504   2.394   6.288  1.2423 -0.1370 -0.1911
   41MOL   H36218042   5.427   2.214   6.351 -1.9690 -1.5786  1.1054
   41MOL   H36318043   5.345   2.369   6.494  1.0490 -1.1755 -0.6482
   41MOL   H36418044   5.268   2.152   6.520 -1.8323 -0.6776  2.2993
   41MOL   H36518045   5.154   2.152   6.393  1.4823 -2.1455  0.2100
   41MOL   H36618046   5.035   2.153   6.587  0.7206 -0.4805  3.0203
   41MOL   H36718047   5.141   2.260   6.670  0.0940  2.7655 -0.3290
   41MOL   H36818048   4.952   2.334   6.439  2.2538 -0.2254 -1.5003
   41MOL   H36918049   4.952   2.402   6.613  0.9250 -1.0745  0.7311
   41MOL   H37018050   5.027   2.573   6.439  1.9271  1.4414  0.2644
   41MOL   H37118051   5.143   2.521   6.562 -0.2612 -0.5856  1.3041
   41MOL   H37218052   5.221   2.533   6.315 -1.5990  0.2094 -0.9644
   41MOL   H37318053   5.121   2.397   6.282  0.7339 -1.4228  0.3696
   41MOL   H37418054   5.466   2.496   6.286 -0.9149 -0.9254 -0.7901
   41MOL   H37518055   5.551   2.369   6.193  0.3646  1.9676 -1.1955
   41MOL   C37618056   5.609   2.390   6.401  0.2517 -0.0015  0.3334
   41MOL   C37718057   5.723   2.285   6.371  0.2453  0.0839  0.1416
   41MOL   C37818058   5.807   2.228   6.486 -0.4394 -0.4066  0.0915
   41MOL   C37918059   5.898   2.110   6.441 -0.2021  0.0355 -0.3685
   41MOL   C38018060   5.998   2.167   6.350  0.3147 -0.3580  0.9000
   41MOL   C38118061   5.932   2.224   6.220  0.0457 -0.3117  0.2294
   41MOL   C38218062   5.822   2.335   6.257  0.6028  0.2565 -0.0137
   41MOL   C38318063   5.663   2.526   6.454 -0.3544 -0.2903 -0.3894
   41MOL   H38418064   5.555   2.347   6.485 -1.1966  0.4865 -0.3391
   41MOL   H38518065   5.667   2.198   6.340 -0.8847  0.4939  0.9853
   41MOL   H38618066   5.861   2.313   6.527  0.5516 -1.2266  0.5183
   41MOL   H38718067   5.744   2.189   6.566 -1.6385  1.6450  0.1813
   41MOL   H38818068   5.846   2.028   6.393 -1.0760  0.3222  0.0737
   41MOL   H38918069   5.950   2.071   6.528  0.2095  1.2510 -0.0507
   41MOL   H39018070   6.056   2.235   6.412 -0.5887  0.3341  1.0122
   41MOL   H39118071   6.063   2.082   6.329  1.5042  1.2465 -2.2980
   41MOL   H39218072   6.000   2.261   6.143 -2.4715  2.5758 -0.7340
   41MOL   H39318073   5.883   2.134   6.184  0.1352  0.0205 -0.7447
   41MOL   H39418074   5.869   2.423   6.301  1.2971  0.9223 -2.0197
   41MOL   H39518075   5.774   2.372   6.166  1.5076 -0.0650 -0.6404
   41MOL   H39618076   5.668   2.582   6.360 -0.0981 -1.6282 -1.1850
   41MOL   H39718077   5.764   2.517   6.496  0.3040  0.3904 -1.7879
   41MOL   C39818078   5.565   2.595   6.559 -0.3035  0.1722 -0.2590
   41MOL   C39918079   5.546   2.519   6.698 -0.0328 -0.4761  0.0952
   41MOL   C40018080   5.665   2.505   6.798  0.4390  0.0122  0.0304
   41MOL   C40118081   5.638   2.391   6.898 -0.0725  0.3291 -0.1053
   41MOL   C40218082   5.516   2.426   6.983 -0.0505 -0.5316 -0.0247
   41MOL   C40318083   5.399   2.468   6.892 -0.4408  0.7959  0.0760
   41MOL   C40418084   5.426   2.566   6.781  0.5226  0.2486  0.4820
   41MOL   C40518085   5.625   2.734   6.582  0.2399 -0.1345  0.0630
   41MOL   H40618086   5.469   2.616   6.513 -2.6579 -3.5309  2.6929
   41MOL   H40718087   5.521   2.420   6.660 -1.8948  0.7409 -1.9593
   41MOL   H40818088   5.686   2.604   6.838  0.6943 -0.1620  0.3224
   41MOL   H40918089   5.752   2.488   6.734  0.4823 -0.4232  0.2078
   41MOL   H41018090   5.721   2.370   6.965 -0.8618  1.6422  1.3155
   41MOL   H41118091   5.635   2.303   6.834 -1.2740 -0.1676  0.6274
   41MOL   H41218092   5.543   2.511   7.045 -0.1218  0.5730 -1.4730
   41MOL   H41318093   5.486   2.345   7.049 -1.0126 -0.4118 -0.3029
   41MOL   H41418094   5.361   2.370   6.866 -0.6358  0.7348  0.5888
   41MOL   H41518095   5.314   2.512   6.945 -1.2319 -0.0153 -0.5058
   41MOL   H41618096   5.346   2.566   6.707  1.6389  0.5431 -0.7701
   41MOL   H41718097   5.438   2.665   6.826  1.1593  0.1656  0.5079
   41MOL   H41818098   5.603   2.776   6.680 -1.3295 -0.9169  0.0722
   41MOL   H41918099   5.733   2.723   6.578  0.2012 -0.1824 -1.2260
   41MOL   C42018100   5.590   2.839   6.471 -0.1078  0.5328  0.2375
   41MOL   C42118101   5.707   2.937   6.435  0.4647  0.1654 -0.1878
   41MOL   C42218102   5.773   3.003   6.557  0.6422 -0.0888 -1.0298
   41MOL   C42318103   5.888   3.098   6.529 -0.1544  0.1483 -0.0765
   41MOL   C42418104   5.835   3.197   6.423 -0.1213 -0.3536  0.3392
   41MOL   C42518105   5.792   3.120   6.296  0.1713  0.1085 -0.4032
   41MOL   C42618106   5.677   3.033   6.318 -0.5177 -0.6378 -0.0092
   41MOL   C42718107   5.449   2.904   6.487  0.0231 -0.2216 -0.4899
   41MOL   H42818108   5.581   2.776   6.383  2.0613  1.1734 -0.4862
   41MOL   H42918109   5.793   2.883   6.398 -0.9598 -1.5053 -1.1545
   41MOL   H43018110   5.692   3.060   6.602  3.0988  2.1094  0.7688
   41MOL   H43118111   5.802   2.926   6.628 -0.7285  0.2346 -0.0983
   41MOL   H43218112   5.926   3.148   6.618  1.8756 -1.4091 -0.0228
   41MOL   H43318113   5.967   3.041   6.480 -1.4390 -0.1626 -1.8462
   41MOL   H43418114   5.925   3.253   6.396  0.5438 -0.2283  2.6977
   41MOL   H43518115   5.762   3.270   6.454  0.9635  1.1284 -0.5143
   41MOL   H43618116   5.871   3.054   6.260  0.0585 -1.3310  1.8556
   41MOL   H43718117   5.769   3.187   6.214  3.2317  1.1379 -0.5120
   41MOL   H43818118   5.598   3.108   6.329 -1.7856 -1.3090 -3.8397
   41MOL   H43918119   5.671   2.973   6.228 -0.9818 -0.5133 -0.0626
   41MOL   H44018120   5.376   2.824   6.503  2.3953 -2.3265  0.0975
   41MOL   H44118121   5.437   2.995   6.545 -1.0834 -0.4295 -0.3823
   41MOL   H44218122   5.434   2.931   6.382 -0.0848  0.9674 -0.1768
   42MOL     C118123   0.264   4.091   3.526 -0.1752  0.4328  0.3174
   42MOL     C218124   0.237   4.132   3.673  0.1683 -0.1360  0.0123
   42MOL     C318125   0.363   4.200   3.736  0.3661 -0.2656 -0.0164
   42MOL     C418126   0.342   4.198   3.887 -0.0391 -0.4969 -0.8926
   42MOL     C518127   0.315   4.065   3.952  0.6184 -0.1434  0.5973
   42MOL     C618128   0.179   4.013   3.900  0.0007 -0.4868 -0.4548
   42MOL     C718129   0.181   4.007   3.746  0.6630  0.1314 -0.1270
   42MOL     C818130   0.281   4.208   3.430 -0.1158 -0.0789 -0.0991
   42MOL     H918131   0.342   4.015   3.523 -0.9652 -0.3541 -0.8793
   42MOL    H1018132   0.156   4.206   3.678  0.3169  0.0231  0.0715
   42MOL    H1118133   0.462   4.153   3.731 -0.0237 -1.1584  0.4856
   42MOL    H1218134   0.373   4.300   3.694  1.2479 -0.5373 -0.4682
   42MOL    H1318135   0.264   4.268   3.917 -0.1389 -0.8137 -0.3936
   42MOL    H1418136   0.418   4.236   3.955 -1.2261  0.0604  0.1582
   42MOL    H1518137   0.315   4.076   4.061 -2.9082  1.9957  0.4530
   42MOL    H1618138   0.400   3.999   3.936 -0.2417 -1.5089  1.5720
   42MOL    H1718139   0.151   3.919   3.948 -1.5645 -1.3519 -2.9600
   42MOL    H1818140   0.112   4.090   3.938  1.7944  0.5800  0.6106
   42MOL    H1918141   0.080   3.986   3.712 -1.2022  1.4835  4.1560
   42MOL    H2018142   0.246   3.923   3.725 -0.3390 -0.2104 -1.9331
   42MOL    H2118143   0.319   4.178   3.333  2.0052  0.2726  0.5904
   42MOL    H2218144   0.355   4.277   3.471  0.0183 -0.9398  1.1500
   42MOL    H2318145   0.179   4.034   3.488 -0.8630  1.8942 -0.3699
   42MOL    C2418146   0.157   4.288   3.407 -0.1798 -0.4515 -0.1067
   42MOL    C2518147   0.187   4.424   3.338 -0.3144  0.0453  0.0482
   42MOL    C2618148   0.267   4.420   3.198 -0.2350  0.2022 -0.7460
   42MOL    C2718149   0.283   4.561   3.140 -0.0850  0.5118 -0.6341
   42MOL    C2818150   0.361   4.653   3.234  0.2078 -0.5383  0.3934
   42MOL    C2918151   0.281   4.663   3.366 -0.0023  0.0160 -0.2898
   42MOL    C3018152   0.267   4.528   3.432 -0.3667 -0.2020 -0.2640
   42MOL    C3118153   0.057   4.217   3.315 -0.3480  0.0350 -1.1474
   42MOL    H3218154   0.114   4.318   3.502 -0.0528 -0.1081 -0.1583
   42MOL    H3318155   0.094   4.479   3.330  0.7363  2.1883  1.9615
   42MOL    H3418156   0.214   4.358   3.126 -2.0007 -1.5260  1.9132
   42MOL    H3518157   0.367   4.376   3.198 -0.2140  0.2322  0.3984
   42MOL    H3618158   0.322   4.565   3.039  0.6146  0.5502 -0.3650
   42MOL    H3718159   0.184   4.604   3.127  0.0521  1.1321  0.3010
   42MOL    H3818160   0.361   4.749   3.181 -0.7102 -1.0934 -0.6227
   42MOL    H3918161   0.463   4.623   3.258  0.7460  0.1174 -0.9896
   42MOL    H4018162   0.331   4.731   3.435  0.6949  0.5802 -1.3337
   42MOL    H4118163   0.180   4.696   3.344  0.0077  1.0616  1.1585
   42MOL    H4218164   0.367   4.485   3.443 -0.3728 -0.3533 -0.7899
   42MOL    H4318165   0.219   4.541   3.529  0.8014  1.9384  0.0656
   42MOL    H4418166   0.112   4.127   3.285 -1.3987 -0.8361 -0.5014
   42MOL    H4518167   0.047   4.275   3.223  1.2953 -0.7174 -1.8361
   42MOL    C4618168   7.696   4.187   3.387  0.1558 -0.1100 -1.0872
   42MOL    C4718169   7.617   4.069   3.314  0.3798 -0.1811  1.0123
   42MOL    C4818170   7.689   3.932   3.329  0.6471 -0.0965 -0.6213
   42MOL    C4918171   7.591   3.822   3.277 -0.4479  1.6363  0.2731
   42MOL    C5018172   7.556   3.852   3.129  0.9629 -0.6807  0.6386
   42MOL    C5118173   7.504   3.996   3.099 -0.4752 -0.1981 -0.3091
   42MOL    C5218174   7.582   4.104   3.168 -0.1633 -1.0544  0.8495
   42MOL    C5318175   7.617   4.329   3.385  0.1245  0.7791  0.1423
   42MOL    H5418176   7.719   4.154   3.488 -4.4496 -0.7488 -0.1481
   42MOL    H5518177   7.524   4.054   3.369  0.1086  2.0724  1.2184
   42MOL    H5618178   0.013   3.928   3.279  0.4362  1.7709 -1.2076
   42MOL    H5718179   7.724   3.917   3.431  1.5582  0.1380 -0.8988
   42MOL    H5818180   7.498   3.815   3.334 -0.4446 -0.4715  0.0640
   42MOL    H5918181   7.636   3.723   3.286 -1.8378  0.7464 -2.0372
   42MOL    H6018182   7.648   3.838   3.071 -2.0266 -0.1420 -4.5357
   42MOL    H6118183   7.486   3.774   3.100  0.1594  0.3650 -0.2580
   42MOL    H6218184   7.408   3.984   3.148  0.3435 -1.7374  0.9804
   42MOL    H6318185   7.492   4.008   2.991 -2.4141 -0.2217 -0.0959
   42MOL    H6418186   7.671   4.128   3.110 -0.9612 -1.7647 -0.6677
   42MOL    H6518187   7.519   4.193   3.170 -0.5363 -1.3272  3.5422
   42MOL    H6618188   7.600   4.355   3.280  1.4847  1.0819 -0.0014
   42MOL    H6718189   7.674   4.412   3.424 -1.1171  0.1728  3.4005
   42MOL    C6818190   7.484   4.327   3.469 -0.7879  0.4012  0.5423
   42MOL    C6918191   7.507   4.293   3.617  0.2260 -0.3742  0.2237
   42MOL    C7018192   7.601   4.376   3.706  0.1236  0.3401 -0.4872
   42MOL    C7118193   7.633   4.305   3.839  0.8636 -0.4885 -0.1506
   42MOL    C7218194   7.506   4.283   3.922 -0.1953 -0.1994  0.7999
   42MOL    C7318195   7.405   4.204   3.829 -0.0858  0.1535 -0.6453
   42MOL    C7418196   7.379   4.276   3.698  0.4838 -0.8400 -1.2759
   42MOL    C7518197   7.413   4.463   3.457 -0.6587 -0.1293  0.2906
   42MOL    H7618198   7.425   4.246   3.425 -1.6208  1.2122  0.1508
   42MOL    H7718199   7.556   4.195   3.610  1.9912  0.5137 -0.1633
   42MOL    H7818200   7.561   4.474   3.734 -1.4292 -0.2314 -0.6198
   42MOL    H7918201   7.690   4.379   3.645  0.1052  2.5187 -0.4618
   42MOL    H8018202   7.677   4.207   3.819  1.0699 -0.5923  0.7959
   42MOL    H8118203   7.699   4.374   3.891 -0.8216  0.6735  0.4775
   42MOL    H8218204   7.451   4.374   3.946  0.1204 -0.0467  0.9464
   42MOL    H8318205   7.530   4.235   4.018 -2.7530  1.5496  2.3711
   42MOL    H8418206   7.308   4.202   3.879 -0.5578 -1.1705 -1.6114
   42MOL    H8518207   7.440   4.106   3.799  3.1660  1.0596 -0.0279
   42MOL    H8618208   7.330   4.370   3.724 -1.1869 -1.8187 -0.7992
   42MOL    H8718209   7.312   4.208   3.645 -1.1230 -0.8951  0.7537
   42MOL    H8818210   7.443   4.522   3.544 -0.8831 -0.2976  0.4831
   42MOL    H8918211   7.442   4.507   3.362 -1.0875  0.1433  0.2846
   42MOL    C9018212   7.258   4.460   3.449  0.0247 -0.4836 -0.2510
   42MOL    C9118213   7.186   4.586   3.486 -0.0147  0.2438  0.3689
   42MOL    C9218214   7.187   4.610   3.638  0.1695 -0.3202  0.0367
   42MOL    C9318215   7.102   4.729   3.687  0.4316 -0.6978 -0.2172
   42MOL    C9418216   7.135   4.852   3.609  0.2353  0.8099  0.5184
   42MOL    C9518217   7.137   4.833   3.461 -0.1389  0.8333 -0.4438
   42MOL    C9618218   7.231   4.716   3.411 -0.9997 -0.1039 -0.4013
   42MOL    C9718219   7.228   4.424   3.300  0.0788 -0.0873  0.1607
   42MOL    H9818220   7.228   4.382   3.520 -0.1695  0.3482  0.5883
   42MOL    H9918221   7.080   4.568   3.466  0.3928 -1.0745 -0.6824
   42MOL   H10018222   7.293   4.616   3.663  0.5960 -1.4060 -1.4578
   42MOL   H10118223   7.162   4.518   3.690  1.5012 -0.8068 -0.1463
   42MOL   H10218224   7.132   4.742   3.791 -1.6665 -0.2899  0.3775
   42MOL   H10318225   6.995   4.705   3.688 -0.3677  2.5979  1.8258
   42MOL   H10418226   7.230   4.889   3.649  0.7388  0.7157 -0.5800
   42MOL   H10518227   7.054   4.920   3.637  0.8686  1.0578  1.7968
   42MOL   H10618228   7.043   4.794   3.422  0.5264 -2.0774  0.7361
   42MOL   H10718229   7.148   4.931   3.414  1.5098  0.9257  0.1085
   42MOL   H10818230   7.227   4.703   3.303  0.8774  1.7915 -0.7361
   42MOL   H10918231   7.338   4.736   3.424 -0.1791 -3.8634 -0.7548
   42MOL   H11018232   7.242   4.511   3.235  0.1667 -0.0327  0.2548
   42MOL   H11118233   7.307   4.356   3.269 -0.0800  0.1866 -0.8887
   42MOL   C11218234   7.087   4.367   3.274  0.0446 -0.9423  0.0366
   42MOL   C11318235   7.035   4.255   3.363 -0.5047  0.2352  0.0513
   42MOL   C11418236   7.130   4.134   3.355 -0.1539 -0.1565 -0.5868
   42MOL   C11518237   7.089   4.029   3.463  0.5496 -0.2542  0.8747
   42MOL   C11618238   6.944   3.987   3.429 -0.0751 -1.0475 -0.9703
   42MOL   C11718239   6.848   4.106   3.415  1.0735  0.9014  0.1674
   42MOL   C11818240   6.894   4.214   3.329 -0.3958  0.1460  0.0679
   42MOL   C11918241   7.073   4.339   3.123 -0.1041 -0.2077  0.1508
   42MOL   H12018242   7.019   4.450   3.293 -0.9016 -1.2167 -2.1104
   42MOL   H12118243   7.040   4.295   3.464  0.4615 -0.0430  0.1191
   42MOL   H12218244   7.236   4.158   3.352 -0.2752  0.6507  0.8253
   42MOL   H12318245   7.114   4.094   3.254  0.7506  1.5580 -1.4221
   42MOL   H12418246   7.147   3.937   3.470 -0.7890 -1.2337 -0.5560
   42MOL   H12518247   7.096   4.075   3.561 -0.0582  1.7174  0.0119
   42MOL   H12618248   6.945   3.933   3.334 -0.0033 -3.9139  0.6220
   42MOL   H12718249   6.915   3.916   3.506  0.7641 -0.8774 -0.4930
   42MOL   H12818250   6.755   4.069   3.371  0.7085 -0.2071  1.8202
   42MOL   H12918251   6.815   4.143   3.512 -0.5312  2.6163 -1.0141
   42MOL   H13018252   6.832   4.304   3.341  0.6065  0.6964  1.1552
   42MOL   H13118253   6.880   4.191   3.223  0.2257  2.4192 -0.5459
   42MOL   H13218254   7.068   4.236   3.086  0.1980  0.2396 -1.1763
   42MOL   H13318255   7.163   4.371   3.070 -0.7364  0.2901 -0.6513
   42MOL   C13418256   6.963   4.427   3.048  0.8259  0.8491 -0.2358
   42MOL   C13518257   6.929   4.377   2.904 -0.0399  0.2824  0.4623
   42MOL   C13618258   7.043   4.388   2.799 -1.2514 -0.3229 -0.0673
   42MOL   C13718259   6.997   4.316   2.670 -0.0917  0.8635 -0.2445
   42MOL   C13818260   6.882   4.400   2.619 -0.5253  0.3003 -0.3403
   42MOL   C13918261   6.765   4.398   2.718  0.2724  0.4633  0.0104
   42MOL   C14018262   6.805   4.453   2.848 -0.1231  0.4854 -0.0215
   42MOL   C14118263   7.004   4.579   3.062 -0.0154 -0.0640 -0.1029
   42MOL   H14218264   6.870   4.407   3.101  1.0436 -2.5665 -1.0192
   42MOL   H14318265   6.915   4.269   2.916  0.3444  0.1143 -0.5738
   42MOL   H14418266   7.064   4.493   2.775  0.0104 -0.6576 -0.5054
   42MOL   H14518267   7.139   4.352   2.836  0.2123  3.0940 -0.3045
   42MOL   H14618268   6.966   4.212   2.688 -0.1966  0.6627 -1.5611
   42MOL   H14718269   7.079   4.313   2.599 -0.5099 -2.1388 -0.6748
   42MOL   H14818270   6.911   4.504   2.609 -2.5220  0.8761 -0.4534
   42MOL   H14918271   6.839   4.373   2.522 -0.1961  0.4958 -0.5394
   42MOL   H15018272   6.715   4.302   2.729  1.4865 -0.4083 -1.7431
   42MOL   H15118273   6.686   4.453   2.667 -0.8350 -0.4664  0.7196
   42MOL   H15218274   6.848   4.552   2.832 -0.3902  1.0170  2.3508
   42MOL   H15318275   6.717   4.456   2.912 -0.9736 -0.1888 -1.1268
   42MOL   H15418276   7.057   4.602   2.969  0.0143 -2.1865 -0.6404
   42MOL   H15518277   7.070   4.596   3.147 -0.2542  0.5312 -0.0311
   42MOL   C15618278   6.884   4.680   3.079  0.8122  0.3229 -0.1043
   42MOL   C15718279   6.916   4.830   3.035 -0.7460  0.0621 -0.3480
   42MOL   C15818280   7.060   4.880   3.076 -0.1798  0.1236 -0.0190
   42MOL   C15918281   7.076   5.033   3.037 -0.0834 -0.3523 -0.2893
   42MOL   C16018282   7.070   5.038   2.885 -0.1052  0.0626 -0.0026
   42MOL   C16118283   6.929   4.987   2.835  0.5089 -0.9693  0.1570
   42MOL   C16218284   6.903   4.840   2.878  0.3423  0.6022 -0.2972
   42MOL   C16318285   6.818   4.666   3.226  0.1319 -0.1425 -0.4584
   42MOL   H16418286   6.795   4.646   3.026 -0.7231  2.5036  1.0137
   42MOL   H16518287   6.852   4.901   3.088  0.7336  0.8930  0.3666
   42MOL   H16618288   7.084   4.863   3.181 -0.5298  0.0182  0.0446
   42MOL   H16718289   7.137   4.816   3.035 -1.1597 -0.3458 -1.1251
   42MOL   H16818290   7.008   5.100   3.090  3.5759  1.3132  2.6432
   42MOL   H16918291   7.177   5.064   3.065 -0.2837  2.4172 -2.4488
   42MOL   H17018292   7.150   4.981   2.838  0.0583  0.0275  0.3180
   42MOL   H17118293   7.076   5.144   2.862  0.1809  0.8190  3.2683
   42MOL   H17218294   6.930   5.001   2.727  2.9880 -0.2912  0.2471
   42MOL   H17318295   6.852   5.049   2.880  1.2946  0.8354 -0.9380
   42MOL   H17418296   6.801   4.810   2.853  0.9219 -0.9091 -0.8347
   42MOL   H17518297   6.972   4.771   2.831 -1.5456 -0.7587 -1.1603
   42MOL   H17618298   6.896   4.696   3.295 -3.5499  0.8428  3.4932
   42MOL   H17718299   6.803   4.560   3.241  3.3951 -0.3398  1.7309
   42MOL   C17818300   6.685   4.754   3.247 -0.3757 -0.6110  0.4430
   42MOL   C17918301   6.565   4.659   3.289  0.5985 -0.1870 -0.3000
   42MOL   C18018302   6.580   4.588   3.422  0.4149  0.0308  0.7624
   42MOL   C18118303   6.449   4.530   3.470  0.5991 -0.3049 -0.3597
   42MOL   C18218304   6.397   4.423   3.368 -0.0361 -0.2220  0.2049
   42MOL   C18318305   6.380   4.493   3.228  0.0391 -0.0129  0.1819
   42MOL   C18418306   6.512   4.559   3.183 -0.4698  0.6846  0.3495
   42MOL   C18518307   6.717   4.878   3.338  0.1608  0.3449  0.0615
   42MOL   H18618308   6.659   4.792   3.149 -1.0799 -0.4827  0.6772
   42MOL   H18718309   6.487   4.733   3.307 -1.3795 -2.5562  1.2720
   42MOL   H18818310   6.661   4.516   3.405 -2.2449 -2.5645 -1.5636
   42MOL   H18918311   6.601   4.651   3.508 -3.2104 -1.6231  2.9709
   42MOL   H19018312   6.386   4.618   3.479  1.0932  0.1988 -1.5920
   42MOL   H19118313   6.469   4.488   3.568  0.6086  0.1824 -0.1510
   42MOL   H19218314   6.464   4.337   3.359  0.8659  0.5364 -0.3974
   42MOL   H19318315   6.302   4.377   3.394 -1.4079  2.7015  0.5391
   42MOL   H19418316   6.299   4.566   3.234 -1.4958 -1.6108 -0.4319
   42MOL   H19518317   6.336   4.427   3.154 -3.7496 -0.1591  2.4238
   42MOL   H19618318   6.594   4.491   3.157  0.1125  1.1742  0.8890
   42MOL   H19718319   6.489   4.615   3.093  1.5225  1.0647  0.0495
   42MOL   H19818320   6.727   4.848   3.442  1.4116  0.8663  0.0981
   42MOL   H19918321   6.817   4.919   3.320 -0.6575  2.3812  0.0195
   42MOL   C20018322   6.611   4.991   3.318  0.3762 -0.3430 -0.1412
   42MOL   C20118323   6.548   5.038   3.455 -0.1051 -0.2246 -0.2853
   42MOL   C20218324   6.459   4.924   3.507 -0.4818 -0.6364 -0.6012
   42MOL   C20318325   6.387   4.955   3.638  0.4477 -0.4630 -0.7548
   42MOL   C20418326   6.474   5.009   3.746 -0.3249  0.4841 -0.1118
   42MOL   C20518327   6.567   5.123   3.700  0.1694 -0.5260 -0.3036
   42MOL   C20618328   6.641   5.091   3.569  0.4041 -0.4130 -0.5254
   42MOL   C20718329   6.680   5.108   3.237  0.5225 -0.5031 -0.9053
   42MOL   H20818330   6.529   4.949   3.260  1.4565 -1.1097 -1.1332
   42MOL   H20918331   6.486   5.122   3.424  0.4523 -0.5273 -2.3207
   42MOL   H21018332   6.524   4.838   3.520  1.5034  1.0524  0.9177
   42MOL   H21118333   6.393   4.884   3.429  0.3326 -1.4321 -0.8854
   42MOL   H21218334   6.302   5.013   3.601  0.3768  0.6548  1.1278
   42MOL   H21318335   6.328   4.873   3.680  0.6076  0.6985  1.7898
   42MOL   H21418336   6.411   5.041   3.829  2.8940  0.8660  2.2809
   42MOL   H21518337   6.526   4.919   3.781 -2.3447 -0.8583 -0.4978
   42MOL   H21618338   6.512   5.216   3.687  1.0061  0.1223  0.7232
   42MOL   H21718339   6.634   5.156   3.779 -0.0357 -1.3451  0.2222
   42MOL   H21818340   6.702   5.173   3.531 -0.1809  0.7451  0.9765
   42MOL   H21918341   6.718   5.018   3.593  1.3929  0.2411 -1.6315
   42MOL   H22018342   6.760   5.159   3.291 -1.0384  1.5174 -0.4158
   42MOL   H22118343   6.727   5.075   3.145  1.0983  1.8843 -1.5057
   42MOL   C22218344   6.577   5.212   3.184 -0.2776 -0.1075 -0.1899
   42MOL   C22318345   6.642   5.338   3.113 -0.3772 -0.2580 -0.2411
   42MOL   C22418346   6.731   5.313   3.001  0.0601 -0.0246  0.5979
   42MOL   C22518347   6.788   5.440   2.941  0.1218 -0.2225  0.5857
   42MOL   C22618348   6.851   5.539   3.037  0.3256 -0.2943 -0.4556
   42MOL   C22718349   6.758   5.562   3.153 -0.3404  0.3843  0.3167
   42MOL   C22818350   6.719   5.422   3.216 -0.5591 -0.2885 -0.2407
   42MOL   C22918351   6.476   5.151   3.093 -0.2453  0.4386  0.1934
   42MOL   H23018352   6.526   5.268   3.262 -1.0545  0.1291 -0.8635
   42MOL   H23118353   6.565   5.402   3.071 -2.2132 -1.2727  1.4920
   42MOL   H23218354   6.817   5.251   3.030  0.8746  1.0678  0.5606
   42MOL   H23318355   6.685   5.252   2.924  1.4135  0.2390 -0.4399
   42MOL   H23418356   6.711   5.489   2.882  0.6751 -1.3563 -1.1181
   42MOL   H23518357   6.863   5.419   2.865 -0.1843 -1.1807  0.5429
   42MOL   H23618358   6.952   5.505   3.058 -0.5700 -2.5745  0.2760
   42MOL   H23718359   6.859   5.631   2.978 -1.3706  0.4756  0.4705
   42MOL   H23818360   6.677   5.623   3.112 -0.8084  0.5402  1.4724
   42MOL   H23918361   6.803   5.616   3.236  0.0205 -2.2744  1.9268
   42MOL   H24018362   6.806   5.370   3.256 -0.2363  0.8232  0.5219
   42MOL   H24118363   6.661   5.451   3.304 -0.7261 -2.8674  0.5390
   42MOL   H24218364   6.501   5.047   3.075 -0.3283  0.6899 -1.4520
   42MOL   H24318365   6.481   5.201   2.996 -0.7766  1.1546  0.5274
   42MOL   C24418366   6.335   5.159   3.148 -0.8059 -0.5547 -0.4751
   42MOL   C24518367   6.238   5.064   3.065 -0.6122 -0.1092  0.2922
   42MOL   C24618368   6.253   4.915   3.089  0.3936 -0.1327  0.3304
   42MOL   C24718369   6.158   4.827   3.014 -0.5401 -0.1219 -0.4561
   42MOL   C24818370   6.170   4.843   2.866  0.0836  0.6680 -0.1206
   42MOL   C24918371   6.153   4.995   2.828  0.2987  0.3392 -0.7388
   42MOL   C25018372   6.250   5.087   2.906 -0.4612  0.3519 -0.1926
   42MOL   C25118373   6.279   5.306   3.146  0.4836 -0.5085  0.0651
   42MOL   H25218374   6.342   5.129   3.252  2.5531  0.4739 -0.3711
   42MOL   H25318375   6.139   5.091   3.100 -0.4358 -0.6569  1.2134
   42MOL   H25418376   6.233   4.889   3.192  0.9089  0.8506  0.6901
   42MOL   H25518377   6.356   4.883   3.073 -0.3161 -2.4226  0.1764
   42MOL   H25618378   6.166   4.723   3.043 -1.0077  0.1083  0.5201
   42MOL   H25718379   6.060   4.850   3.055  0.5845  2.0071  1.1467
   42MOL   H25818380   6.262   4.797   2.829  0.0903  1.3740 -0.9942
   42MOL   H25918381   6.088   4.789   2.820  0.2145  0.4073 -0.0484
   42MOL   H26018382   6.051   5.024   2.855  0.3084  1.8957 -2.2880
   42MOL   H26118383   6.175   5.005   2.722  1.3373 -1.2434 -0.6897
   42MOL   H26218384   6.350   5.060   2.871  1.0821  3.0262  1.9075
   42MOL   H26318385   6.246   5.193   2.877  0.7379  0.2884 -0.6339
   42MOL   H26418386   6.215   5.331   3.061 -1.7981  0.4651  2.0183
   42MOL   H26518387   6.365   5.372   3.133  0.3423 -0.1642  0.8826
   42MOL   C26618388   6.200   5.351   3.272 -0.2869 -0.5062  0.1076
   42MOL   C26718389   6.288   5.388   3.396  0.3644  0.2392 -0.2869
   42MOL   C26818390   6.206   5.393   3.523 -0.1228  0.9779 -0.5957
   42MOL   C26918391   6.269   5.443   3.652  0.0674 -0.2858 -0.3706
   42MOL   C27018392   6.350   5.571   3.624 -0.7852  0.0771  0.0913
   42MOL   C27118393   6.444   5.556   3.506 -0.4149 -0.1847 -0.2984
   42MOL   C27218394   6.370   5.519   3.378 -0.3176 -0.1217  0.2641
   42MOL   C27318395   6.094   5.469   3.234  0.2289  0.3230  0.1107
   42MOL   H27418396   6.143   5.263   3.300 -1.4235  0.4684  0.9248
   42MOL   H27518397   6.355   5.305   3.419  1.0227  0.8511  0.0221
   42MOL   H27618398   6.120   5.457   3.504 -1.8934 -1.4563 -1.0859
   42MOL   H27718399   6.160   5.297   3.546  2.9039 -0.7851 -1.6054
   42MOL   H27818400   6.340   5.372   3.695 -2.2321 -2.8362 -0.6713
   42MOL   H27918401   6.198   5.460   3.733 -0.8760 -0.0031 -1.2418
   42MOL   H28018402   6.276   5.650   3.610  0.4148  1.4348  1.3161
   42MOL   H28118403   6.418   5.602   3.704 -0.5815 -0.0637 -0.0295
   42MOL   H28218404   6.513   5.473   3.525  0.3386  0.1257 -1.6215
   42MOL   H28318405   6.509   5.643   3.497 -1.5935  0.8881  1.3783
   42MOL   H28418406   6.442   5.505   3.297 -1.5594 -0.6611 -0.7793
   42MOL   H28518407   6.305   5.602   3.348  2.9397  2.0918 -0.8769
   42MOL   H28618408   6.126   5.536   3.154  1.4646  0.1993  0.4907
   42MOL   H28718409   6.092   5.542   3.316 -0.7299  0.7671 -0.3070
   42MOL   C28818410   5.955   5.419   3.204  0.1388  0.2102 -0.7243
   42MOL   C28918411   5.881   5.523   3.115 -0.2140 -0.0082 -0.4084
   42MOL   C29018412   5.890   5.677   3.158 -0.2671  0.2994  0.4573
   42MOL   C29118413   5.822   5.774   3.057 -0.6224 -0.4879  0.9167
   42MOL   C29218414   5.856   5.738   2.909 -0.4686 -0.1373 -0.2028
   42MOL   C29318415   5.815   5.594   2.881 -0.0183  0.8953  0.1317
   42MOL   C29418416   5.914   5.507   2.962 -0.6002 -0.3566  0.0174
   42MOL   C29518417   5.876   5.370   3.331 -0.6787  0.0669  0.2316
   42MOL   H29618418   5.956   5.325   3.148 -0.7675 -1.1958  1.5214
   42MOL   H29718419   5.777   5.488   3.115 -0.0976 -0.3866 -1.8959
   42MOL   H29818420   5.837   5.694   3.252 -0.1097  0.6066  0.4921
   42MOL   H29918421   5.994   5.703   3.177  0.0373 -1.0483  0.6738
   42MOL   H30018422   5.714   5.775   3.073 -0.9285  0.6701 -1.0872
   42MOL   H30118423   5.859   5.876   3.075  0.9780 -1.1432  1.4378
   42MOL   H30218424   5.957   5.764   2.876 -0.8817  0.3583 -1.0834
   42MOL   H30318425   5.780   5.794   2.855 -0.7007 -0.4160 -0.1661
   42MOL   H30418426   5.825   5.573   2.775  0.1166  1.6617 -0.0120
   42MOL   H30518427   5.713   5.570   2.910  0.7390 -1.7523  0.7779
   42MOL   H30618428   6.016   5.534   2.935 -1.9834  2.7846 -2.3703
   42MOL   H30718429   5.904   5.401   2.939 -0.0593 -0.9154  2.2894
   42MOL   H30818430   5.943   5.336   3.410  1.8448  0.2100 -1.8068
   42MOL   H30918431   5.844   5.465   3.375  1.7078 -0.2579  2.8702
   42MOL   C31018432   5.754   5.277   3.308  0.0773 -0.4666  0.7288
   42MOL   C31118433   5.791   5.123   3.274 -0.6429  0.9599  0.4009
   42MOL   C31218434   5.872   5.049   3.387  0.4328  0.1426  0.1215
   42MOL   C31318435   5.914   4.914   3.330  0.8395 -0.0718 -0.0966
   42MOL   C31418436   5.796   4.839   3.277  0.5262 -0.1749  0.4663
   42MOL   C31518437   5.707   4.920   3.177  1.2831 -0.3754 -0.6375
   42MOL   C31618438   5.660   5.048   3.233 -0.5466  0.5925  0.8611
   42MOL   C31718439   5.651   5.295   3.421 -0.1026 -0.4770  0.0790
   42MOL   H31818440   5.700   5.300   3.217 -1.2011  0.3652  1.6812
   42MOL   H31918441   5.861   5.133   3.192 -0.2624  1.1132  0.7461
   42MOL   H32018442   5.957   5.104   3.426 -0.6869  0.4828  2.1658
   42MOL   H32118443   5.810   5.036   3.476 -0.5967 -0.9499 -0.7351
   42MOL   H32218444   5.955   4.851   3.409  1.6310 -0.0532 -0.4859
   42MOL   H32318445   5.991   4.929   3.255 -0.2075 -0.2472 -1.2079
   42MOL   H32418446   5.838   4.752   3.225  0.2212 -1.0464  1.6387
   42MOL   H32518447   5.733   4.788   3.350 -1.1957  1.7891  0.3955
   42MOL   H32618448   5.759   4.935   3.082 -0.7522 -0.2823 -1.7813
   42MOL   H32718449   5.619   4.858   3.156  0.7871 -1.1120  3.2100
   42MOL   H32818450   5.597   5.018   3.317  1.0839  0.1545  1.9390
   42MOL   H32918451   5.596   5.104   3.165 -0.9993  0.8968  1.5284
   42MOL   H33018452   5.685   5.361   3.500 -1.0067 -0.4082  0.4165
   42MOL   H33118453   5.654   5.211   3.491  0.7401 -0.5304 -0.0148
   42MOL   C33218454   5.503   5.330   3.394 -0.2416  0.7627  0.2266
   42MOL   C33318455   5.486   5.455   3.310 -0.6040 -0.2301 -0.1893
   42MOL   C33418456   5.523   5.577   3.395 -0.3724 -0.4701 -0.4062
   42MOL   C33518457   5.508   5.715   3.335 -0.1512  0.1700  0.6263
   42MOL   C33618458   5.369   5.725   3.264  0.1919 -0.4013 -0.6430
   42MOL   C33718459   5.342   5.605   3.176  0.0237  0.2291  0.3166
   42MOL   C33818460   5.350   5.471   3.249  0.4090 -0.1777  0.8845
   42MOL   C33918461   5.420   5.318   3.524 -0.2590  0.0965  1.0498
   42MOL   H34018462   5.471   5.248   3.329  1.6683 -0.2541  0.5361
   42MOL   H34118463   5.554   5.465   3.226  0.6207 -1.9804  0.5661
   42MOL   H34218464   5.472   5.581   3.491 -2.1160 -0.4611 -1.3110
   42MOL   H34318465   5.625   5.562   3.432 -0.6013  1.0118  0.8708
   42MOL   H34418466   5.520   5.799   3.404  0.7604  1.0143 -0.5408
   42MOL   H34518467   5.593   5.724   3.267 -0.7300  0.5175 -0.0547
   42MOL   H34618468   5.291   5.723   3.340 -0.6026 -1.8786 -1.4616
   42MOL   H34718469   5.365   5.822   3.214 -0.6276  1.3435  2.6945
   42MOL   H34818470   5.408   5.599   3.090  0.2025  1.7213  0.3385
   42MOL   H34918471   5.248   5.617   3.122  1.0467 -1.3783 -1.8890
   42MOL   H35018472   5.341   5.381   3.188  1.7024  1.0138 -1.0970
   42MOL   H35118473   5.262   5.472   3.313 -0.7201 -1.8749 -0.6088
   42MOL   H35218474   5.328   5.377   3.514 -0.7903 -1.1422 -2.1751
   42MOL   H35318475   5.474   5.370   3.602  0.1594  2.0703 -0.5011
   42MOL   C35418476   5.375   5.175   3.572 -0.4178 -0.2252  0.0129
   42MOL   C35518477   5.251   5.105   3.497  0.2081 -0.5275  1.1696
   42MOL   C35618478   5.292   5.054   3.354  0.3234  0.0064 -0.1583
   42MOL   C35718479   5.173   4.989   3.283  0.7889  0.1758  0.3010
   42MOL   C35818480   5.040   5.078   3.294 -0.3630  0.3655 -0.1608
   42MOL   C35918481   4.999   5.123   3.434 -0.3784 -0.3737  0.6788
   42MOL   C36018482   5.120   5.191   3.500 -0.6308  0.0182 -0.0603
   42MOL   C36118483   5.337   5.189   3.724 -0.0107 -0.1926  0.3310
   42MOL   H36218484   5.460   5.108   3.558 -0.3674 -0.0946 -0.3143
   42MOL   H36318485   5.230   5.016   3.557  1.9278 -1.5204  0.3397
   42MOL   H36418486   5.382   4.993   3.352  0.3063 -0.1730  2.3767
   42MOL   H36518487   5.317   5.140   3.292 -2.0632  0.9709  0.1479
   42MOL   H36618488   5.193   4.967   3.178  1.6397 -2.8005  1.0402
   42MOL   H36718489   5.147   4.899   3.339 -0.3180 -0.8460 -1.7949
   42MOL   H36818490   5.052   5.173   3.243  1.4532  0.3090  0.1234
   42MOL   H36918491   4.958   5.031   3.241 -0.5657 -0.8094  1.1567
   42MOL   H37018492   4.912   5.189   3.428 -1.8186 -2.3058 -0.5477
   42MOL   H37118493   4.966   5.036   3.489  1.5839 -0.7577  1.2853
   42MOL   H37218494   5.090   5.199   3.604 -1.2886 -0.3183 -0.2160
   42MOL   H37318495   5.131   5.289   3.453 -0.1098  0.0344  0.1005
   42MOL   H37418496   5.271   5.109   3.759  1.6712 -1.9564 -0.4192
   42MOL   H37518497   5.271   5.275   3.738  0.0114  0.0018 -0.7394
   42MOL   C37618498   5.451   5.195   3.822 -0.5303  0.6847 -0.0163
   42MOL   C37718499   5.434   5.276   3.953  1.0181  0.1270 -0.0338
   42MOL   C37818500   5.554   5.315   4.041 -0.1043 -0.2652 -0.5388
   42MOL   C37918501   5.518   5.382   4.176  0.7535 -0.4486  0.1053
   42MOL   C38018502   5.412   5.303   4.251 -0.3900  1.1839  0.1671
   42MOL   C38118503   5.293   5.301   4.167  0.1608 -0.2214 -0.3235
   42MOL   C38218504   5.315   5.217   4.037  0.3100 -0.3578  0.3813
   42MOL   C38318505   5.490   5.049   3.858  0.1525 -0.6966  0.0859
   42MOL   H38418506   5.539   5.239   3.775 -2.1368  1.9800 -1.8715
   42MOL   H38518507   5.397   5.372   3.918  0.3497 -0.1654 -0.1211
   42MOL   H38618508   5.617   5.229   4.058  1.6723  1.2466  0.6703
   42MOL   H38718509   5.610   5.384   3.978  0.3796  2.3649  2.6252
   42MOL   H38818510   5.480   5.479   4.142  2.4187  1.0963  2.4832
   42MOL   H38918511   5.610   5.405   4.230  1.4093  0.7791 -1.4642
   42MOL   H39018512   5.452   5.205   4.277 -2.3495  0.3212  0.0197
   42MOL   H39118513   5.386   5.350   4.346  0.4250 -2.3314  2.2198
   42MOL   H39218514   5.226   5.241   4.230 -1.7575 -0.5066 -2.5734
   42MOL   H39318515   5.256   5.403   4.158 -1.5307 -0.5673  1.9637
   42MOL   H39418516   5.329   5.114   4.068  0.0647 -0.8881 -1.2517
   42MOL   H39518517   5.229   5.221   3.970  0.1740 -0.1250  0.5686
   42MOL   H39618518   5.402   4.986   3.871 -0.3317  0.1341  0.9423
   42MOL   H39718519   5.532   5.056   3.959  1.5869  2.7379 -0.6748
   42MOL   C39818520   5.601   4.976   3.769  0.5910 -0.0304 -1.5619
   42MOL   C39918521   5.754   4.994   3.821 -0.1934 -0.1935 -1.0018
   42MOL   C40018522   5.857   4.904   3.761 -0.0289  0.0676 -0.6897
   42MOL   C40118523   6.002   4.925   3.813  0.1467  0.3741 -0.0107
   42MOL   C40218524   6.035   5.073   3.785 -0.7685  0.1434  0.1905
   42MOL   C40318525   5.929   5.167   3.849  0.3813  0.3823  0.3773
   42MOL   C40418526   5.790   5.139   3.796 -0.8645 -0.6911 -0.4556
   42MOL   C40518527   5.564   4.827   3.762  0.1182 -0.1127  0.3076
   42MOL   H40618528   5.599   5.005   3.664  0.0648  0.1032 -1.5151
   42MOL   H40718529   5.756   4.971   3.928  1.5696  1.4757 -0.6513
   42MOL   H40818530   5.855   4.911   3.653 -0.9182 -0.7838 -0.7341
   42MOL   H40918531   5.850   4.801   3.795 -0.0597  0.5938  0.9601
   42MOL   H41018532   6.074   4.871   3.752 -0.2296  1.1828 -1.1840
   42MOL   H41118533   6.005   4.897   3.919  0.4617  1.9064  0.3956
   42MOL   H41218534   6.042   5.096   3.679 -2.3624  2.1133  0.4872
   42MOL   H41318535   6.130   5.091   3.835 -1.3922  0.0147  1.4465
   42MOL   H41418536   5.937   5.135   3.953 -2.2258 -2.1006 -0.0911
   42MOL   H41518537   5.969   5.267   3.839 -1.0270  0.9109 -0.1116
   42MOL   H41618538   5.722   5.191   3.863  1.0078  1.2904 -0.0442
   42MOL   H41718539   5.774   5.177   3.695 -0.9692  2.6891  0.7916
   42MOL   H41818540   5.643   4.754   3.744 -0.1276 -0.5256  0.9118
   42MOL   H41918541   5.546   4.807   3.867 -0.4204 -0.5061  0.1447
   42MOL   C42018542   5.442   4.785   3.677  0.3732 -0.4046  0.7644
   42MOL   C42118543   5.370   4.651   3.703 -0.0260 -0.1497 -0.2498
   42MOL   C42218544   5.278   4.664   3.821 -0.9167  0.3825 -0.2840
   42MOL   C42318545   5.204   4.528   3.847  0.3700 -0.7022 -0.1091
   42MOL   C42418546   5.301   4.411   3.872 -0.7133  0.3845  0.2653
   42MOL   C42518547   5.400   4.403   3.748  1.1112 -0.6261 -0.1987
   42MOL   C42618548   5.468   4.541   3.726  0.6429 -0.0769 -0.0396
   42MOL   C42718549   5.493   4.785   3.530  0.8838 -0.4162  0.1583
   42MOL   H42818550   5.366   4.862   3.692 -0.7291 -0.6765 -2.9113
   42MOL   H42918551   5.305   4.628   3.618 -2.0954 -0.1671  1.3162
   42MOL   H43018552   5.333   4.706   3.905  0.0588  0.5407 -0.9906
   42MOL   H43118553   5.201   4.740   3.810 -0.9022  0.2537 -1.3272
   42MOL   H43218554   5.140   4.536   3.935 -0.4458  0.4745 -0.7966
   42MOL   H43318555   5.136   4.520   3.763 -0.0701  1.0641  0.0697
   42MOL   H43418556   5.248   4.316   3.877 -0.4585  0.3204  1.9692
   42MOL   H43518557   5.357   4.432   3.963  0.5006 -0.8922 -0.1763
   42MOL   H43618558   5.337   4.389   3.661 -0.0801  1.2327  0.3258
   42MOL   H43718559   5.470   4.319   3.752  0.4041 -1.3112 -1.8540
   42MOL   H43818560   5.525   4.563   3.816 -0.0663 -0.1858  0.4418
   42MOL   H43918561   5.537   4.528   3.642 -0.4672 -2.5231 -0.6223
   42MOL   H44018562   5.408   4.754   3.470  0.5454 -0.9168  0.8840
   42MOL   H44118563   5.543   4.880   3.509 -0.0324  0.0710  0.1911
   42MOL   H44218564   5.573   4.711   3.519 -0.2765 -1.5312 -0.9406
   43MOL     C118565   2.769   3.206   0.112  0.9494  0.2950 -0.3486
   43MOL     C218566   2.618   3.248   0.116  0.4320 -1.3609  0.3247
   43MOL     C318567   2.596   3.371   0.204 -0.0008 -0.5707 -0.3503
   43MOL     C418568   2.448   3.394   0.225 -0.5093 -0.0406 -0.1896
   43MOL     C518569   2.374   3.270   0.277  0.2627 -0.2902 -0.1512
   43MOL     C618570   2.387   3.150   0.176 -0.1372 -0.0141  0.5372
   43MOL     C718571   2.532   3.126   0.150 -0.5246  0.6018 -0.4793
   43MOL     C818572   2.861   3.292   0.036 -0.1807 -0.9472 -0.3171
   43MOL     H918573   2.804   3.189   0.214 -0.2279 -0.4173 -0.0488
   43MOL    H1018574   2.599   3.277   0.012 -0.9195  1.5343  1.3393
   43MOL    H1118575   2.652   3.343   0.293  0.7672 -0.4157 -0.7744
   43MOL    H1218576   2.640   3.464   0.168 -1.9359 -0.0581 -1.4466
   43MOL    H1318577   2.415   3.434   0.129  0.3065  1.9290  0.3166
   43MOL    H1418578   2.432   3.467   0.305  1.7991  0.4290 -0.1335
   43MOL    H1518579   2.276   3.305   0.310  0.9881  1.6941 -0.0351
   43MOL    H1618580   2.417   3.233   0.370 -2.0800 -1.2947  0.5864
   43MOL    H1718581   2.348   3.057   0.217 -0.0906 -0.7801 -1.1003
   43MOL    H1818582   2.344   3.171   0.078 -0.4208 -0.5502  0.5445
   43MOL    H1918583   2.534   3.034   0.091 -0.5847  0.8176 -0.8205
   43MOL    H2018584   2.558   3.083   0.247 -1.2919  0.5187 -0.3055
   43MOL    H2118585   2.893   3.381   0.091 -1.9126  0.7114 -1.9088
   43MOL    H2218586   2.811   3.325   7.717 -2.2159 -1.9323  0.4237
   43MOL    H2318587   2.762   3.109   0.062 -0.2729  0.3820 -0.3622
   43MOL    C2418588   2.983   3.223   7.771 -0.4926  0.3329 -0.6045
   43MOL    C2518589   3.053   3.278   7.641  0.1684 -0.1937 -0.0077
   43MOL    C2618590   3.106   3.423   7.650  0.3200 -0.2234  0.3104
   43MOL    C2718591   3.171   3.482   7.523  0.0131 -0.0165 -0.2603
   43MOL    C2818592   3.090   3.453   7.398 -0.9519 -0.0233 -0.2324
   43MOL    C2918593   3.052   3.304   7.385  0.0212 -0.8114  0.3228
   43MOL    C3018594   2.975   3.260   7.513 -0.3724 -0.2793 -0.2783
   43MOL    C3118595   3.088   3.206   0.118  0.5950 -0.1052  0.1581
   43MOL    H3218596   2.963   3.123   7.732 -2.3658  0.3140  0.3710
   43MOL    H3318597   3.141   3.217   7.625  0.3110  0.1558 -0.6050
   43MOL    H3418598   3.175   3.446   7.731  1.2153  0.3781 -0.6025
   43MOL    H3518599   3.026   3.493   7.675  1.1701  0.8537  0.0839
   43MOL    H3618600   3.212   3.582   7.530 -0.7239  0.2934 -0.3212
   43MOL    H3718601   3.259   3.417   7.524  0.0185 -0.0038  0.4238
   43MOL    H3818602   3.156   3.477   7.315  1.0374  0.9776  1.5918
   43MOL    H3918603   3.001   3.515   7.390  0.7434  2.3286 -1.2900
   43MOL    H4018604   2.998   3.288   7.291 -0.5885  0.0116  0.5201
   43MOL    H4118605   3.142   3.243   7.388 -0.2341 -1.2698 -1.1441
   43MOL    H4218606   2.885   3.320   7.527 -0.9230 -1.4180  1.2157
   43MOL    H4318607   2.940   3.157   7.512  0.9501 -0.7642 -3.6342
   43MOL    H4418608   3.024   3.226   0.204  1.1085  0.4152  0.4215
   43MOL    H4518609   3.162   3.285   0.111  1.9842 -1.6279 -3.0370
   43MOL    C4618610   3.151   3.070   0.139 -0.4425  0.3982  0.1223
   43MOL    C4718611   3.074   2.982   0.244 -0.6089  0.7921 -0.2440
   43MOL    C4818612   3.086   3.029   0.392 -0.0080  0.0693 -0.0744
   43MOL    C4918613   2.999   2.943   0.488  0.8186 -0.6088 -1.0429
   43MOL    C5018614   3.033   2.794   0.471  0.4739  0.1658  0.5282
   43MOL    C5118615   3.018   2.753   0.322  0.1073 -0.7499 -0.5157
   43MOL    C5218616   3.099   2.840   0.228 -0.5163  0.0310  0.6600
   43MOL    C5318617   3.305   3.092   0.171 -0.3654  0.3571 -0.5560
   43MOL    H5418618   3.149   3.016   0.044  0.5867  2.6809 -1.2582
   43MOL    H5518619   2.969   2.993   0.217 -1.2851 -1.1801  1.4801
   43MOL    H5618620   3.185   3.008   0.432 -0.2940  0.3767  0.7955
   43MOL    H5718621   3.061   3.134   0.403 -2.0833 -0.4965  0.8241
   43MOL    H5818622   2.897   2.975   0.466  0.6926  1.0400  1.7439
   43MOL    H5918623   3.019   2.964   0.593 -1.5580 -0.8883 -0.5026
   43MOL    H6018624   3.126   2.756   0.513 -0.1990 -0.0304  1.8808
   43MOL    H6118625   2.958   2.737   0.527 -0.8403  1.0025 -0.3459
   43MOL    H6218626   2.915   2.754   0.286  0.5975 -0.6756 -1.9601
   43MOL    H6318627   3.052   2.650   0.313  1.7389 -0.2327 -0.2869
   43MOL    H6418628   3.207   2.824   0.235 -0.0822  2.1395 -0.5783
   43MOL    H6518629   3.069   2.800   0.131 -0.2628  2.4859 -0.4720
   43MOL    H6618630   3.344   2.998   0.210 -1.4339 -0.4838 -1.4828
   43MOL    H6718631   3.319   3.156   0.259 -3.0977  0.3039 -0.0380
   43MOL    C6818632   3.395   3.141   0.054 -0.2355  0.2691  0.3044
   43MOL    C6918633   3.502   3.245   0.106  0.6475 -0.5299 -0.6296
   43MOL    C7018634   3.461   3.388   0.123 -0.5562 -0.5676  0.3003
   43MOL    C7118635   3.576   3.491   0.138 -0.2653  0.6680 -0.4141
   43MOL    C7218636   3.675   3.438   0.241  0.5375  0.1139 -0.3121
   43MOL    C7318637   3.711   3.290   0.226 -0.4986 -0.3866 -0.2292
   43MOL    C7418638   3.587   3.197   0.222 -0.1794 -0.0068  0.5409
   43MOL    C7518639   3.466   3.019   7.761  0.2795 -0.9622  0.0769
   43MOL    H7618640   3.337   3.195   7.751 -0.9342 -1.2505 -0.2494
   43MOL    H7718641   3.570   3.253   0.021  1.5511 -1.7981 -0.0443
   43MOL    H7818642   3.408   3.383   0.217 -0.5350 -1.1639  0.2828
   43MOL    H7918643   3.390   3.406   0.042 -1.2075 -1.8740  0.5580
   43MOL    H8018644   3.627   3.488   0.042  0.9804 -0.0228  0.2534
   43MOL    H8118645   3.533   3.588   0.160 -0.2191  0.5405  0.2621
   43MOL    H8218646   3.628   3.451   0.339 -0.3719 -0.4697 -0.6633
   43MOL    H8318647   3.768   3.495   0.248  0.0317  1.0179 -0.9013
   43MOL    H8418648   3.773   3.271   0.313  0.5273 -1.8913 -1.2720
   43MOL    H8518649   3.767   3.275   0.133 -0.9384 -2.8882 -0.1228
   43MOL    H8618650   3.539   3.186   0.320  0.5513 -2.2598  0.6814
   43MOL    H8718651   3.635   3.103   0.196  1.6747  0.5758  1.7858
   43MOL    H8818652   3.516   2.964   0.068 -2.3678 -2.8327  0.5104
   43MOL    H8918653   3.388   2.956   7.719 -0.2975 -0.9637  1.1303
   43MOL    C9018654   3.567   3.039   7.649 -0.4517  0.1775  0.9297
   43MOL    C9118655   3.661   2.911   7.634 -0.2326  0.7665  1.1469
   43MOL    C9218656   3.777   2.905   7.733 -0.7818 -0.3393 -0.2670
   43MOL    C9318657   3.873   2.784   7.721  0.0833 -0.2582  0.0071
   43MOL    C9418658   3.798   2.653   7.738 -0.6240 -0.1622  0.3599
   43MOL    C9518659   3.679   2.644   7.639 -0.3673  0.6542  0.0475
   43MOL    C9618660   3.590   2.764   7.641  0.6333 -0.4419 -0.0600
   43MOL    C9718661   3.492   3.058   7.508  0.2161 -0.0721 -0.1320
   43MOL    H9818662   3.644   3.114   7.665  0.3820 -0.0397 -1.7797
   43MOL    H9918663   3.707   2.919   7.535 -0.2185 -1.4943  0.9420
   43MOL   H10018664   3.731   2.904   0.060 -0.2143 -0.9029 -0.0070
   43MOL   H10118665   3.834   2.997   7.743  1.0938 -1.7331  2.3893
   43MOL   H10218666   3.941   2.798   0.033 -0.3394 -1.0278  0.4794
   43MOL   H10318667   3.921   2.795   7.624  1.0099  0.2279  0.5134
   43MOL   H10418668   3.766   2.638   0.068 -0.2841  0.9475  0.6418
   43MOL   H10518669   3.866   2.572   7.712  0.3344  0.4210  1.0098
   43MOL   H10618670   3.714   2.628   7.537  2.0732 -0.4859  1.0126
   43MOL   H10718671   3.615   2.562   7.673 -0.7509  0.6998 -0.5688
   43MOL   H10818672   3.515   2.740   7.565 -1.4450 -0.8403  2.0654
   43MOL   H10918673   3.536   2.754   7.735  1.3836  0.4019  0.4596
   43MOL   H11018674   3.426   2.973   7.485 -0.3581 -0.7786  3.7835
   43MOL   H11118675   3.419   3.135   7.532  0.7105  0.3310  0.0641
   43MOL   C11218676   3.577   3.102   7.384 -0.9134 -0.3555 -0.2830
   43MOL   C11318677   3.626   3.249   7.397  0.0599 -0.0746  0.3830
   43MOL   C11418678   3.520   3.357   7.410  0.4327 -0.8625 -0.6244
   43MOL   C11518679   3.590   3.494   7.439  0.4249 -0.2415 -0.0585
   43MOL   C11618680   3.695   3.538   7.337  0.5541  0.3425  0.2147
   43MOL   C11718681   3.789   3.421   7.318 -0.1847 -0.7428  0.2906
   43MOL   C11818682   3.725   3.286   7.288  0.1446 -0.2610 -0.0513
   43MOL   C11918683   3.503   3.079   7.253  0.5171 -0.3077  0.0825
   43MOL   H12018684   3.675   3.055   7.380 -1.6994 -1.9188 -2.5624
   43MOL   H12118685   3.679   3.258   7.492 -0.4180  0.3988  0.6090
   43MOL   H12218686   3.450   3.334   7.490  2.7149 -0.4400  1.5498
   43MOL   H12318687   3.463   3.354   7.317 -0.4786 -2.4907 -0.0367
   43MOL   H12418688   3.513   3.572   7.446 -1.3365 -1.9800  0.3996
   43MOL   H12518689   3.639   3.492   7.536 -1.4160  0.7794  0.9397
   43MOL   H12618690   3.653   3.562   7.240 -0.5716 -3.7403 -0.3839
   43MOL   H12718691   3.746   3.614   7.396  1.0745 -0.0112  0.2301
   43MOL   H12818692   3.867   3.444   7.245  0.3639 -1.3655  0.6802
   43MOL   H12918693   3.852   3.399   7.404  0.3599 -0.1008  0.0683
   43MOL   H13018694   3.805   3.214   7.274  1.5883  0.7620  2.5432
   43MOL   H13118695   3.686   3.285   7.186  1.6108 -2.4637 -0.6185
   43MOL   H13218696   3.574   3.114   7.179  0.8331  2.4112  1.6274
   43MOL   H13318697   3.417   3.147   7.255  0.1162 -0.8103  0.1763
   43MOL   C13418698   3.469   2.932   7.214 -1.0247  0.4520 -0.2034
   43MOL   C13518699   3.591   2.838   7.226  0.2506  0.1755  0.2684
   43MOL   C13618700   3.723   2.880   7.147 -0.2928  0.9853 -0.0637
   43MOL   C13718701   3.835   2.789   7.173 -0.8757  0.5921 -0.0173
   43MOL   C13818702   3.803   2.636   7.154 -0.1918 -0.2227  0.3655
   43MOL   C13918703   3.671   2.598   7.224  0.3799  0.1056 -0.1266
   43MOL   C14018704   3.560   2.690   7.186 -0.0172  0.8511  0.3969
   43MOL   C14118705   3.404   2.931   7.077  0.5855  0.2750  0.5840
   43MOL   H14218706   3.393   2.901   7.286 -1.6005 -0.9636 -1.3862
   43MOL   H14318707   3.615   2.844   7.333  0.4600 -0.1429  0.2410
   43MOL   H14418708   3.696   2.870   7.042  0.9315  0.4155 -0.3381
   43MOL   H14518709   3.744   2.985   7.169 -0.7245  0.5495  2.5804
   43MOL   H14618710   3.858   2.794   7.279 -2.7846 -1.4528  0.5184
   43MOL   H14718711   3.927   2.815   7.121 -0.6604 -1.0596 -0.4957
   43MOL   H14818712   3.786   2.618   7.047  0.5282 -0.9799  0.3753
   43MOL   H14918713   3.889   2.576   7.184 -0.2257  0.2430  1.3972
   43MOL   H15018714   3.691   2.597   7.331  2.1449 -0.7327 -0.4370
   43MOL   H15118715   3.654   2.492   7.205 -2.5957  0.6192 -0.5481
   43MOL   H15218716   3.530   2.676   7.082  0.1151  0.2224  0.4427
   43MOL   H15318717   3.472   2.661   7.243  0.7693  0.4703  1.4286
   43MOL   H15418718   3.472   2.900   6.998 -0.8958 -1.6769  0.0624
   43MOL   H15518719   3.386   3.032   7.039  3.3737 -0.0122 -1.6708
   43MOL   C15618720   3.277   2.849   7.067  0.7569 -0.5875  0.6682
   43MOL   C15718721   3.236   2.817   6.921 -0.8082  0.7438 -0.1988
   43MOL   C15818722   3.276   2.915   6.803  0.2526  0.2122 -0.5174
   43MOL   C15918723   3.223   2.878   6.669  0.5937 -0.2414  0.5562
   43MOL   C16018724   3.263   2.741   6.630  0.5589 -0.0141  0.4605
   43MOL   C16118725   3.219   2.640   6.739 -0.1488  0.0524  0.4953
   43MOL   C16218726   3.277   2.674   6.876  0.6138 -0.7735  0.3817
   43MOL   C16318727   3.168   2.926   7.145  0.3826 -0.3910  0.2570
   43MOL   H16418728   3.293   2.753   7.115  1.2624 -1.4527 -1.1830
   43MOL   H16518729   3.127   2.831   6.919 -1.0207 -0.5996  1.5340
   43MOL   H16618730   3.238   3.015   6.826 -1.8887 -0.8705  0.7774
   43MOL   H16718731   3.385   2.915   6.794  0.2850  0.0744 -0.1236
   43MOL   H16818732   3.116   2.875   6.683  0.7272 -0.4461  1.5257
   43MOL   H16918733   3.257   2.947   6.591  0.3132 -0.3287  0.3568
   43MOL   H17018734   3.369   2.729   6.608  0.4031  0.7460 -0.7790
   43MOL   H17118735   3.211   2.718   6.537 -3.0813 -1.9095  2.8436
   43MOL   H17218736   3.239   2.540   6.702 -0.1620  0.1317  0.2730
   43MOL   H17318737   3.112   2.632   6.760 -0.4742  0.7545 -0.8013
   43MOL   H17418738   3.247   2.595   6.946  3.0538 -2.4318 -0.3813
   43MOL   H17518739   3.385   2.677   6.874  0.6068  0.1684  1.0132
   43MOL   H17618740   3.133   3.002   7.076  1.5482 -0.5412 -0.5097
   43MOL   H17718741   3.211   2.992   7.221  1.8790 -0.6143 -0.3825
   43MOL   C17818742   3.049   2.848   7.195 -0.6003 -0.4022  0.6293
   43MOL   C17918743   3.082   2.781   7.335 -0.0759 -0.2313 -0.0142
   43MOL   C18018744   2.981   2.666   7.366  0.3914  0.6546 -0.1013
   43MOL   C18118745   2.982   2.610   7.500  0.2025  0.0595 -0.2899
   43MOL   C18218746   2.992   2.715   7.611 -0.0581 -0.1521 -0.4273
   43MOL   C18318747   3.099   2.823   7.581  0.3058  0.8669 -0.5066
   43MOL   C18418748   3.088   2.889   7.447  0.2677  0.5350 -0.5392
   43MOL   C18518749   2.912   2.924   7.175 -0.3162 -0.0642 -0.1226
   43MOL   H18618750   3.039   2.765   7.125  0.7775 -0.3590  0.3733
   43MOL   H18718751   3.186   2.749   7.332 -0.0053  0.0034 -0.0233
   43MOL   H18818752   2.879   2.695   7.340 -0.1802 -1.5782 -0.4619
   43MOL   H18918753   2.997   2.574   7.310  0.4777  0.1450  0.7348
   43MOL   H19018754   3.056   2.531   7.516  1.4097  1.2790  0.2468
   43MOL   H19118755   2.893   2.550   7.517 -0.2410  1.4646  2.5479
   43MOL   H19218756   2.896   2.766   7.624  1.0652  2.1751 -0.9076
   43MOL   H19318757   3.000   2.669   7.709 -0.3856 -0.3005 -0.4707
   43MOL   H19418758   3.192   2.768   7.592  0.1385  0.4714 -1.0180
   43MOL   H19518759   3.090   2.894   7.663 -0.9718 -0.5776  0.6487
   43MOL   H19618760   2.994   2.944   7.444  0.8865  1.6654  0.3609
   43MOL   H19718761   3.173   2.957   7.435  0.7169  0.2438  0.8369
   43MOL   H19818762   2.853   2.893   7.261 -1.8520 -0.1888 -1.2184
   43MOL   H19918763   2.928   3.030   7.196  1.1294 -0.3987  0.5380
   43MOL   C20018764   2.846   2.911   7.043 -1.2871 -0.0457  0.4263
   43MOL   C20118765   2.786   2.766   7.030  0.6751  0.2816  0.2763
   43MOL   C20218766   2.632   2.750   7.052  0.6451 -0.1106 -0.3078
   43MOL   C20318767   2.579   2.598   7.042 -0.7125  0.0796 -0.6987
   43MOL   C20418768   2.638   2.537   6.915  0.0262  0.3875 -0.4252
   43MOL   C20518769   2.796   2.546   6.903  0.3861 -0.0240 -0.8115
   43MOL   C20618770   2.826   2.701   6.901 -0.4338 -0.4398 -0.2125
   43MOL   C20718771   2.734   3.021   7.025  0.1655  0.0470  0.1143
   43MOL   H20818772   2.913   2.930   6.960 -1.7561  0.6711  0.2029
   43MOL   H20918773   2.835   2.698   7.100  1.6037 -2.2032 -2.7071
   43MOL   H21018774   2.575   2.798   6.972 -2.2993 -1.7260  0.7361
   43MOL   H21118775   2.598   2.798   7.143 -2.1149 -0.7548 -0.9336
   43MOL   H21218776   2.611   2.537   7.126 -0.5469  0.9089 -0.1591
   43MOL   H21318777   2.470   2.588   7.042 -0.4737 -3.0097 -1.9345
   43MOL   H21418778   2.610   2.432   6.902  0.4090  0.3575 -1.0101
   43MOL   H21518779   2.599   2.596   6.832  1.7615  1.1529 -0.7179
   43MOL   H21618780   2.854   2.496   6.981 -0.6012 -0.9686 -0.6819
   43MOL   H21718781   2.824   2.504   6.807 -2.2137 -1.3023 -1.0379
   43MOL   H21818782   2.931   2.725   6.881  0.0695 -2.4625 -0.0731
   43MOL   H21918783   2.782   2.754   6.816  1.0125  1.4256  0.1554
   43MOL   H22018784   2.690   3.006   6.926 -0.0660  1.4637 -0.0127
   43MOL   H22118785   2.647   3.007   7.089  0.5574  0.8279  0.8280
   43MOL   C22218786   2.773   3.176   7.035  0.0145  0.0185  0.0324
   43MOL   C22318787   2.898   3.207   6.949  0.2125 -0.1345  0.0124
   43MOL   C22418788   2.944   3.351   6.965  0.1386  0.1534 -0.4877
   43MOL   C22518789   3.066   3.378   6.894 -0.1232  0.4773 -0.0386
   43MOL   C22618790   3.053   3.348   6.741 -0.4350  0.3828 -0.5389
   43MOL   C22718791   2.997   3.206   6.717  0.4061  0.0358  0.6336
   43MOL   C22818792   2.876   3.168   6.799 -0.1020  1.0611  0.0082
   43MOL   C22918793   2.648   3.267   7.000 -0.1347  0.6341  0.3901
   43MOL   H23018794   2.814   3.183   7.136 -3.0108 -1.0728  1.3821
   43MOL   H23118795   2.979   3.142   6.983  0.2730  0.9486  1.9902
   43MOL   H23218796   2.863   3.422   6.946  0.0159  0.8855  2.6059
   43MOL   H23318797   2.964   3.364   7.071 -0.1916  0.8683 -0.5104
   43MOL   H23418798   3.142   3.314   6.939 -1.1968  0.8440  2.3656
   43MOL   H23518799   3.099   3.481   6.909  1.8539  0.1058 -1.5754
   43MOL   H23618800   3.006   3.434   6.693  1.6602  2.0838  0.3877
   43MOL   H23718801   3.146   3.337   6.685  0.4379  1.3252  0.7162
   43MOL   H23818802   3.069   3.125   6.728 -0.6045 -1.2504 -1.8595
   43MOL   H23918803   2.959   3.214   6.615  0.8089  1.6658  0.5960
   43MOL   H24018804   2.787   3.221   6.764  0.9478  1.5166 -2.0851
   43MOL   H24118805   2.860   3.062   6.776 -0.1211  1.3294 -1.2412
   43MOL   H24218806   2.613   3.232   6.903  0.2728  2.2867 -0.3698
   43MOL   H24318807   2.677   3.372   6.987 -0.0515  0.6686  0.8191
   43MOL   C24418808   2.531   3.262   7.106  0.3750 -0.3366  0.1603
   43MOL   C24518809   2.389   3.321   7.058  0.0148  0.6353  0.3955
   43MOL   C24618810   2.313   3.212   6.977  0.3617  0.2166 -0.2834
   43MOL   C24718811   2.181   3.266   6.923  0.0432 -0.0641 -1.1760
   43MOL   C24818812   2.187   3.403   6.859  0.6397 -0.0687 -0.5590
   43MOL   C24918813   2.261   3.505   6.943 -0.0077  0.6317  0.2414
   43MOL   C25018814   2.403   3.457   6.984 -0.0080 -0.1002  0.3066
   43MOL   C25118815   2.572   3.343   7.230 -0.1764  0.6473 -0.5257
   43MOL   H25218816   2.527   3.155   7.129  1.1393 -0.0462  1.7253
   43MOL   H25318817   2.326   3.334   7.146 -0.4716  0.9695 -0.0020
   43MOL   H25418818   2.296   3.131   7.047  0.5498 -0.6147 -1.1919
   43MOL   H25518819   2.375   3.175   6.896 -1.6589 -1.2612 -1.1696
   43MOL   H25618820   2.152   3.185   6.856  2.2973 -0.6623 -1.4592
   43MOL   H25718821   2.105   3.263   7.001  0.6779  1.4490 -0.4870
   43MOL   H25818822   2.229   3.400   6.759 -2.0365  1.7200 -1.7832
   43MOL   H25918823   2.088   3.443   6.838  0.6970  0.8172  0.7847
   43MOL   H26018824   2.200   3.511   7.034  2.0285  0.0027  1.6904
   43MOL   H26118825   2.250   3.610   6.915 -1.3338 -0.0286 -1.8007
   43MOL   H26218826   2.471   3.443   6.899 -0.2271 -0.5068  0.1983
   43MOL   H26318827   2.445   3.536   7.046 -0.4899  0.6693 -0.3395
   43MOL   H26418828   2.556   3.449   7.216 -1.1889  0.5791  0.0662
   43MOL   H26518829   2.678   3.325   7.248 -0.3888 -0.2821 -0.1214
   43MOL   C26618830   2.503   3.315   7.366  0.0603  0.5375 -0.5006
   43MOL   C26718831   2.504   3.164   7.405  0.4082 -0.0438 -0.3320
   43MOL   C26818832   2.429   3.123   7.532 -0.2951 -0.3489  0.7214
   43MOL   C26918833   2.445   2.975   7.557  0.6434 -0.0651 -0.4499
   43MOL   C27018834   2.593   2.939   7.575 -1.2901 -0.0931 -0.3601
   43MOL   C27118835   2.668   2.968   7.451 -1.0087  0.4427 -0.2351
   43MOL   C27218836   2.650   3.112   7.410  0.1253  0.2479  0.1018
   43MOL   C27318837   2.555   3.410   7.481 -0.1273  0.3498  0.4250
   43MOL   H27418838   2.399   3.344   7.355  0.3764  1.6827 -0.5296
   43MOL   H27518839   2.453   3.108   7.326  2.4720 -0.4167 -1.4157
   43MOL   H27618840   2.477   3.161   7.622  2.4195 -0.2367 -0.7167
   43MOL   H27718841   2.321   3.137   7.538 -0.3303  0.3631 -1.2410
   43MOL   H27818842   2.414   2.921   7.467  0.5623 -2.4674  0.9736
   43MOL   H27918843   2.382   2.956   7.644 -2.1198  4.7286 -1.2133
   43MOL   H28018844   2.646   2.994   7.652 -0.8190 -2.1669  0.8474
   43MOL   H28118845   2.604   2.835   7.607  1.6527  0.4513  0.5693
   43MOL   H28218846   2.641   2.897   7.372  3.4442 -2.9088  1.1063
   43MOL   H28318847   2.771   2.947   7.480 -0.8389  2.4189  0.6326
   43MOL   H28418848   2.692   3.115   7.310 -5.1223  2.4067 -2.1809
   43MOL   H28518849   2.706   3.178   7.476 -0.1039 -1.8449  2.4712
   43MOL   H28618850   2.663   3.396   7.477 -0.4619 -3.0582  1.5877
   43MOL   H28718851   2.543   3.373   7.583 -1.4969  1.1048  0.5409
   43MOL   C28818852   2.512   3.562   7.475 -0.2817  0.4146  0.1151
   43MOL   C28918853   2.618   3.673   7.470  0.1413  1.0278  0.4120
   43MOL   C29018854   2.681   3.701   7.610  0.8250  0.4398  0.5312
   43MOL   C29118855   2.797   3.803   7.615  0.1731 -0.0857  0.4272
   43MOL   C29218856   2.901   3.769   7.505 -0.2802 -0.1926  0.0543
   43MOL   C29318857   2.839   3.756   7.363 -0.5207 -0.7665 -0.9248
   43MOL   C29418858   2.723   3.651   7.363 -0.6799  0.5566  0.4296
   43MOL   C29518859   2.393   3.587   7.574 -0.4128 -0.3486  0.1492
   43MOL   H29618860   2.470   3.571   7.375 -0.9598 -0.5406  0.3008
   43MOL   H29718861   2.568   3.764   7.438 -2.2023 -0.4639 -0.3185
   43MOL   H29818862   2.601   3.718   7.682 -0.1052  1.1131 -0.6312
   43MOL   H29918863   2.721   3.602   7.631  0.7448  0.0892 -0.9204
   43MOL   H30018864   2.754   3.901   7.593 -0.3764 -0.0664  1.5297
   43MOL   H30118865   2.840   3.811   7.715 -2.0332 -1.8582  1.5741
   43MOL   H30218866   2.955   3.676   7.523  0.5681  0.5891  1.6285
   43MOL   H30318867   2.985   3.838   7.494  0.5587 -1.1688  0.2888
   43MOL   H30418868   2.925   3.740   7.298  0.2132 -0.8778  0.0587
   43MOL   H30518869   2.795   3.850   7.330  0.9260  0.5090  0.6431
   43MOL   H30618870   2.763   3.550   7.362  0.0658  0.8483 -1.3826
   43MOL   H30718871   2.671   3.671   7.269  1.8743  0.5202 -1.0390
   43MOL   H30818872   2.309   3.519   7.562  0.3095 -0.9378 -1.7937
   43MOL   H30918873   2.425   3.557   7.673  1.4709 -2.5242 -1.0538
   43MOL   C31018874   2.328   3.732   7.574 -0.5672  0.1413  0.3182
   43MOL   C31118875   2.294   3.772   7.426 -0.1309 -0.6419 -0.2370
   43MOL   C31218876   2.191   3.678   7.358  0.6843  0.8078  0.2280
   43MOL   C31318877   2.167   3.734   7.214 -0.0329 -0.6858  0.2970
   43MOL   C31418878   2.125   3.881   7.207 -0.2592 -0.5837  0.1385
   43MOL   C31518879   2.234   3.972   7.267 -0.0172  0.8167  0.5694
   43MOL   C31618880   2.258   3.923   7.407  0.0752  0.2707  0.3474
   43MOL   C31718881   2.213   3.749   7.682 -0.1131  0.1191  0.0016
   43MOL   H31818882   2.407   3.798   7.611 -0.1696 -0.3279  0.3086
   43MOL   H31918883   2.382   3.763   7.363 -0.3688  1.6183 -0.9499
   43MOL   H32018884   2.216   3.572   7.365 -1.8881  0.0030 -1.9134
   43MOL   H32118885   2.108   3.682   7.428  1.4012  2.3392  1.0198
   43MOL   H32218886   2.089   3.679   7.161 -0.5540  1.4515 -1.2636
   43MOL   H32318887   2.262   3.718   7.162 -1.1201  0.6891 -2.1866
   43MOL   H32418888   2.100   3.905   7.103  0.5659  0.7079  0.2313
   43MOL   H32518889   2.035   3.908   7.261 -0.1425 -2.2742  1.2101
   43MOL   H32618890   2.329   3.964   7.215 -1.3393 -0.0804 -1.8243
   43MOL   H32718891   2.205   4.077   7.273 -1.5862  0.3838  0.9128
   43MOL   H32818892   2.166   3.944   7.461 -0.1087  0.5077 -0.0487
   43MOL   H32918893   2.327   3.991   7.456  2.6377 -1.7811 -0.3166
   43MOL   H33018894   2.151   3.659   7.679  2.4525 -1.7028 -1.3590
   43MOL   H33118895   2.152   3.834   7.654  0.1392 -0.0199 -1.0146
   43MOL   C33218896   2.253   3.770   0.053  0.0779  0.1459  0.3593
   43MOL   C33318897   2.140   3.742   0.163  0.3667  0.7590  0.9053
   43MOL   C33418898   2.109   3.595   0.186 -0.1822  0.2719  0.1182
   43MOL   C33518899   2.000   3.567   0.290 -0.6853 -0.1791  0.2320
   43MOL   C33618900   1.872   3.654   0.267  0.1859  0.3412 -0.4726
   43MOL   C33718901   1.909   3.802   0.256  0.3508  0.1697 -0.8062
   43MOL   C33818902   2.007   3.824   0.141  0.6435 -0.1259  0.1675
   43MOL   C33918903   2.312   3.913   0.072 -0.0398  0.2465  0.1578
   43MOL   H34018904   2.326   3.692   0.075 -0.6925 -0.7667 -0.3567
   43MOL   H34118905   2.191   3.772   0.254 -0.2946  1.4335  1.0542
   43MOL   H34218906   2.089   3.544   0.091 -0.2439 -0.0945  0.3258
   43MOL   H34318907   2.201   3.551   0.226 -1.0121 -2.2174 -0.5926
   43MOL   H34418908   1.982   3.459   0.287 -0.4605 -0.2229  0.4938
   43MOL   H34518909   2.048   3.585   0.386  0.9783 -1.6534 -0.3132
   43MOL   H34618910   1.818   3.630   0.175 -0.6455 -1.8564  0.5371
   43MOL   H34718911   1.797   3.640   0.344 -0.2010 -0.6625 -1.0158
   43MOL   H34818912   1.949   3.838   0.351 -0.2367 -1.4542  0.0770
   43MOL   H34918913   1.820   3.857   0.227 -1.0473 -2.3274 -1.3863
   43MOL   H35018914   2.027   3.931   0.143 -0.1467  0.0102  1.4159
   43MOL   H35118915   1.953   3.806   0.048 -0.7529 -0.3570  1.0056
   43MOL   H35218916   2.222   3.975   0.071 -1.2336 -1.4170  1.1305
   43MOL   H35318917   2.371   3.937   7.756 -0.7894 -1.2374 -0.7751
   43MOL   C35418918   2.402   3.941   0.200  0.5085 -1.3980  0.2276
   43MOL   C35518919   2.413   4.098   0.214  0.1484 -0.3525  0.5934
   43MOL   C35618920   2.278   4.169   0.255  0.0099  0.5203  0.1127
   43MOL   C35718921   2.306   4.322   0.263  0.8590 -0.1370 -0.8962
   43MOL   C35818922   2.349   4.378   0.124  0.5874  1.2509  0.5908
   43MOL   C35918923   2.484   4.309   0.076  0.7830 -0.6690 -0.2528
   43MOL   C36018924   2.473   4.156   0.084  0.2135 -0.3230 -1.0326
   43MOL   C36118925   2.532   3.874   0.208  0.3162  0.3915  0.1263
   43MOL   H36218926   2.339   3.905   0.282 -2.3364  2.1669 -0.3033
   43MOL   H36318927   2.487   4.125   0.290 -1.1937  3.7301  0.5578
   43MOL   H36418928   2.246   4.133   0.352  1.7362 -0.2480  0.4282
   43MOL   H36518929   2.202   4.154   0.179  2.1068 -2.5635 -1.5001
   43MOL   H36618930   2.226   4.381   0.308  0.0427 -1.2080 -0.9312
   43MOL   H36718931   2.390   4.342   0.330  0.6151 -0.8194 -0.3933
   43MOL   H36818932   2.272   4.365   0.048 -1.4451  0.6276  2.6848
   43MOL   H36918933   2.366   4.486   0.134  1.0086  1.3129 -0.7829
   43MOL   H37018934   2.512   4.352   7.753 -0.7666 -2.1596 -1.4197
   43MOL   H37118935   2.561   4.339   0.147 -1.6103  0.6297  1.9091
   43MOL   H37218936   2.572   4.124   0.052  1.0906 -1.3802  2.4593
   43MOL   H37318937   2.422   4.120   7.767  0.2229  1.2968 -1.6955
   43MOL   H37418938   2.590   3.918   0.127  0.0472  0.6415  0.0683
   43MOL   H37518939   2.514   3.770   0.183  0.0876 -0.4669  3.5612
   43MOL   C37618940   2.611   3.881   0.342 -0.2239 -0.2280 -0.8576
   43MOL   C37718941   2.516   3.830   0.460  0.5429  0.7349 -0.5852
   43MOL   C37818942   2.576   3.852   0.598  0.1663  0.7481  0.0042
   43MOL   C37918943   2.493   3.796   0.714  0.1133 -0.3650  0.4779
   43MOL   C38018944   2.462   3.650   0.687 -0.0413 -0.1024  0.0634
   43MOL   C38118945   2.395   3.623   0.550 -0.4190 -0.1625 -0.4453
   43MOL   C38218946   2.478   3.682   0.436  1.0773  0.4906  0.3267
   43MOL   C38318947   2.755   3.830   0.323  0.9334  0.4793  0.6353
   43MOL   H38418948   2.623   3.985   0.374  0.4043 -0.2755 -0.9507
   43MOL   H38518949   2.420   3.882   0.462 -0.9693 -1.9369 -0.9110
   43MOL   H38618950   2.671   3.800   0.607 -0.2848  0.2311  2.0404
   43MOL   H38718951   2.599   3.959   0.606  1.6060  0.4433  0.1398
   43MOL   H38818952   2.402   3.857   0.708  2.3938  3.0041 -1.5280
   43MOL   H38918953   2.540   3.811   0.811  3.5235  0.0931 -1.1824
   43MOL   H39018954   2.551   3.588   0.678  2.9661  4.0441  0.4640
   43MOL   H39118955   2.399   3.624   0.773  1.1868  0.5067  1.1637
   43MOL   H39218956   2.380   3.517   0.530  0.1499 -0.2574 -0.3701
   43MOL   H39318957   2.297   3.671   0.541 -0.5942 -0.7119 -1.6654
   43MOL   H39418958   2.563   3.617   0.414  1.0308  0.5807 -0.1264
   43MOL   H39518959   2.403   3.680   0.358  0.4795 -1.4216  0.9263
   43MOL   H39618960   2.784   3.831   0.217 -1.7043 -1.7187 -0.1508
   43MOL   H39718961   2.750   3.724   0.349  0.7561  0.3804  0.1998
   43MOL   C39818962   2.870   3.895   0.402 -0.3617  0.3193  0.4833
   43MOL   C39918963   3.002   3.810   0.385  0.9195  0.4224 -0.3628
   43MOL   C40018964   2.997   3.664   0.445 -0.2699 -0.1282  0.1958
   43MOL   C40118965   3.130   3.584   0.435 -0.5669  0.2263 -1.0140
   43MOL   C40218966   3.201   3.595   0.299 -0.1435  0.2076  0.4666
   43MOL   C40318967   3.205   3.738   0.249  0.7002 -0.9493 -0.3794
   43MOL   C40418968   3.067   3.808   0.245  0.3472  0.0170 -0.2946
   43MOL   C40518969   2.900   4.046   0.363 -0.0913  0.1337  0.3783
   43MOL   H40618970   2.849   3.883   0.509 -1.9033  0.4555  0.2133
   43MOL   H40718971   3.071   3.845   0.461 -1.6771 -0.2703  2.4239
   43MOL   H40818972   2.924   3.603   0.392 -1.0692  0.4720  0.5998
   43MOL   H40918973   2.975   3.664   0.552  0.9746  1.9641  0.4763
   43MOL   H41018974   3.102   3.480   0.452  0.5505 -0.0172 -0.6550
   43MOL   H41118975   3.196   3.624   0.511  2.0341 -2.8211 -1.5789
   43MOL   H41218976   3.156   3.532   0.223  3.2027  1.4211 -2.6839
   43MOL   H41318977   3.305   3.565   0.313 -0.0420  0.2283 -0.2071
   43MOL   H41418978   3.268   3.784   0.325  0.2295 -0.2259 -0.4238
   43MOL   H41518979   3.253   3.755   0.153  1.8021 -0.7536  0.1987
   43MOL   H41618980   3.085   3.912   0.217  2.1616 -0.5622 -1.3305
   43MOL   H41718981   3.007   3.761   0.167  0.3066 -3.1855  1.5910
   43MOL   H41818982   2.984   4.058   0.295 -0.6513  1.6256 -0.0733
   43MOL   H41918983   2.824   4.078   0.292 -1.8268  1.8792  2.9414
   43MOL   C42018984   2.905   4.150   0.480 -0.3033  0.3478  0.3259
   43MOL   C42118985   2.908   4.303   0.438 -0.1671 -0.2408 -0.3430
   43MOL   C42218986   2.935   4.415   0.542  0.7437 -0.3088  0.2051
   43MOL   C42318987   2.918   4.559   0.491  0.4517 -0.5491 -0.1705
   43MOL   C42418988   2.774   4.570   0.435  0.3874 -0.0203 -0.2416
   43MOL   C42518989   2.753   4.475   0.324  0.3218 -0.2179 -0.3082
   43MOL   C42618990   2.766   4.339   0.390  0.0939 -0.6477  0.1953
   43MOL   C42718991   3.013   4.125   0.579  0.3081 -0.3253 -0.4010
   43MOL   H42818992   2.813   4.144   0.538  0.7932  1.9727  2.2944
   43MOL   H42918993   2.979   4.316   0.357  2.2093  3.0175  2.1262
   43MOL   H43018994   2.864   4.396   0.623  0.0129 -0.5260 -0.4780
   43MOL   H43118995   3.034   4.401   0.585  1.4402  3.0998 -0.1210
   43MOL   H43218996   2.948   4.637   0.561 -1.1465 -0.4839  0.4680
   43MOL   H43318997   2.991   4.572   0.412  0.7436 -1.3937 -0.0406
   43MOL   H43418998   2.771   4.676   0.407  1.4646 -0.2575 -1.2854
   43MOL   H43518999   2.696   4.553   0.510 -0.2499 -0.4563 -0.9977
   43MOL   H43619000   2.830   4.489   0.248  4.0572 -1.3726  3.0822
   43MOL   H43719001   2.652   4.484   0.284 -0.2988  2.5534  1.7662
   43MOL   H43819002   2.694   4.323   0.471 -1.0656  4.2088  0.2444
   43MOL   H43919003   2.746   4.269   0.309 -0.9562 -0.2874  0.1392
   43MOL   H44019004   3.019   4.021   0.611 -0.3052  0.0877  1.0903
   43MOL   H44119005   3.109   4.153   0.535 -0.0459 -0.2686 -1.1338
   43MOL   H44219006   2.991   4.182   0.670  2.8402  1.3296 -0.7621
   44MOL     C119007   5.948   3.580   7.760  0.5183  0.3104  0.6031
   44MOL     C219008   5.841   3.467   0.009 -0.5146  0.2935 -0.1562
   44MOL     C319009   5.747   3.486   0.132  0.5950  0.5790  0.5049
   44MOL     C419010   5.637   3.370   0.133  0.2329 -0.1469  0.9043
   44MOL     C519011   5.710   3.236   0.135  0.3326  0.5467  0.0953
   44MOL     C619012   5.786   3.217   0.000  0.0305  0.3083 -0.5781
   44MOL     C719013   5.897   3.326   7.770  0.6317  0.3600 -0.3264
   44MOL     C819014   5.897   3.724   7.736 -0.3983  0.0813  0.1141
   44MOL     H919015   6.016   3.581   0.073  0.0589  0.9120  0.9621
   44MOL    H1019016   5.774   3.477   7.696 -1.0776  1.3250  0.3889
   44MOL    H1119017   5.812   3.475   0.218  0.7548  2.4152  0.6393
   44MOL    H1219018   5.696   3.583   0.138 -3.5310 -1.5139  1.4929
   44MOL    H1319019   5.582   3.386   0.040  0.8145  2.3184  0.9597
   44MOL    H1419020   5.586   3.378   0.229  1.6435  0.2811  1.6289
   44MOL    H1519021   5.623   3.170   0.128  0.8921  0.0138 -2.5732
   44MOL    H1619022   5.765   3.224   0.228 -1.5585 -3.0977  0.8462
   44MOL    H1719023   5.831   3.117   0.006  0.2255  0.3841 -0.7626
   44MOL    H1819024   5.725   3.238   7.685  0.2095  0.3325 -0.6973
   44MOL    H1919025   5.949   3.315   7.675 -0.2040 -1.7253 -0.5717
   44MOL    H2019026   5.969   3.311   0.078  0.3130 -0.0577 -0.1153
   44MOL    H2119027   5.825   3.747   0.042  0.2143  0.0765  0.6858
   44MOL    H2219028   5.847   3.716   7.639  0.7057 -0.2950 -0.4396
   44MOL    H2319029   6.007   3.557   7.672  1.2778 -2.4257  1.7639
   44MOL    C2419030   6.004   3.835   7.745  0.3043 -0.4054 -1.5449
   44MOL    C2519031   6.099   3.831   7.620  0.9696  0.1916 -0.1480
   44MOL    C2619032   6.223   3.907   7.648 -0.2957 -0.3140 -0.1759
   44MOL    C2719033   6.321   3.898   7.529  0.1882 -0.1816  0.3386
   44MOL    C2819034   6.269   3.932   7.388  0.0239  0.0427 -0.5787
   44MOL    C2919035   6.137   3.874   7.369 -0.3571  0.2448 -0.1872
   44MOL    C3019036   6.039   3.884   7.488 -0.3591  0.3114 -0.3240
   44MOL    C3119037   5.934   3.977   7.759 -0.1307 -0.3839 -0.2558
   44MOL    H3219038   6.066   3.816   0.060 -1.3910  0.7889 -0.0168
   44MOL    H3319039   6.128   3.727   7.606  1.3122  0.1507  0.8333
   44MOL    H3419040   6.275   3.854   7.726 -1.1830 -0.9206  0.0142
   44MOL    H3519041   6.203   4.012   7.671 -1.4686 -0.2062 -1.5730
   44MOL    H3619042   6.407   3.960   7.556  0.4435  0.6680 -2.2830
   44MOL    H3719043   6.357   3.796   7.516  1.7739  0.6497 -2.3118
   44MOL    H3819044   6.337   3.903   7.308  0.5019 -1.3122  0.3066
   44MOL    H3919045   6.258   4.041   7.384  0.5307  0.2202  1.8562
   44MOL    H4019046   6.087   3.910   7.279  1.0195 -0.3619 -1.2220
   44MOL    H4119047   6.144   3.767   7.349  0.6455  0.3122 -0.1814
   44MOL    H4219048   6.011   3.988   7.508 -1.6513  0.0164 -0.5486
   44MOL    H4319049   5.946   3.829   7.471 -0.6378  1.1809 -1.7248
   44MOL    H4419050   5.858   3.984   7.680 -0.3030  0.1397 -0.0456
   44MOL    H4519051   6.007   4.053   7.733  0.9573 -1.1675  0.4722
   44MOL    C4619052   5.863   4.013   0.120  0.3315 -0.0249  0.0060
   44MOL    C4719053   5.742   4.112   0.089  0.0836  0.0890  0.6352
   44MOL    C4819054   5.793   4.252   0.042 -0.0133 -0.6272  0.6584
   44MOL    C4919055   5.680   4.346   0.003 -1.1693  0.2835  0.2187
   44MOL    C5019056   5.587   4.349   0.122  0.3813 -0.4498 -0.1832
   44MOL    C5119057   5.532   4.224   0.176 -0.3349 -0.4234 -0.6310
   44MOL    C5219058   5.646   4.129   0.210 -0.1090 -0.2920 -0.1666
   44MOL    C5319059   5.969   4.068   0.221 -0.0639  0.2605 -1.0235
   44MOL    H5419060   5.825   3.920   0.163  1.2803  0.6866  2.4901
   44MOL    H5519061   5.683   4.061   0.013  2.5076 -0.7820 -0.7507
   44MOL    H5619062   5.861   4.290   0.118 -0.1419 -1.6498  1.2902
   44MOL    H5719063   5.850   4.236   7.722 -0.3363 -0.7401  0.4775
   44MOL    H5819064   5.621   4.298   7.697 -3.1694  1.4249  0.9927
   44MOL    H5919065   5.704   4.448   7.745  1.4281 -0.5521 -0.6679
   44MOL    H6019066   5.648   4.392   0.201  1.8982 -0.7571 -1.1624
   44MOL    H6119067   5.517   4.429   0.099  0.7677 -0.0752 -0.0798
   44MOL    H6219068   5.475   4.168   0.101 -0.0717 -0.0805 -1.0922
   44MOL    H6319069   5.478   4.251   0.267  0.4790 -0.7504 -0.0495
   44MOL    H6419070   5.696   4.178   0.294 -2.9775 -0.1025  1.5159
   44MOL    H6519071   5.616   4.033   0.252 -0.8439 -0.7900 -1.8019
   44MOL    H6619072   5.925   4.147   0.283  0.6015 -0.3902  0.2913
   44MOL    H6719073   6.040   4.130   0.167  0.4980  1.2016  0.7676
   44MOL    C6819074   6.043   3.959   0.307  0.2502  0.1103  0.0409
   44MOL    C6919075   6.195   3.950   0.273  0.3313  0.7356  0.0304
   44MOL    C7019076   6.283   4.064   0.338 -0.7120 -0.8292  0.5082
   44MOL    C7119077   6.429   4.049   0.283  0.2021  0.0846  0.1363
   44MOL    C7219078   6.486   3.914   0.318  0.3216 -0.4161 -0.5056
   44MOL    C7319079   6.396   3.799   0.264 -0.5766 -0.5308 -0.2112
   44MOL    C7419080   6.255   3.811   0.311 -0.1243  0.8180  0.0515
   44MOL    C7519081   6.030   3.986   0.463  0.0804 -0.2013 -0.3348
   44MOL    H7619082   5.993   3.863   0.294  1.3359 -0.3806 -0.5640
   44MOL    H7719083   6.211   3.961   0.165 -0.3911 -1.9605 -0.3782
   44MOL    H7819084   6.281   4.071   0.447 -1.0958  3.0723  0.3335
   44MOL    H7919085   6.238   4.159   0.309  1.7129 -0.1902 -1.3411
   44MOL    H8019086   6.432   4.057   0.175 -0.9858 -2.7950 -0.1346
   44MOL    H8119087   6.499   4.120   0.329  0.3544  0.8649 -1.2703
   44MOL    H8219088   6.496   3.918   0.427  3.3350  2.2166 -0.7732
   44MOL    H8319089   6.586   3.895   0.279  0.3525  1.3930 -1.3602
   44MOL    H8419090   6.447   3.712   0.307 -0.0605 -1.4958 -2.6617
   44MOL    H8519091   6.406   3.778   0.157  0.7320 -3.8688  0.4885
   44MOL    H8619092   6.243   3.805   0.419  0.5469 -0.4508  0.0555
   44MOL    H8719093   6.190   3.738   0.262  0.1840  1.7389 -1.8127
   44MOL    H8819094   6.111   3.931   0.510  0.8657  1.0830 -0.1566
   44MOL    H8919095   6.067   4.088   0.474  0.3020 -0.4309  1.1751
   44MOL    C9019096   5.898   3.959   0.535  0.1450  0.6793 -0.0581
   44MOL    C9119097   5.859   3.810   0.558 -0.1940  0.4314 -0.1544
   44MOL    C9219098   5.778   3.746   0.441 -0.0900 -0.3273  0.7096
   44MOL    C9319099   5.763   3.594   0.462 -0.2034 -0.5526 -0.2853
   44MOL    C9419100   5.896   3.524   0.487  0.2162  0.3125  0.3922
   44MOL    C9519101   5.962   3.569   0.620  0.1545 -0.3737  0.1081
   44MOL    C9619102   5.979   3.713   0.610  0.0146  0.0431 -0.7579
   44MOL    C9719103   5.889   4.032   0.669  0.2481 -0.0094 -0.0780
   44MOL    H9819104   5.825   3.995   0.463 -1.2470  0.8561  1.4438
   44MOL    H9919105   5.773   3.806   0.626 -0.4573  2.0291 -0.3623
   44MOL   H10019106   5.816   3.761   0.339 -3.2042  0.5701 -0.3624
   44MOL   H10119107   5.677   3.788   0.439 -0.2718 -0.7775  0.3082
   44MOL   H10219108   5.710   3.544   0.380  0.3186  1.8809 -2.1508
   44MOL   H10319109   5.702   3.592   0.553  0.4625 -0.0350  0.1710
   44MOL   H10419110   5.962   3.550   0.404 -0.5574  1.5034  0.1363
   44MOL   H10519111   5.876   3.417   0.491  1.5953  0.0932  2.1336
   44MOL   H10619112   5.894   3.559   0.705 -0.5123  0.5162 -0.3077
   44MOL   H10719113   6.057   3.521   0.644  0.1589  0.0241  0.8940
   44MOL   H10819114   6.005   3.755   0.707 -1.6523 -1.5046  0.3815
   44MOL   H10919115   6.063   3.728   0.541 -0.4331  2.3343 -0.8268
   44MOL   H11019116   5.941   3.973   0.744 -2.9866  1.0572  3.1312
   44MOL   H11119117   5.952   4.121   0.664  1.6933 -1.1067 -2.5506
   44MOL   C11219118   5.748   4.066   0.731  0.2510  0.9913 -0.3239
   44MOL   C11319119   5.686   4.182   0.660  0.5871  0.0360  0.2597
   44MOL   C11419120   5.759   4.319   0.677  0.3869  0.5402  0.5188
   44MOL   C11519121   5.689   4.429   0.608 -0.8744 -0.0088  0.6675
   44MOL   C11619122   5.536   4.442   0.636 -0.1510 -0.3292 -0.0403
   44MOL   C11719123   5.478   4.309   0.596  0.0821 -0.1183 -0.1876
   44MOL   C11819124   5.530   4.196   0.686  0.2305  0.0208  0.6992
   44MOL   C11919125   5.751   4.082   0.884 -0.6893  0.2111  0.0206
   44MOL   H12019126   5.680   3.983   0.710  0.0659  0.8876  0.6893
   44MOL   H12119127   5.706   4.172   0.553 -0.4771  0.0490  0.0576
   44MOL   H12219128   5.859   4.312   0.636 -0.3789 -3.4657 -0.8491
   44MOL   H12319129   5.777   4.341   0.783 -0.7238 -0.0704  0.8380
   44MOL   H12419130   5.750   4.517   0.627  1.4311 -1.4866  0.2836
   44MOL   H12519131   5.701   4.430   0.499 -0.9532  1.8204  0.6572
   44MOL   H12619132   5.510   4.459   0.740 -0.0759  1.7677 -0.3222
   44MOL   H12719133   5.494   4.523   0.576 -0.6450 -2.8786 -3.2874
   44MOL   H12819134   5.372   4.310   0.620  0.2828 -0.2989  0.7314
   44MOL   H12919135   5.488   4.293   0.488  2.8322 -0.1867  0.0524
   44MOL   H13019136   5.482   4.106   0.649  2.8460 -0.6453 -1.2617
   44MOL   H13119137   5.511   4.213   0.792 -0.1710  2.0322  0.3402
   44MOL   H13219138   5.691   4.165   0.918 -0.6258  0.0581  0.5111
   44MOL   H13319139   5.853   4.107   0.913 -1.4280  1.3653  1.6429
   44MOL   C13419140   5.706   3.947   0.946 -0.9598  0.4178 -0.3183
   44MOL   C13519141   5.557   3.930   0.959  0.3656 -0.5600  0.5214
   44MOL   C13619142   5.490   4.005   1.070  0.2849 -0.0824  1.2840
   44MOL   C13719143   5.337   4.011   1.050 -0.6485  0.0451  0.2515
   44MOL   C13819144   5.283   3.867   1.040  0.1790  0.0993  0.0133
   44MOL   C13919145   5.352   3.784   0.924 -0.3295 -0.4098 -0.0713
   44MOL   C14019146   5.507   3.786   0.943  0.1419 -0.2729 -0.4556
   44MOL   C14119147   5.785   3.927   1.083  0.3203 -0.1240 -0.4559
   44MOL   H14219148   5.734   3.868   0.878  0.5285  0.8331 -0.2006
   44MOL   H14319149   5.520   3.976   0.868  0.6667  1.2175  1.2800
   44MOL   H14419150   5.510   3.962   1.168 -2.4316  0.5916  2.1899
   44MOL   H14519151   5.536   4.103   1.082  0.3327 -0.1992  2.1241
   44MOL   H14619152   5.301   4.070   0.966 -0.7901 -1.1138 -0.5077
   44MOL   H14719153   5.298   4.050   1.144  0.0823 -0.9953  1.0027
   44MOL   H14819154   5.298   3.824   1.140 -0.5122  1.1260  0.5684
   44MOL   H14919155   5.175   3.867   1.025  0.0898 -1.6660  0.5177
   44MOL   H15019156   5.331   3.823   0.824  2.4068 -2.2694 -1.4476
   44MOL   H15119157   5.313   3.682   0.920  0.0899 -0.5345 -1.1072
   44MOL   H15219158   5.536   3.712   1.018  1.7088  0.1738 -0.6004
   44MOL   H15319159   5.562   3.750   0.856  0.8542 -0.8499  0.2313
   44MOL   H15419160   5.727   3.850   1.134  0.3007 -0.1360 -0.4973
   44MOL   H15519161   5.780   4.016   1.145  1.1225  0.7289 -1.5862
   44MOL   C15619162   5.930   3.880   1.072  0.2916  0.5607 -0.5498
   44MOL   C15719163   5.963   3.730   1.118  1.3698  1.0067  0.6103
   44MOL   C15819164   5.924   3.694   1.272 -0.3555 -0.0697  1.1336
   44MOL   C15919165   5.949   3.545   1.307  0.4067 -0.5004  0.5645
   44MOL   C16019166   5.899   3.444   1.204  0.8889  0.8748  0.3647
   44MOL   C16119167   5.926   3.493   1.058 -0.2035 -0.4704 -0.2765
   44MOL   C16219168   5.884   3.632   1.025 -0.3065  0.7522 -0.0097
   44MOL   C16319169   6.011   3.979   1.155 -0.5644  0.3742 -0.0944
   44MOL   H16419170   5.972   3.896   0.973  0.5422  2.7617 -0.1041
   44MOL   H16519171   6.069   3.721   1.096  0.4734 -0.6477 -3.6459
   44MOL   H16619172   5.976   3.765   1.337  1.0967  1.8787 -2.0439
   44MOL   H16719173   5.820   3.722   1.293 -0.4827  1.3226 -1.0979
   44MOL   H16819174   6.056   3.526   1.315  0.5558  0.3903  0.7494
   44MOL   H16919175   5.909   3.514   1.404 -1.1917  1.3752  0.5443
   44MOL   H17019176   5.794   3.420   1.221  1.0861  1.2100  2.2250
   44MOL   H17119177   5.942   3.345   1.223 -2.2227 -0.6627 -0.2740
   44MOL   H17219178   5.873   3.427   0.989  1.6346 -1.8278 -0.4085
   44MOL   H17319179   6.034   3.484   1.049 -0.3272 -1.7356 -0.4824
   44MOL   H17419180   5.898   3.649   0.919  0.9975  0.5435  0.1142
   44MOL   H17519181   5.778   3.654   1.026 -0.8481 -1.3012 -3.9104
   44MOL   H17619182   5.965   3.977   1.254 -0.5729 -1.1910 -0.1113
   44MOL   H17719183   5.987   4.078   1.117  0.3492  1.2607  1.5925
   44MOL   C17819184   6.160   3.966   1.167  0.0618  0.3981  0.7032
   44MOL   C17919185   6.244   3.990   1.032  1.1925 -1.0358  0.5757
   44MOL   C18019186   6.186   4.097   0.932 -0.1460 -0.2043  0.3493
   44MOL   C18119187   6.288   4.119   0.823  0.3352 -0.0588  0.0123
   44MOL   C18219188   6.320   3.988   0.741  0.2513  0.5167  0.2851
   44MOL   C18319189   6.365   3.879   0.836 -0.5108  1.0048  0.4070
   44MOL   C18419190   6.269   3.858   0.951  0.1951  0.4531 -0.0892
   44MOL   C18519191   6.200   4.063   1.276  0.3620  0.4593 -0.5982
   44MOL   H18619192   6.194   3.865   1.188 -0.1521 -0.9744 -4.7781
   44MOL   H18719193   6.348   4.017   1.053  1.1316  1.0882 -1.5187
   44MOL   H18819194   6.105   4.050   0.876 -0.0200 -1.9084  1.5335
   44MOL   H18919195   6.157   4.186   0.988 -0.6585  0.9030 -1.6226
   44MOL   H19019196   6.377   4.145   0.881  0.9692 -0.5609 -0.7278
   44MOL   H19119197   6.252   4.197   0.756 -0.3514 -0.3163  0.0858
   44MOL   H19219198   6.234   3.953   0.683  0.3270  0.8023 -0.0033
   44MOL   H19319199   6.385   4.003   0.654 -0.9832  1.1151 -0.5601
   44MOL   H19419200   6.464   3.895   0.879  1.0218  0.6543 -2.8412
   44MOL   H19519201   6.375   3.790   0.774  0.7404  0.8659  0.7917
   44MOL   H19619202   6.179   3.814   0.910  1.4647 -1.1552 -1.2281
   44MOL   H19719203   6.307   3.782   1.020  0.3584 -1.4602 -2.2396
   44MOL   H19819204   6.296   4.109   1.253  1.4119 -1.6736 -0.5986
   44MOL   H19919205   6.129   4.145   1.285  0.0954  0.2003 -0.3360
   44MOL   C20019206   6.209   3.997   1.421  0.3988  0.0420  0.0179
   44MOL   C20119207   6.353   3.938   1.436  0.4508  0.1178  0.8869
   44MOL   C20219208   6.448   4.041   1.498  0.0762  0.3988 -0.0021
   44MOL   C20319209   6.585   3.983   1.502 -0.1491 -0.0696 -0.8331
   44MOL   C20419210   6.594   3.852   1.586  0.2094  0.0667  0.2066
   44MOL   C20519211   6.495   3.748   1.535 -0.0965 -0.8679 -0.7816
   44MOL   C20619212   6.351   3.808   1.519  0.2615 -0.7221  0.1186
   44MOL   C20719213   6.170   4.088   1.535 -0.0252  0.4239 -0.0250
   44MOL   H20819214   6.132   3.920   1.417  0.9195 -0.4695 -0.2494
   44MOL   H20919215   6.392   3.900   1.341 -0.3448 -0.0471  0.6227
   44MOL   H21019216   6.425   4.076   1.599  0.3775  2.9673 -0.7982
   44MOL   H21119217   6.438   4.131   1.437 -1.5025 -1.0447 -1.9487
   44MOL   H21219218   6.619   3.961   1.401 -1.6326  0.8131 -1.5363
   44MOL   H21319219   6.653   4.059   1.541  0.7312 -1.7980  1.1095
   44MOL   H21419220   6.693   3.808   1.586  1.2678  2.3680 -1.2627
   44MOL   H21519221   6.561   3.873   1.688  1.4458  2.0875  0.2155
   44MOL   H21619222   6.536   3.699   1.447  1.4649  3.2857 -2.5214
   44MOL   H21719223   6.494   3.669   1.611  3.0837  0.6081  0.9011
   44MOL   H21819224   6.276   3.740   1.479 -0.2346 -0.5548  0.7455
   44MOL   H21919225   6.312   3.839   1.617  1.4011  2.0155 -0.2606
   44MOL   H22019226   6.201   4.029   1.621 -0.4131 -2.2610 -1.6761
   44MOL   H22119227   6.226   4.182   1.531  0.6429  0.1588  2.6033
   44MOL   C22219228   6.024   4.134   1.544  0.1142  0.3525  0.2200
   44MOL   C22319229   5.919   4.016   1.546  0.2552  0.0823  0.2427
   44MOL   C22419230   5.775   4.073   1.545 -0.3507  0.0260 -0.2918
   44MOL   C22519231   5.671   3.957   1.534  0.3357 -0.7175  0.4947
   44MOL   C22619232   5.702   3.850   1.639 -0.1899  0.4501 -0.5779
   44MOL   C22719233   5.839   3.796   1.622 -0.9049 -0.2090 -0.3906
   44MOL   C22819234   5.932   3.908   1.652 -0.1834 -0.5628 -0.4170
   44MOL   C22919235   5.989   4.234   1.655 -0.6152  0.6839  0.5127
   44MOL   H23019236   6.000   4.182   1.449 -1.8466  0.8497  0.9610
   44MOL   H23119237   5.918   3.977   1.444 -1.3439  1.1074 -0.1507
   44MOL   H23219238   5.741   4.126   1.634  0.4087  1.7619 -1.0202
   44MOL   H23319239   5.769   4.146   1.464  0.1738  0.2680 -0.1144
   44MOL   H23419240   5.655   3.921   1.432 -2.8108  1.2094  0.2155
   44MOL   H23519241   5.577   4.002   1.568 -0.5379 -0.6888 -1.8184
   44MOL   H23619242   5.681   3.878   1.742  2.3432 -1.0937  0.3986
   44MOL   H23719243   5.624   3.779   1.611  0.9531 -1.5175  1.1152
   44MOL   H23819244   5.861   3.743   1.530  0.9194 -0.7996  0.3697
   44MOL   H23919245   5.868   3.723   1.698 -0.5963  2.1983  1.8837
   44MOL   H24019246   5.914   3.954   1.749 -4.0943 -2.2027 -0.2754
   44MOL   H24119247   6.036   3.874   1.656  0.1346  0.2798 -1.0948
   44MOL   H24219248   5.957   4.171   1.738  1.3804 -0.9307  0.0866
   44MOL   H24319249   5.901   4.294   1.631 -0.3605  0.9598  0.2734
   44MOL   C24419250   6.100   4.325   1.713  0.2259  0.1541 -0.0241
   44MOL   C24519251   6.077   4.368   1.864  0.0753 -0.4652  0.3570
   44MOL   C24619252   6.091   4.249   1.958 -0.2120  0.2495  0.7116
   44MOL   C24719253   6.077   4.286   2.100  0.0054  0.6928 -0.1582
   44MOL   C24819254   5.952   4.368   2.125 -0.4918 -0.1964  0.5006
   44MOL   C24919255   5.937   4.486   2.032 -0.3997 -0.0451 -0.2013
   44MOL   C25019256   5.945   4.445   1.885  0.0472  0.3438 -0.0407
   44MOL   C25119257   6.136   4.446   1.623 -0.3568 -0.2380  0.8105
   44MOL   H25219258   6.197   4.275   1.711  0.8354  1.1942  1.9265
   44MOL   H25319259   6.155   4.437   1.897  1.0883 -1.2976 -0.2737
   44MOL   H25419260   6.185   4.196   1.945  0.0157  1.0458 -1.0572
   44MOL   H25519261   6.021   4.167   1.942  0.8654 -0.3895 -0.8754
   44MOL   H25619262   6.074   4.199   2.165 -1.0774 -0.0994 -1.2763
   44MOL   H25719263   6.161   4.345   2.138 -0.4056  1.5267 -0.5291
   44MOL   H25819264   5.863   4.304   2.121 -0.7327  0.2036 -1.6450
   44MOL   H25919265   5.952   4.406   2.227 -1.4414  0.5470  0.2318
   44MOL   H26019266   6.023   4.550   2.052 -0.4578 -0.7182  2.2891
   44MOL   H26119267   5.844   4.540   2.048 -1.0242 -0.5349 -1.9679
   44MOL   H26219268   5.857   4.383   1.866 -1.6123  2.1577  1.4657
   44MOL   H26319269   5.937   4.533   1.821  0.6771  2.3676  2.5550
   44MOL   H26419270   6.094   4.538   1.663  1.8977  0.7037  1.0755
   44MOL   H26519271   6.078   4.430   1.533 -1.5079 -2.5822  1.8986
   44MOL   C26619272   6.286   4.468   1.584  0.6984  0.0443 -0.7897
   44MOL   C26719273   6.291   4.534   1.441  0.0554  0.4912 -0.1717
   44MOL   C26819274   6.202   4.664   1.426  0.4921  0.2363  0.1954
   44MOL   C26919275   6.199   4.715   1.280  0.0855  0.1246  0.6924
   44MOL   C27019276   6.156   4.602   1.182  0.2793  0.2894 -0.0637
   44MOL   C27119277   6.259   4.492   1.185  0.0183  0.3857  0.7319
   44MOL   C27219278   6.274   4.430   1.322  0.1805 -0.3998 -0.3688
   44MOL   C27319279   6.361   4.554   1.698 -0.1187  0.0326  0.7960
   44MOL   H27419280   6.350   4.380   1.574  2.6241  1.3497 -0.2651
   44MOL   H27519281   6.395   4.561   1.427 -0.1003  1.1579 -0.0710
   44MOL   H27619282   6.101   4.643   1.461  0.7219  1.2256  1.5007
   44MOL   H27719283   6.240   4.742   1.492  2.9438  0.6624 -1.6641
   44MOL   H27819284   6.299   4.743   1.247  0.4396 -2.4337 -0.5450
   44MOL   H27919285   6.128   4.796   1.267 -0.5896 -0.5565  0.1060
   44MOL   H28019286   6.055   4.564   1.196 -0.1032  1.4277  0.2923
   44MOL   H28119287   6.142   4.644   1.083 -1.4490  0.6360  0.3140
   44MOL   H28219288   6.357   4.531   1.160 -0.8276  3.4248  1.9568
   44MOL   H28319289   6.239   4.411   1.115  0.8215  1.5810 -0.9176
   44MOL   H28419290   6.353   4.355   1.328  0.7646  0.1464 -1.1868
   44MOL   H28519291   6.178   4.379   1.336 -0.3274  1.0076  1.4955
   44MOL   H28619292   6.327   4.509   1.792 -2.4866  0.3413  0.1094
   44MOL   H28719293   6.321   4.656   1.699 -1.1438 -0.3538 -0.3395
   44MOL   C28819294   6.512   4.550   1.682  0.2624  0.5562  0.1799
   44MOL   C28919295   6.589   4.519   1.815 -0.0802 -0.0853 -0.2275
   44MOL   C29019296   6.576   4.604   1.942 -0.5129  0.6902 -0.1733
   44MOL   C29119297   6.657   4.552   2.058 -0.3249 -0.4157  0.4203
   44MOL   C29219298   6.650   4.400   2.082 -0.2894  0.4802  0.1688
   44MOL   C29319299   6.663   4.320   1.954  0.1067  0.4953 -0.3688
   44MOL   C29419300   6.567   4.371   1.848 -0.8852 -0.0122  0.3585
   44MOL   C29519301   6.564   4.673   1.607  0.3410 -0.4156 -0.0790
   44MOL   H29619302   6.526   4.471   1.609  0.7822 -0.4127  1.3166
   44MOL   H29719303   6.696   4.530   1.795 -0.7744  1.7235 -3.1824
   44MOL   H29819304   6.610   4.707   1.932  1.2325 -0.0073 -1.7264
   44MOL   H29919305   6.472   4.606   1.977 -0.2896  3.3960  0.4738
   44MOL   H30019306   6.758   4.588   2.035 -1.3602  0.0869 -3.7097
   44MOL   H30119307   6.626   4.594   2.154 -0.6974  1.8978 -0.6859
   44MOL   H30219308   6.551   4.380   2.123 -0.6907 -1.2100 -1.5923
   44MOL   H30319309   6.725   4.371   2.156  0.9547  4.1486  0.4828
   44MOL   H30419310   6.642   4.215   1.971  2.4744  0.0500  0.0319
   44MOL   H30519311   6.765   4.303   1.919  0.4090  2.3812 -0.4614
   44MOL   H30619312   6.469   4.356   1.895  0.1003  1.0204  2.8643
   44MOL   H30719313   6.576   4.306   1.761  0.8805  2.2060 -1.1590
   44MOL   H30819314   6.501   4.700   1.522  2.1718 -0.3291 -1.4406
   44MOL   H30919315   6.537   4.763   1.662  1.4340  1.2195 -2.1410
   44MOL   C31019316   6.712   4.689   1.567 -0.6325 -0.0301 -0.0165
   44MOL   C31119317   6.750   4.637   1.426  0.0401  0.3247 -0.5445
   44MOL   C31219318   6.698   4.499   1.402  0.1278 -0.1255  1.3131
   44MOL   C31319319   6.738   4.444   1.266  0.3425  0.0319  0.2476
   44MOL   C31419320   6.699   4.539   1.150  0.0789 -0.3055  0.6153
   44MOL   C31519321   6.741   4.682   1.180  0.1641 -0.9316  0.4082
   44MOL   C31619322   6.697   4.733   1.319 -0.4450 -0.3011  0.2025
   44MOL   C31719323   6.771   4.818   1.612  0.0231  0.1284  0.0587
   44MOL   H31819324   6.758   4.605   1.620  1.5853  0.2002 -1.5273
   44MOL   H31919325   6.859   4.629   1.431 -0.0217  0.2439  0.9568
   44MOL   H32019326   6.726   4.422   1.474 -1.1194  0.1775  2.1415
   44MOL   H32119327   6.589   4.491   1.398  0.2368 -1.4107  0.2065
   44MOL   H32219328   6.703   4.343   1.243  1.9098 -0.7062  1.0016
   44MOL   H32319329   6.846   4.433   1.254  0.4072 -0.3657  1.1078
   44MOL   H32419330   6.751   4.517   1.057  0.0191 -0.2534  0.5695
   44MOL   H32519331   6.597   4.532   1.113  0.5467  2.4016 -1.3901
   44MOL   H32619332   6.850   4.687   1.176  0.0613  0.3169 -1.4487
   44MOL   H32719333   6.711   4.734   1.089  1.3011  0.1922  0.6587
   44MOL   H32819334   6.591   4.754   1.331  0.1156  1.6698  2.1977
   44MOL   H32919335   6.741   4.830   1.344  1.7125 -1.1797 -0.0196
   44MOL   H33019336   6.753   4.835   1.718  1.7882  0.0045  0.3843
   44MOL   H33119337   6.714   4.897   1.562  1.7379  0.6424 -1.1099
   44MOL   C33219338   6.927   4.835   1.596  0.4609 -0.7413 -0.5281
   44MOL   C33319339   7.012   4.724   1.650 -0.1727  0.3185 -0.1020
   44MOL   C33419340   6.993   4.703   1.801 -0.6976 -0.2569  0.6608
   44MOL   C33519341   7.070   4.583   1.856 -0.0436 -0.1895 -0.1900
   44MOL   C33619342   7.222   4.575   1.813  0.6565 -0.4355 -0.1207
   44MOL   C33719343   7.250   4.607   1.665 -0.1444  0.0062 -0.0672
   44MOL   C33819344   7.167   4.737   1.626 -0.1397  0.5774 -0.5147
   44MOL   C33919345   6.971   4.971   1.660 -0.6310 -0.9834 -0.3763
   44MOL   H34019346   6.952   4.840   1.490 -0.5057 -1.9008 -0.8303
   44MOL   H34119347   6.983   4.634   1.597  2.1966 -0.8786  0.5662
   44MOL   H34219348   6.999   4.793   1.862 -0.1566 -0.4289  0.8642
   44MOL   H34319349   6.892   4.668   1.820 -1.2050  0.8336 -0.0020
   44MOL   H34419350   7.064   4.567   1.964  0.8083 -1.1656 -0.2789
   44MOL   H34519351   7.018   4.492   1.827  0.3400  0.2970 -2.5494
   44MOL   H34619352   7.271   4.653   1.871 -1.2283  0.6362  0.0988
   44MOL   H34719353   7.273   4.482   1.838  1.7991 -0.8283 -3.7280
   44MOL   H34819354   7.207   4.529   1.603  0.5050 -0.2294 -0.2215
   44MOL   H34919355   7.353   4.627   1.639 -0.5436 -0.6763 -2.2538
   44MOL   H35019356   7.186   4.768   1.523  1.0122 -1.7187 -1.0405
   44MOL   H35119357   7.219   4.819   1.675 -0.3036 -0.4902  1.4954
   44MOL   H35219358   7.079   4.967   1.677 -0.2650  0.0365 -2.3806
   44MOL   H35319359   6.919   4.983   1.755 -2.6405  3.4172 -1.9202
   44MOL   C35419360   6.938   5.105   1.588  0.9984 -0.0708  0.7031
   44MOL   C35519361   7.039   5.157   1.477 -0.6266 -0.4226 -0.1137
   44MOL   C35619362   7.073   5.050   1.383  0.6848  0.5163 -0.1216
   44MOL   C35719363   7.172   5.100   1.274 -0.3417  0.5397 -0.1629
   44MOL   C35819364   7.308   5.150   1.342 -0.3588  0.4358  0.2521
   44MOL   C35919365   7.281   5.249   1.449  0.0526  0.1037  0.1471
   44MOL   C36019366   7.173   5.202   1.547 -0.4471 -0.0311 -0.3024
   44MOL   C36119367   6.906   5.225   1.686  0.0834  0.2971  0.4317
   44MOL   H36219368   6.843   5.080   1.542  1.6397 -3.3261  1.0105
   44MOL   H36319369   7.000   5.249   1.433  0.4769 -0.1435 -0.5326
   44MOL   H36419370   6.980   5.023   1.334  0.5120 -2.3176  1.6366
   44MOL   H36519371   7.119   4.957   1.418 -1.4257  0.2144  1.9239
   44MOL   H36619372   7.193   5.024   1.199  0.7035 -1.2087  1.8578
   44MOL   H36719373   7.123   5.177   1.215  0.6093  2.0573  0.9977
   44MOL   H36819374   7.353   5.064   1.393 -0.2930  0.1631 -0.2548
   44MOL   H36919375   7.379   5.199   1.275  2.1547 -1.9290  1.0876
   44MOL   H37019376   7.377   5.268   1.498  1.4428 -1.1446 -2.0125
   44MOL   H37119377   7.272   5.353   1.416 -1.3727 -0.0173  0.1213
   44MOL   H37219378   7.159   5.289   1.612 -2.0747 -0.4898 -0.0102
   44MOL   H37319379   7.213   5.120   1.607  1.5423  0.9512 -0.2681
   44MOL   H37419380   6.906   5.321   1.634 -1.6260  0.0167 -0.1133
   44MOL   H37519381   6.997   5.234   1.745  0.6824 -0.6147 -0.3334
   44MOL   C37619382   6.768   5.236   1.768 -0.2650  0.2580 -0.3485
   44MOL   C37719383   6.754   5.374   1.838 -0.4883 -0.1702 -0.0552
   44MOL   C37819384   6.722   5.487   1.741 -0.0502 -0.9288  0.7314
   44MOL   C37919385   6.711   5.628   1.797  0.2087 -0.4973  0.5583
   44MOL   C38019386   6.828   5.648   1.895 -0.0668 -0.0381  0.4722
   44MOL   C38119387   6.847   5.540   2.002 -0.1145 -0.2680  0.3492
   44MOL   C38219388   6.868   5.406   1.938 -0.6423  0.3942 -0.3910
   44MOL   C38319389   6.646   5.202   1.681  0.3436 -0.3934  0.1762
   44MOL   H38419390   6.774   5.160   1.846  0.9777  3.0181  2.3516
   44MOL   H38519391   6.668   5.371   1.905 -0.7264  3.1825 -0.1192
   44MOL   H38619392   6.796   5.490   1.661  0.5003 -0.1634  1.2623
   44MOL   H38719393   6.632   5.460   1.685 -0.4886 -1.4723  1.6932
   44MOL   H38819394   6.618   5.655   1.847 -0.0626  3.1695 -1.7421
   44MOL   H38919395   6.713   5.701   1.716 -2.2568 -0.5656  0.4066
   44MOL   H39019396   6.926   5.664   1.850  0.2034  3.1388  2.0346
   44MOL   H39119397   6.808   5.740   1.950  1.1380  1.0468 -0.8677
   44MOL   H39219398   6.937   5.567   2.057 -1.3082  3.1572  0.7544
   44MOL   H39319399   6.769   5.546   2.077 -0.4375 -0.3365  0.0213
   44MOL   H39419400   6.960   5.415   1.881 -0.3453 -0.4829 -0.0491
   44MOL   H39519401   6.872   5.330   2.016 -4.0219  1.9098  1.3808
   44MOL   H39619402   6.669   5.101   1.648  2.3127 -0.4572  1.6940
   44MOL   H39719403   6.650   5.263   1.591 -4.1590 -1.2960 -0.8006
   44MOL   C39819404   6.503   5.187   1.738  0.3262  0.0541 -0.5751
   44MOL   C39919405   6.391   5.182   1.625  0.5371 -0.1851  0.7475
   44MOL   C40019406   6.375   5.307   1.532  0.0301  0.7466  0.1131
   44MOL   C40119407   6.267   5.296   1.421  0.5288  0.1516  0.2677
   44MOL   C40219408   6.288   5.167   1.343 -0.3325 -0.1656 -0.3214
   44MOL   C40319409   6.289   5.044   1.440  0.8274 -0.2080  0.2593
   44MOL   C40419410   6.405   5.060   1.537  0.2069 -0.0530 -0.3783
   44MOL   C40519411   6.502   5.057   1.830 -0.0197  0.0523 -0.2770
   44MOL   H40619412   6.493   5.275   1.801  0.1441  0.9968 -1.8965
   44MOL   H40719413   6.294   5.158   1.670  0.0015  0.7852  0.1467
   44MOL   H40819414   6.462   5.324   1.468  0.1519  0.6306  0.2486
   44MOL   H40919415   6.359   5.397   1.591 -0.1230  0.9776 -0.2822
   44MOL   H41019416   6.285   5.386   1.362  0.7790 -0.6449 -0.9012
   44MOL   H41119417   6.166   5.305   1.461  1.2750  1.8712  1.8489
   44MOL   H41219418   6.391   5.161   1.307  0.0414  0.8803  0.5578
   44MOL   H41319419   6.212   5.151   1.267  0.3804 -0.9438 -0.8844
   44MOL   H41419420   6.188   5.042   1.482 -0.6018  0.3588 -2.9439
   44MOL   H41519421   6.296   4.948   1.389  0.8109 -0.4880  0.7791
   44MOL   H41619422   6.411   4.969   1.598  1.5039  0.5359  0.4012
   44MOL   H41719423   6.492   5.057   1.471 -1.0302 -1.0605 -2.0083
   44MOL   H41819424   6.515   4.969   1.767 -0.4795 -0.7060  0.6721
   44MOL   H41919425   6.590   5.043   1.893 -0.2164 -2.2613 -0.4758
   44MOL   C42019426   6.370   5.047   1.914 -0.0014  0.0237  0.0361
   44MOL   C42119427   6.372   5.161   2.024  0.0365  0.5990 -0.3827
   44MOL   C42219428   6.388   5.108   2.166  0.6387  0.5807 -0.1564
   44MOL   C42319429   6.408   5.227   2.263 -0.3999 -0.0811 -0.3130
   44MOL   C42419430   6.288   5.326   2.250  0.3728 -0.6581 -1.0270
   44MOL   C42519431   6.275   5.375   2.109 -0.2791  0.4014 -0.1431
   44MOL   C42619432   6.254   5.255   2.014  0.0954 -0.3144 -0.2353
   44MOL   C42719433   6.344   4.894   1.962 -0.0419 -0.3184 -0.0584
   44MOL   H42819434   6.276   5.062   1.861 -0.1189  1.8900  0.7122
   44MOL   H42919435   6.463   5.219   2.009 -0.2620  1.4777  1.1241
   44MOL   H43019436   6.297   5.061   2.204  0.7090  1.4160  1.0751
   44MOL   H43119437   6.460   5.030   2.190 -1.7309 -2.0066 -1.1053
   44MOL   H43219438   6.416   5.200   2.368 -0.8739  1.1631  0.0635
   44MOL   H43319439   6.502   5.271   2.231 -0.1208 -1.2358 -1.1151
   44MOL   H43419440   6.291   5.410   2.319 -0.6631 -0.6684 -0.9474
   44MOL   H43519441   6.198   5.274   2.282  0.1951 -0.7850 -1.7197
   44MOL   H43619442   6.355   5.436   2.068 -0.3002  0.1313 -0.5944
   44MOL   H43719443   6.196   5.450   2.107  0.8306  1.5420 -1.2915
   44MOL   H43819444   6.164   5.204   2.046  1.4838 -2.6653  0.0569
   44MOL   H43919445   6.232   5.292   1.914 -1.9868  1.7987  0.9589
   44MOL   H44019446   6.433   4.849   2.006  0.1652 -1.7059 -1.8505
   44MOL   H44119447   6.265   4.886   2.037  1.6820 -0.0645  1.8400
   44MOL   H44219448   6.308   4.822   1.888  0.3656  0.5331 -1.1003
   45MOL     C119449   5.155   4.156   4.974 -0.7946  0.4985  0.0589
   45MOL     C219450   5.018   4.126   4.912 -0.3251  0.4923 -0.4011
   45MOL     C319451   4.932   4.248   4.877  0.7504 -0.0114 -0.1122
   45MOL     C419452   4.789   4.211   4.834  0.2028  0.0069 -0.7704
   45MOL     C519453   4.718   4.114   4.933  0.3048  0.1265 -0.0416
   45MOL     C619454   4.806   3.987   4.961  0.2570  0.0218 -0.0657
   45MOL     C719455   4.944   4.032   5.014  0.6431 -0.3788 -0.4789
   45MOL     C819456   5.251   4.196   4.861  0.6703  0.1252  0.4491
   45MOL     H919457   5.153   4.227   5.057 -2.7543  2.6800 -1.8013
   45MOL    H1019458   5.031   4.070   4.819 -1.1148 -1.2334  0.5015
   45MOL    H1119459   4.928   4.321   4.958  1.2939  0.4726 -0.5121
   45MOL    H1219460   4.980   4.306   4.798 -0.5919  0.0921 -0.8661
   45MOL    H1319461   4.789   4.168   4.734 -1.6174  1.5898 -1.4928
   45MOL    H1419462   4.727   4.301   4.830  0.7871  0.4092 -0.7455
   45MOL    H1519463   4.636   4.069   4.877  0.2805 -0.2969  0.3362
   45MOL    H1619464   4.689   4.162   5.026 -1.9493 -1.4867  0.1275
   45MOL    H1719465   4.760   3.929   5.041  1.0943  0.7662  0.9686
   45MOL    H1819466   4.816   3.926   4.871 -3.3713 -0.6304 -0.0779
   45MOL    H1919467   5.006   3.944   5.022 -0.4133 -1.2305 -1.5611
   45MOL    H2019468   4.934   4.080   5.112  0.0125 -2.8390  0.7014
   45MOL    H2119469   5.214   4.288   4.815 -0.5926  0.1594  1.4939
   45MOL    H2219470   5.253   4.113   4.791  1.3798  1.6219 -1.3594
   45MOL    H2319471   5.188   4.061   5.017  1.8657  1.5379  0.4572
   45MOL    C2419472   5.396   4.211   4.914 -0.0376  0.1544  0.1378
   45MOL    C2519473   5.512   4.171   4.805 -0.2984 -0.1688 -0.5345
   45MOL    C2619474   5.498   4.232   4.664  0.1660  0.1787 -1.0167
   45MOL    C2719475   5.625   4.207   4.582  0.7016 -0.6125  0.1491
   45MOL    C2819476   5.666   4.059   4.577 -0.4285 -0.3431  0.1906
   45MOL    C2919477   5.649   3.977   4.705  0.3582  0.2337 -0.0865
   45MOL    C3019478   5.524   4.020   4.794  0.3102 -0.3504  0.7583
   45MOL    C3119479   5.422   4.355   4.963  0.2070 -0.4981  0.0709
   45MOL    H3219480   5.401   4.141   4.998  1.7016  0.4104  0.2702
   45MOL    H3319481   5.607   4.190   4.856 -1.0869 -0.5533  1.1403
   45MOL    H3419482   5.487   4.340   4.676  0.8472  0.2798 -1.3193
   45MOL    H3519483   5.410   4.198   4.609  0.9761 -1.4513 -1.3478
   45MOL    H3619484   5.628   4.250   4.482 -0.1839 -1.1363 -0.1131
   45MOL    H3719485   5.709   4.254   4.632  2.3776 -0.3487 -2.7982
   45MOL    H3819486   5.767   4.055   4.537 -0.4405  2.1432 -0.1580
   45MOL    H3919487   5.599   4.016   4.502 -2.6031  2.0041  0.7147
   45MOL    H4019488   5.636   3.874   4.672  0.6129  0.2147 -0.1338
   45MOL    H4119489   5.739   3.972   4.767  0.1474  3.0436  0.4898
   45MOL    H4219490   5.435   3.977   4.748  0.2293 -1.5070  1.9777
   45MOL    H4319491   5.538   3.965   4.887 -1.1643 -1.5576  0.2840
   45MOL    H4419492   5.339   4.386   5.028  0.7175 -2.2209  1.5795
   45MOL    H4519493   5.413   4.427   4.882 -2.4399 -1.7899 -0.8506
   45MOL    C4619494   5.546   4.379   5.052 -0.2261  0.2135 -0.4784
   45MOL    C4719495   5.563   4.279   5.170  0.5240  0.1514 -0.2891
   45MOL    C4819496   5.438   4.266   5.269  0.6881 -0.6429  0.5204
   45MOL    C4919497   5.467   4.156   5.377 -0.1938  0.0827  0.4813
   45MOL    C5019498   5.593   4.196   5.464 -0.1113 -0.6755  0.4211
   45MOL    C5119499   5.722   4.226   5.384  0.0645  0.1585  0.7627
   45MOL    C5219500   5.687   4.314   5.261 -0.3569 -0.4782 -0.4085
   45MOL    C5319501   5.552   4.534   5.086  0.0095  0.3601 -0.5594
   45MOL    H5419502   5.632   4.366   4.987 -0.7850  1.0193 -1.4024
   45MOL    H5519503   5.583   4.181   5.127 -1.2603 -0.3904  0.0591
   45MOL    H5619504   5.431   4.362   5.320  0.1997  0.2341 -1.1996
   45MOL    H5719505   5.337   4.250   5.233  0.5686  0.2478  0.4576
   45MOL    H5819506   5.475   4.059   5.329 -2.1606  0.1482 -0.0155
   45MOL    H5919507   5.381   4.135   5.440 -2.0370 -1.8152 -2.6031
   45MOL    H6019508   5.575   4.278   5.534 -0.6066 -0.0550 -0.4198
   45MOL    H6119509   5.615   4.118   5.537  1.2126 -0.3606  0.3731
   45MOL    H6219510   5.769   4.133   5.353  0.1926  0.7638 -0.9237
   45MOL    H6319511   5.791   4.273   5.454  0.7525  0.0208  0.1770
   45MOL    H6419512   5.683   4.415   5.301  0.2288 -0.5186 -0.2408
   45MOL    H6519513   5.776   4.315   5.199 -0.7429 -0.0259 -0.9477
   45MOL    H6619514   5.640   4.552   5.147  0.0149  0.8056 -0.6995
   45MOL    H6719515   5.467   4.551   5.152  1.4990  0.7523  1.3112
   45MOL    C6819516   5.554   4.643   4.976 -0.1817  0.6334 -0.0489
   45MOL    C6919517   5.576   4.788   5.028  0.2817  1.2245  0.2522
   45MOL    C7019518   5.476   4.832   5.136  0.6353 -0.1056  0.0242
   45MOL    C7119519   5.489   4.982   5.187  0.2438 -0.1665  0.2232
   45MOL    C7219520   5.626   5.010   5.227  0.1791  0.0927 -0.4753
   45MOL    C7319521   5.725   4.971   5.109  0.3616 -0.3153  0.2039
   45MOL    C7419522   5.720   4.823   5.070 -0.4951  0.5943 -0.1475
   45MOL    C7519523   5.653   4.614   4.857  0.2208 -0.0600  0.0422
   45MOL    H7619524   5.460   4.643   4.921  0.0341  0.5154 -0.4221
   45MOL    H7719525   5.555   4.854   4.944 -0.0584  0.2576 -0.4328
   45MOL    H7819526   5.509   4.774   5.223  4.2064  0.9347 -0.5466
   45MOL    H7919527   5.377   4.801   5.104  0.2300  0.7339  0.4495
   45MOL    H8019528   5.460   5.054   5.111 -1.4129 -0.3015  0.7074
   45MOL    H8119529   5.412   4.992   5.264 -1.4359 -0.7660 -1.3482
   45MOL    H8219530   5.651   4.957   5.319 -1.5710  1.5015  0.8540
   45MOL    H8319531   5.613   5.112   5.263 -0.1229 -0.6115  1.5019
   45MOL    H8419532   5.818   5.018   5.140  0.6105 -0.1844 -0.7453
   45MOL    H8519533   5.714   5.035   5.022 -0.8469 -0.5644  0.1595
   45MOL    H8619534   5.747   4.777   5.165 -2.5080 -0.4233 -0.0250
   45MOL    H8719535   5.802   4.815   4.999 -1.1695  0.3058 -0.9019
   45MOL    H8819536   5.748   4.616   4.911 -0.3836 -0.6927  1.1465
   45MOL    H8919537   5.649   4.513   4.815 -0.6190  0.5292 -1.3365
   45MOL    C9019538   5.646   4.700   4.729  0.3620  0.4347  0.0371
   45MOL    C9119539   5.775   4.702   4.643  0.1334  0.0868  0.7792
   45MOL    C9219540   5.888   4.779   4.712 -0.8710 -0.2354 -0.0862
   45MOL    C9319541   6.026   4.777   4.640 -0.0669  0.1350  0.1754
   45MOL    C9419542   6.060   4.626   4.596 -0.3425  0.0373 -0.0353
   45MOL    C9519543   5.954   4.554   4.519  0.0304  0.0987 -0.2365
   45MOL    C9619544   5.825   4.557   4.603 -0.2529 -0.2197 -0.6378
   45MOL    C9719545   5.521   4.677   4.640 -0.4460  0.3107 -0.3336
   45MOL    H9819546   5.639   4.803   4.766 -1.8239  0.0818  0.7049
   45MOL    H9919547   5.770   4.758   4.550  1.9797 -1.2277 -0.1253
   45MOL   H10019548   5.913   4.755   4.816 -0.3089 -3.3089 -0.9082
   45MOL   H10119549   5.857   4.884   4.719  0.1104  0.0660 -0.2757
   45MOL   H10219550   6.105   4.819   4.702  0.4731  0.7176 -0.8856
   45MOL   H10319551   6.012   4.839   4.550  0.9585 -0.6810 -0.5623
   45MOL   H10419552   6.074   4.568   4.687  0.0033  0.3869  0.1319
   45MOL   H10519553   6.159   4.614   4.552  0.4920 -1.1745  2.0874
   45MOL   H10619554   5.938   4.607   4.425 -2.6266  1.1381  0.7580
   45MOL   H10719555   5.983   4.454   4.488 -0.7085 -0.7170  1.6134
   45MOL   H10819556   5.762   4.524   4.519  0.2439  1.6181 -1.7512
   45MOL   H10919557   5.834   4.483   4.683 -3.6760 -1.0746 -0.9616
   45MOL   H11019558   5.538   4.580   4.592 -1.1868 -0.8034  1.5769
   45MOL   H11119559   5.440   4.640   4.703  0.3500 -1.0891 -0.0947
   45MOL   C11219560   5.477   4.792   4.548  0.1305  0.6998 -0.2774
   45MOL   C11319561   5.442   4.923   4.623 -0.1465  0.2797  0.0473
   45MOL   C11419562   5.347   4.905   4.743 -0.0359 -0.0798  0.1842
   45MOL   C11519563   5.335   5.031   4.824  0.0274  0.3327 -0.7786
   45MOL   C11619564   5.285   5.152   4.737 -0.4093  0.3631  0.1437
   45MOL   C11719565   5.379   5.181   4.615 -0.3502 -0.2824  0.9545
   45MOL   C11819566   5.389   5.047   4.536  0.4620  1.1753  0.0486
   45MOL   C11919567   5.369   4.739   4.446 -0.1597  0.7368  0.1580
   45MOL   H12019568   5.561   4.814   4.482  0.0470  2.0979  0.0664
   45MOL   H12119569   5.535   4.956   4.668  1.0254 -2.4074 -0.2819
   45MOL   H12219570   5.379   4.825   4.810 -1.1152 -0.3768  0.3474
   45MOL   H12319571   5.255   4.852   4.719 -0.6419 -0.1859  2.6726
   45MOL   H12419572   5.294   5.021   4.925 -1.1279 -0.7391 -1.3527
   45MOL   H12519573   5.434   5.072   4.847 -0.5933  1.5740 -0.2472
   45MOL   H12619574   5.185   5.123   4.705 -0.1943 -0.2376  0.0135
   45MOL   H12719575   5.274   5.237   4.804  1.9160 -0.3323  1.4687
   45MOL   H12819576   5.346   5.267   4.556  0.6602 -0.9448 -0.6064
   45MOL   H12919577   5.480   5.213   4.637 -0.0150  0.0604 -0.9831
   45MOL   H13019578   5.444   5.066   4.443  1.0471  0.9795  0.3543
   45MOL   H13119579   5.296   5.006   4.498  0.4961  1.7231 -0.6462
   45MOL   H13219580   5.360   4.817   4.371 -0.2955 -0.3297 -0.9381
   45MOL   H13319581   5.277   4.733   4.504 -0.1553 -0.5174  0.0334
   45MOL   C13419582   5.394   4.609   4.369  0.3440  0.1834 -0.0489
   45MOL   C13519583   5.535   4.603   4.301 -0.0617  0.1169 -0.1522
   45MOL   C13619584   5.564   4.708   4.195  0.6459 -0.3306 -0.3587
   45MOL   C13719585   5.715   4.708   4.163 -0.1006  1.0010  0.6774
   45MOL   C13819586   5.752   4.572   4.105  0.2961 -0.4901 -0.2191
   45MOL   C13919587   5.712   4.455   4.198 -0.1358  0.2396 -0.2796
   45MOL   C14019588   5.564   4.468   4.240  0.6767 -0.3408 -0.3959
   45MOL   C14119589   5.268   4.575   4.278 -0.2514 -0.4653 -0.5018
   45MOL   H14219590   5.380   4.522   4.432 -3.5264  1.6862  1.3648
   45MOL   H14319591   5.603   4.614   4.385 -0.7702  0.1477  0.4311
   45MOL   H14419592   5.500   4.706   4.107  0.2935 -2.5220 -0.0692
   45MOL   H14519593   5.552   4.810   4.233  1.5467 -0.4952  0.3690
   45MOL   H14619594   5.777   4.742   4.247  0.9309  0.7646  0.0308
   45MOL   H14719595   5.726   4.783   4.085  1.7967 -0.7204 -0.7770
   45MOL   H14819596   5.696   4.563   4.012  1.7525  1.7167 -1.3392
   45MOL   H14919597   5.852   4.574   4.062  0.5854 -1.1703  0.4130
   45MOL   H15019598   5.785   4.454   4.280  0.1541  0.4717 -0.5321
   45MOL   H15119599   5.731   4.360   4.148 -2.7091 -0.0019 -0.8667
   45MOL   H15219600   5.501   4.447   4.153 -0.3995  0.3714  0.2091
   45MOL   H15319601   5.546   4.390   4.314  2.4060  0.8502  1.3307
   45MOL   H15419602   5.279   4.516   4.187  4.1082 -1.2515  0.3986
   45MOL   H15519603   5.253   4.674   4.236 -0.2922 -0.2339  0.0486
   45MOL   C15619604   5.148   4.517   4.358 -0.1804 -0.2854  0.7882
   45MOL   C15719605   5.151   4.362   4.384  0.3256 -0.0874  0.5402
   45MOL   C15819606   5.039   4.309   4.477 -0.4811  0.2085 -0.2171
   45MOL   C15919607   5.078   4.166   4.499  0.1843  0.2268  0.7019
   45MOL   C16019608   5.058   4.095   4.366  0.0385 -0.1105 -0.1217
   45MOL   C16119609   5.170   4.127   4.265  0.3467  0.2855  0.3026
   45MOL   C16219610   5.160   4.280   4.251  0.1713  0.0822 -0.2353
   45MOL   C16319611   5.022   4.569   4.287  0.0132 -0.0042 -0.2403
   45MOL   H16419612   5.148   4.562   4.457 -1.5569  1.3878  0.0497
   45MOL   H16519613   5.248   4.350   4.432  1.7145  0.5506 -2.0162
   45MOL   H16619614   5.046   4.353   4.576  1.4810  0.7189 -0.5656
   45MOL   H16719615   4.941   4.336   4.440 -1.2937  0.5288  2.0738
   45MOL   H16819616   5.180   4.147   4.533  0.1255  0.5153  1.0387
   45MOL   H16919617   5.017   4.119   4.576  1.1117 -0.5699  0.9583
   45MOL   H17019618   4.956   4.104   4.328 -0.6911  0.1389  1.8542
   45MOL   H17119619   5.065   3.987   4.379  1.7092  0.2302  1.8829
   45MOL   H17219620   5.156   4.084   4.166 -2.9648  0.9035  0.4424
   45MOL   H17319621   5.270   4.109   4.305  0.2137  1.2174  1.0863
   45MOL   H17419622   5.243   4.316   4.190 -0.4713  1.2076 -0.4478
   45MOL   H17519623   5.067   4.300   4.198 -0.8546  0.4291  1.6476
   45MOL   H17619624   4.970   4.494   4.227 -0.0262  0.7721 -1.1858
   45MOL   H17719625   5.052   4.644   4.214  1.1777  1.3418  1.5781
   45MOL   C17819626   4.906   4.634   4.379  0.5805  0.3638 -0.2287
   45MOL   C17919627   4.941   4.780   4.424  0.6865 -0.2267  0.3390
   45MOL   C18019628   4.849   4.829   4.542  0.7495  0.5782  0.4973
   45MOL   C18119629   4.907   4.965   4.595  0.1427  0.6891 -0.0533
   45MOL   C18219630   4.904   5.073   4.484  0.0360  0.3037  0.5776
   45MOL   C18319631   4.988   5.031   4.366  1.0228  0.0026  0.3956
   45MOL   C18419632   4.934   4.895   4.318  0.2470  0.7422 -0.6513
   45MOL   C18519633   4.779   4.645   4.292 -0.1077  0.1979  0.0936
   45MOL   H18619634   4.887   4.577   4.469 -0.5541 -1.5872 -1.6709
   45MOL   H18719635   5.047   4.771   4.447  0.2969 -1.7382  1.6098
   45MOL   H18819636   4.747   4.853   4.512  0.5101  0.0837  0.9064
   45MOL   H18919637   4.837   4.755   4.621  0.6749 -0.8211 -0.8200
   45MOL   H19019638   5.009   4.948   4.628  0.4305  1.1312 -0.6953
   45MOL   H19119639   4.851   4.979   4.687 -3.2398 -1.5226 -1.6645
   45MOL   H19219640   4.803   5.108   4.463 -0.1562  0.3322  1.5077
   45MOL   H19319641   4.948   5.159   4.535 -1.0122  1.0401  0.2425
   45MOL   H19419642   5.093   5.026   4.397  0.5825  2.5169  2.4104
   45MOL   H19519643   4.976   5.103   4.285  1.8913  1.1852  1.3053
   45MOL   H19619644   4.832   4.918   4.289 -0.5641 -1.6054  0.1757
   45MOL   H19719645   4.979   4.865   4.223  0.9914 -3.0460  0.7664
   45MOL   H19819646   4.724   4.735   4.323  0.0183  0.3710 -0.1866
   45MOL   H19919647   4.806   4.664   4.188 -1.3390 -0.0290 -0.2800
   45MOL   C20019648   4.685   4.521   4.303 -0.2574 -0.7026  0.2672
   45MOL   C20119649   4.596   4.536   4.437  0.8360 -0.1451 -0.3391
   45MOL   C20219650   4.471   4.634   4.416  0.4006 -0.2315 -0.9642
   45MOL   C20319651   4.385   4.641   4.544 -0.1614  0.0993  0.7735
   45MOL   C20419652   4.343   4.506   4.594  0.5385  0.8313 -0.2871
   45MOL   C20519653   4.461   4.406   4.618 -0.1819 -0.0386 -0.1497
   45MOL   C20619654   4.548   4.394   4.489 -0.3216 -0.1908  0.3273
   45MOL   C20719655   4.607   4.483   4.169 -0.1695  0.2026 -0.3740
   45MOL   H20819656   4.749   4.432   4.306  0.7611 -0.0097 -0.8712
   45MOL   H20919657   4.662   4.575   4.514 -0.4372 -1.9973  1.7299
   45MOL   H21019658   4.418   4.596   4.329  0.7677 -4.0510  0.3634
   45MOL   H21119659   4.502   4.733   4.383  3.3544 -0.1096  1.8186
   45MOL   H21219660   4.441   4.697   4.619 -0.4531 -0.3987  1.3690
   45MOL   H21319661   4.296   4.702   4.532  0.0242  0.4470  1.1546
   45MOL   H21419662   4.293   4.514   4.691  1.6756 -1.5290  0.5152
   45MOL   H21519663   4.270   4.466   4.524 -0.1876  3.4383 -1.0741
   45MOL   H21619664   4.532   4.450   4.688  1.7433 -0.9404 -1.4899
   45MOL   H21719665   4.426   4.307   4.644  0.3206 -0.2637 -0.3361
   45MOL   H21819666   4.634   4.330   4.511 -0.6861 -0.5519  0.7281
   45MOL   H21919667   4.493   4.339   4.412 -1.2462  2.5511 -1.0181
   45MOL   H22019668   4.530   4.408   4.185 -0.5646  0.5355 -0.7002
   45MOL   H22119669   4.564   4.577   4.134  0.4785  0.2431 -1.0892
   45MOL   C22219670   4.686   4.444   4.045  0.0443 -0.6395  0.9380
   45MOL   C22319671   4.766   4.310   4.049 -0.7771 -0.3485  0.2078
   45MOL   C22419672   4.882   4.318   3.952  0.0085  0.3657 -0.6431
   45MOL   C22519673   4.952   4.183   3.936  0.2918  0.1762 -0.8047
   45MOL   C22619674   4.857   4.085   3.874  0.2910 -0.6746  0.3860
   45MOL   C22719675   4.743   4.060   3.984  0.0092  0.1352  0.4244
   45MOL   C22819676   4.674   4.191   4.030  0.5838  0.3321 -0.0184
   45MOL   C22919677   4.595   4.453   3.915  0.7895 -0.1576 -0.6286
   45MOL   H23019678   4.761   4.522   4.036 -1.7541  0.9932 -0.3180
   45MOL   H23119679   4.807   4.299   4.150 -0.5398 -1.5490 -0.0135
   45MOL   H23219680   4.862   4.360   3.853 -1.5906  2.8542  0.6843
   45MOL   H23319681   4.960   4.386   3.987  0.5628  1.1738 -3.2727
   45MOL   H23419682   4.986   4.162   4.038 -0.3675  0.8271 -0.4494
   45MOL   H23519683   5.028   4.210   3.863  1.3851  0.6436  0.4890
   45MOL   H23619684   4.817   4.120   3.779  1.2091 -1.1775 -0.1951
   45MOL   H23719685   4.908   3.989   3.863  2.3468  0.4869 -0.5960
   45MOL   H23819686   4.780   4.009   4.073 -0.7544  1.7064  1.6832
   45MOL   H23919687   4.668   3.992   3.944  0.1390  0.6898 -0.7793
   45MOL   H24019688   4.606   4.207   3.946 -1.5752 -2.6596  1.0250
   45MOL   H24119689   4.605   4.184   4.114  1.6115 -0.2144  0.7897
   45MOL   H24219690   4.497   4.419   3.948  0.7846  1.4425  1.0909
   45MOL   H24319691   4.628   4.388   3.835 -0.1586 -1.5976  0.1237
   45MOL   C24419692   4.588   4.599   3.860  0.8399  0.4183 -0.3940
   45MOL   C24519693   4.446   4.636   3.802 -0.2427 -0.3138  0.0676
   45MOL   C24619694   4.341   4.651   3.911 -0.3560  0.3344  0.0132
   45MOL   C24719695   4.206   4.687   3.858 -0.0016 -0.5549 -0.2532
   45MOL   C24819696   4.165   4.585   3.752  0.7821  0.1422  0.2248
   45MOL   C24919697   4.260   4.568   3.634  0.0039  0.6607 -0.2689
   45MOL   C25019698   4.402   4.539   3.693  0.0433  1.0249 -0.9793
   45MOL   C25119699   4.698   4.618   3.746  0.0062 -0.0592 -0.4028
   45MOL   H25219700   4.603   4.670   3.941 -3.2758 -0.9699  1.7000
   45MOL   H25319701   4.452   4.739   3.766 -0.5062 -0.1744  0.4169
   45MOL   H25419702   4.386   4.717   3.985  1.7873 -0.3443 -0.6543
   45MOL   H25519703   4.334   4.550   3.953  1.9922  0.2324  0.2046
   45MOL   H25619704   4.131   4.660   3.932  0.1605  0.3072  0.2254
   45MOL   H25719705   4.196   4.791   3.826 -0.9625 -0.3589  0.6708
   45MOL   H25819706   4.149   4.488   3.800 -0.9032 -0.0751 -0.7396
   45MOL   H25919707   4.061   4.607   3.728  1.2659  2.3424  0.0933
   45MOL   H26019708   4.261   4.654   3.568 -3.4576  0.9282 -0.0269
   45MOL   H26119709   4.242   4.482   3.569  1.7479 -0.1051  0.2121
   45MOL   H26219710   4.398   4.435   3.723 -0.9804  0.6341 -2.3975
   45MOL   H26319711   4.471   4.536   3.608 -0.1859  3.6894 -1.3140
   45MOL   H26419712   4.669   4.547   3.668  1.5656 -0.8652 -0.2776
   45MOL   H26519713   4.794   4.583   3.784  0.8148  0.8431 -1.5626
   45MOL   C26619714   4.721   4.751   3.684  0.5265  0.2127  0.5832
   45MOL   C26719715   4.735   4.870   3.785 -0.3218  0.4851 -0.1446
   45MOL   C26819716   4.692   4.997   3.720  0.1092  0.4093 -0.0740
   45MOL   C26919717   4.703   5.125   3.803  0.6917 -0.1787 -0.5597
   45MOL   C27019718   4.847   5.143   3.867  0.8857  0.8593 -0.1109
   45MOL   C27119719   4.876   5.015   3.944  0.2062 -0.0178  0.3444
   45MOL   C27219720   4.877   4.889   3.851 -0.1284  0.3229  0.5380
   45MOL   C27319721   4.848   4.737   3.601  0.4584 -0.7118  0.1625
   45MOL   H27419722   4.638   4.773   3.617  0.3481 -0.2064  0.6651
   45MOL   H27519723   4.667   4.859   3.870  2.5704 -1.6149  2.0084
   45MOL   H27619724   4.741   5.008   3.623  0.1422 -1.8727 -0.3393
   45MOL   H27719725   4.586   4.991   3.694 -0.0930  1.5766  0.4549
   45MOL   H27819726   4.631   5.143   3.883  1.5677  2.2399 -0.2565
   45MOL   H27919727   4.676   5.214   3.746 -3.0480 -2.2009 -2.1134
   45MOL   H28019728   4.924   5.163   3.792  2.4094 -0.1201  1.1632
   45MOL   H28119729   4.854   5.225   3.938 -1.3444 -0.0270  1.1658
   45MOL   H28219730   4.799   5.004   4.021 -1.7848  3.5117 -1.0164
   45MOL   H28319731   4.965   5.018   4.006  0.6841 -0.9243 -0.2953
   45MOL   H28419732   4.923   4.816   3.918 -1.6316 -0.2675  0.9430
   45MOL   H28519733   4.961   4.903   3.784  0.2224  0.0157  0.9133
   45MOL   H28619734   4.918   4.686   3.667 -0.6291 -2.6454 -0.1219
   45MOL   H28719735   4.897   4.831   3.577  1.2046 -0.8282  1.2250
   45MOL   C28819736   4.816   4.663   3.465  0.6084 -0.6410  0.0849
   45MOL   C28919737   4.900   4.539   3.420 -0.0368  0.4375 -0.5468
   45MOL   C29019738   5.050   4.571   3.444  0.1431 -0.1931 -0.2334
   45MOL   C29119739   5.137   4.461   3.397 -0.2989  0.4050  0.3050
   45MOL   C29219740   5.098   4.337   3.476  0.2296 -0.1107  0.4998
   45MOL   C29319741   4.953   4.295   3.458  0.5944  0.1764 -0.6047
   45MOL   C29419742   4.864   4.413   3.492 -0.0496 -0.5897  0.1665
   45MOL   C29519743   4.814   4.760   3.347  0.0044 -0.0910 -0.0997
   45MOL   H29619744   4.714   4.627   3.467  1.0700 -2.0328 -1.2074
   45MOL   H29719745   4.901   4.527   3.311  0.4307  1.4725 -0.6665
   45MOL   H29819746   5.079   4.665   3.397  0.4966 -0.2865 -0.1972
   45MOL   H29919747   5.060   4.574   3.552  0.1613  2.3959 -0.2801
   45MOL   H30019748   5.135   4.443   3.290  1.8267  2.9693 -0.2125
   45MOL   H30119749   5.241   4.484   3.423 -0.2086 -0.5780  0.8399
   45MOL   H30219750   5.127   4.369   3.576 -1.0203  2.2496  0.1410
   45MOL   H30319751   5.174   4.263   3.450 -1.1073 -1.6536  0.8802
   45MOL   H30419752   4.929   4.210   3.520 -0.5745  2.6508  2.4582
   45MOL   H30519753   4.940   4.258   3.356  1.3666  1.0060 -1.0134
   45MOL   H30619754   4.860   4.422   3.601  1.9406  1.7102  0.0824
   45MOL   H30719755   4.765   4.382   3.460 -1.4840  2.8960  1.0343
   45MOL   H30819756   4.774   4.852   3.389 -0.8811  0.1635 -1.4609
   45MOL   H30919757   4.915   4.791   3.318 -0.4153  1.5326  0.1080
   45MOL   C31019758   4.726   4.717   3.224  0.4976  0.2567 -1.1094
   45MOL   C31119759   4.582   4.786   3.221  0.3618  0.2419 -0.1342
   45MOL   C31219760   4.488   4.761   3.347  0.0843  0.1084  0.4503
   45MOL   C31319761   4.337   4.788   3.315  0.1364 -0.3131 -0.2004
   45MOL   C31419762   4.335   4.942   3.285  0.5905  0.3806  0.1247
   45MOL   C31519763   4.427   4.976   3.163 -0.0315 -0.1419 -1.2786
   45MOL   C31619764   4.584   4.933   3.183  0.4502 -0.7852  0.5824
   45MOL   C31719765   4.818   4.712   3.091  0.4509 -0.0260 -0.3616
   45MOL   H31819766   4.695   4.613   3.239 -1.8070  1.4009  2.4933
   45MOL   H31919767   4.527   4.746   3.135  0.8161  3.8063 -2.2040
   45MOL   H32019768   4.493   4.656   3.376 -0.1445  0.3612  1.4162
   45MOL   H32119769   4.532   4.820   3.428 -0.2123  4.3708 -2.3337
   45MOL   H32219770   4.270   4.763   3.397 -1.8786  2.1585 -1.0071
   45MOL   H32319771   4.306   4.730   3.228  1.1949 -0.5669 -0.4173
   45MOL   H32419772   4.232   4.970   3.262  0.0066 -0.4059  1.7112
   45MOL   H32519773   4.360   4.999   3.375 -3.1488  1.5293  0.5141
   45MOL   H32619774   4.385   4.938   3.070 -1.1373 -3.7629  0.6118
   45MOL   H32719775   4.412   5.084   3.159 -2.9142 -0.5509 -2.9002
   45MOL   H32819776   4.621   4.979   3.275  0.1585 -0.9349  0.7730
   45MOL   H32919777   4.644   4.960   3.096  1.1178 -1.6210  0.7708
   45MOL   H33019778   4.909   4.655   3.108 -0.4337 -1.2391  0.4265
   45MOL   H33119779   4.846   4.815   3.071  2.0742 -0.2093  0.8955
   45MOL   C33219780   4.756   4.665   2.958 -0.6070  0.1849  0.5674
   45MOL   C33319781   4.751   4.505   2.939 -0.0771  0.2194 -0.0446
   45MOL   C33419782   4.646   4.435   3.025 -0.3202 -0.1108 -0.7294
   45MOL   C33519783   4.629   4.287   2.992  0.4091  0.0801  0.2486
   45MOL   C33619784   4.769   4.218   2.967 -0.3445 -0.3559 -0.2783
   45MOL   C33719785   4.879   4.303   2.892  0.0791 -0.1514  0.1398
   45MOL   C33819786   4.886   4.440   2.959  0.4723  0.0292  0.0008
   45MOL   C33919787   4.823   4.746   2.844  0.2216  0.7243 -0.0578
   45MOL   H34019788   4.654   4.701   2.946 -0.6260  0.1402  0.5964
   45MOL   H34119789   4.711   4.494   2.838  1.9487 -2.2127 -0.6297
   45MOL   H34219790   4.664   4.438   3.133 -3.1292  1.6741 -0.2743
   45MOL   H34319791   4.550   4.485   3.029 -0.1411  0.1917 -0.2307
   45MOL   H34419792   4.575   4.232   3.069  0.7987 -1.5621 -0.6324
   45MOL   H34519793   4.578   4.292   2.896 -0.6684 -0.2310  0.7959
   45MOL   H34619794   4.798   4.198   3.070  1.0411  0.9590 -0.3902
   45MOL   H34719795   4.758   4.116   2.933  0.8540 -0.8052  0.6656
   45MOL   H34819796   4.870   4.302   2.783  0.6023 -2.2641  0.0891
   45MOL   H34919797   4.978   4.258   2.897  0.9457  1.5495 -1.2106
   45MOL   H35019798   4.979   4.483   2.924  0.4751  0.0950  0.0876
   45MOL   H35119799   4.895   4.417   3.065  1.7728 -1.2920 -0.3825
   45MOL   H35219800   4.928   4.718   2.842  0.3280  1.0914 -3.1834
   45MOL   H35319801   4.818   4.852   2.868 -2.2404  0.7597 -0.6137
   45MOL   C35419802   4.771   4.741   2.699  0.4269 -0.9635 -0.1385
   45MOL   C35519803   4.877   4.797   2.601  0.1713 -0.4040  0.0352
   45MOL   C35619804   4.995   4.704   2.580 -0.2610 -0.6589  0.1616
   45MOL   C35719805   5.108   4.769   2.482  0.3104 -0.6202  0.0024
   45MOL   C35819806   5.142   4.910   2.529  0.5848  0.3262 -0.1793
   45MOL   C35919807   5.018   4.992   2.518 -0.6811 -0.2132  0.7890
   45MOL   C36019808   4.923   4.947   2.626 -0.3079  0.0338 -0.2499
   45MOL   C36119809   4.626   4.806   2.694  0.6294  0.0223  0.1449
   45MOL   H36219810   4.747   4.636   2.681 -2.5643 -0.0422 -1.9258
   45MOL   H36319811   4.830   4.787   2.503 -1.3177  0.1765  0.6786
   45MOL   H36419812   4.966   4.606   2.545  0.2117 -1.2467  1.3744
   45MOL   H36519813   5.049   4.677   2.671  0.3069  2.2422  0.7400
   45MOL   H36619814   5.207   4.725   2.480  1.4758  1.8547  0.6971
   45MOL   H36719815   5.078   4.759   2.378 -0.0913 -0.4400  0.1001
   45MOL   H36819816   5.183   4.904   2.629  0.2765 -0.9345 -0.1256
   45MOL   H36919817   5.221   4.957   2.470  1.5687 -1.9056 -0.7083
   45MOL   H37019818   5.045   5.097   2.530  0.0120 -0.2232 -0.4947
   45MOL   H37119819   4.978   4.993   2.416 -1.1681  0.9478  0.9874
   45MOL   H37219820   4.832   5.008   2.631 -0.4268  0.0252 -1.8048
   45MOL   H37319821   4.971   4.961   2.722  0.5918 -1.4902 -0.4695
   45MOL   H37419822   4.635   4.914   2.683  1.4712 -0.0329  0.2781
   45MOL   H37519823   4.574   4.788   2.788  2.9570 -0.0603  1.4536
   45MOL   C37619824   4.537   4.759   2.575 -0.0885 -0.0248  0.6432
   45MOL   C37719825   4.467   4.623   2.614 -0.1507 -0.3899  0.5651
   45MOL   C37819826   4.430   4.548   2.482 -0.0784  0.5598  1.2142
   45MOL   C37919827   4.356   4.417   2.506  0.4266  0.2590  0.3809
   45MOL   C38019828   4.233   4.444   2.584 -0.0749  0.5756 -0.0937
   45MOL   C38119829   4.270   4.502   2.719  0.0495 -0.2216  0.1986
   45MOL   C38219830   4.339   4.633   2.703  0.0105  0.3242 -0.4868
   45MOL   C38319831   4.443   4.871   2.523  0.4521 -0.6172  0.5907
   45MOL   H38419832   4.612   4.730   2.502 -0.7278  0.9955 -0.4525
   45MOL   H38519833   4.524   4.552   2.672 -0.7392  1.3879  3.3878
   45MOL   H38619834   4.374   4.606   2.409  0.5397 -0.0194  0.2664
   45MOL   H38719835   4.521   4.527   2.427 -1.3143 -2.3394  0.1633
   45MOL   H38819836   4.407   4.335   2.557 -0.4150 -0.9161 -0.6734
   45MOL   H38919837   4.323   4.374   2.412  3.3165  0.1264 -0.6463
   45MOL   H39019838   4.179   4.517   2.525  0.3207  2.5773  1.9126
   45MOL   H39119839   4.159   4.365   2.591  1.3726 -0.9149 -1.2614
   45MOL   H39219840   4.175   4.513   2.772 -0.3411  0.0362 -0.5368
   45MOL   H39319841   4.350   4.443   2.763  1.0261  0.8267 -0.1425
   45MOL   H39419842   4.272   4.711   2.665  0.3838  0.4483 -0.8933
   45MOL   H39519843   4.369   4.659   2.805  1.7377 -1.8126 -0.4094
   45MOL   H39619844   4.389   4.914   2.608 -0.6159 -0.1018 -0.3408
   45MOL   H39719845   4.365   4.828   2.461 -0.8908 -0.1811  1.9581
   45MOL   C39819846   4.510   4.983   2.438 -0.3975  0.1855 -0.2505
   45MOL   C39919847   4.551   4.931   2.294  0.0792  0.4404  0.1458
   45MOL   C40019848   4.435   4.923   2.193  0.6308 -0.2290 -0.0227
   45MOL   C40119849   4.491   4.860   2.058 -0.0330  0.7839  0.1139
   45MOL   C40219850   4.611   4.936   1.992  0.1297  0.6334 -0.6028
   45MOL   C40319851   4.723   4.959   2.101  1.0343  0.3535  0.8753
   45MOL   C40419852   4.662   5.026   2.231 -0.2467 -0.0765 -0.0403
   45MOL   C40519853   4.422   5.110   2.435 -0.0212  0.6592  0.2707
   45MOL   H40619854   4.609   5.006   2.478  0.3115 -0.9362 -1.3237
   45MOL   H40719855   4.587   4.829   2.298  2.0707  1.1589  0.7222
   45MOL   H40819856   4.396   5.022   2.171  1.5124 -0.3024 -1.9925
   45MOL   H40919857   4.359   4.854   2.229  1.8274 -0.7898  1.5087
   45MOL   H41019858   4.413   4.842   1.984 -1.9043  0.1915  2.1464
   45MOL   H41119859   4.527   4.761   2.086 -0.9779  0.2548 -0.5431
   45MOL   H41219860   4.569   5.026   1.947 -0.6241  0.4336 -0.3166
   45MOL   H41319861   4.656   4.876   1.914  0.0960 -0.8967  0.5249
   45MOL   H41419862   4.774   4.871   2.139  0.7822  0.6089  1.8248
   45MOL   H41519863   4.793   5.030   2.057  2.1467 -1.3893 -0.2259
   45MOL   H41619864   4.753   5.048   2.286  0.2114  2.1075 -1.5791
   45MOL   H41719865   4.616   5.118   2.193  0.4843 -0.3179 -1.5125
   45MOL   H41819866   4.474   5.179   2.368  0.8210 -0.8104 -0.6254
   45MOL   H41919867   4.321   5.091   2.400  0.6130 -0.6337 -0.8993
   45MOL   C42019868   4.414   5.184   2.565 -0.8651 -0.1870 -1.3460
   45MOL   C42119869   4.302   5.298   2.553 -0.7327  0.0808 -0.1421
   45MOL   C42219870   4.356   5.429   2.474  0.1489 -0.1461  0.4438
   45MOL   C42319871   4.255   5.538   2.469 -0.0606 -0.3057  0.3691
   45MOL   C42419872   4.185   5.572   2.603 -0.4025 -0.3181  0.3877
   45MOL   C42519873   4.129   5.449   2.669 -0.2397 -0.1998 -0.3315
   45MOL   C42619874   4.238   5.335   2.687 -0.4687  0.0012  0.2345
   45MOL   C42719875   4.543   5.246   2.624 -0.0267  0.6545 -0.3968
   45MOL   H42819876   4.364   5.118   2.637  0.2341 -1.0531 -1.3501
   45MOL   H42919877   4.219   5.256   2.497 -0.9581 -1.5467  1.3851
   45MOL   H43019878   4.442   5.467   2.529  2.0811 -1.2794 -1.7153
   45MOL   H43119879   4.393   5.402   2.375 -0.4187 -1.9038  0.6868
   45MOL   H43219880   4.315   5.619   2.430 -0.2638 -0.5962 -0.5684
   45MOL   H43319881   4.176   5.517   2.397 -0.6761  2.3066  0.2579
   45MOL   H43419882   4.103   5.640   2.580 -0.8994 -0.6732  1.0853
   45MOL   H43519883   4.243   5.621   2.681 -1.5886  3.2540 -0.8639
   45MOL   H43619884   4.061   5.411   2.592  0.5599 -2.1981 -0.0676
   45MOL   H43719885   4.081   5.466   2.765  1.0008  1.2393  0.0538
   45MOL   H43819886   4.315   5.368   2.756 -0.5462  2.8359 -0.9696
   45MOL   H43919887   4.185   5.249   2.729 -1.4383 -0.6132 -2.1439
   45MOL   H44019888   4.511   5.301   2.713  0.2879 -0.9522  0.7541
   45MOL   H44119889   4.613   5.172   2.663  1.4907  1.9909 -0.5624
   45MOL   H44219890   4.591   5.303   2.545 -1.5236  0.4174 -1.4974
   46MOL     C119891   5.404   5.722   5.623 -0.8471  0.1514  0.6828
   46MOL     C219892   5.326   5.774   5.502  0.0977 -0.4775  0.1047
   46MOL     C319893   5.184   5.702   5.501  0.5424  0.1205 -0.0429
   46MOL     C419894   5.111   5.732   5.368  0.8503 -0.1197  0.4627
   46MOL     C519895   5.195   5.702   5.243 -0.4917 -0.6339  0.0828
   46MOL     C619896   5.332   5.778   5.245 -0.0614  0.3179  0.2956
   46MOL     C719897   5.415   5.763   5.372 -0.0900  0.6669 -0.6448
   46MOL     C819898   5.335   5.743   5.761  0.0317 -0.3797 -0.1654
   46MOL     H919899   5.413   5.616   5.598  0.9716  0.2545  0.7943
   46MOL    H1019900   5.316   5.881   5.524  0.4758 -0.3786 -0.1938
   46MOL    H1119901   5.215   5.598   5.493  1.3742  0.5641 -3.6858
   46MOL    H1219902   5.131   5.720   5.594 -3.8569  2.1673 -2.8072
   46MOL    H1319903   5.090   5.839   5.369  1.2037 -0.0434 -0.0681
   46MOL    H1419904   5.012   5.688   5.354 -0.6154  3.2105 -0.3648
   46MOL    H1519905   5.153   5.736   5.148  0.3126  0.4201  0.0860
   46MOL    H1619906   5.208   5.594   5.233 -4.2607 -1.0115 -1.4326
   46MOL    H1719907   5.382   5.766   5.149 -0.4201 -1.2083  0.2959
   46MOL    H1819908   5.314   5.885   5.234  0.2730  0.5323  1.7506
   46MOL    H1919909   5.505   5.824   5.370  0.6269 -0.3506 -0.0932
   46MOL    H2019910   5.456   5.663   5.357 -0.2879  0.3801  0.6725
   46MOL    H2119911   5.233   5.705   5.758 -0.4488  0.8668  0.0257
   46MOL    H2219912   5.340   5.851   5.774  0.3447 -0.5940  1.6400
   46MOL    H2319913   5.507   5.757   5.620 -1.5802  2.3161  0.4257
   46MOL    C2419914   5.401   5.673   5.881  0.6097 -0.0437  0.1444
   46MOL    C2519915   5.354   5.745   6.012 -0.3151 -0.3495 -0.6530
   46MOL    C2619916   5.452   5.723   6.130  0.5767  0.0318 -0.2606
   46MOL    C2719917   5.408   5.795   6.261 -0.4248  0.0712 -0.1124
   46MOL    C2819918   5.257   5.786   6.310 -0.2586 -0.6845 -0.2372
   46MOL    C2919919   5.163   5.797   6.192 -0.2021 -0.3137  0.2691
   46MOL    C3019920   5.210   5.713   6.066 -0.2527 -0.1841 -0.0407
   46MOL    C3119921   5.391   5.520   5.877  0.3088  0.0520  0.6603
   46MOL    H3219922   5.506   5.700   5.868  0.7500 -0.6634 -0.0023
   46MOL    H3319923   5.358   5.853   6.004 -1.3424 -0.2108  0.4734
   46MOL    H3419924   5.555   5.749   6.107  0.3642 -1.8263 -3.5337
   46MOL    H3519925   5.461   5.618   6.156 -2.3621 -0.1038  0.3314
   46MOL    H3619926   5.481   5.761   6.334  0.4243 -0.9037 -1.3830
   46MOL    H3719927   5.427   5.902   6.251  0.2776 -0.0081  0.3394
   46MOL    H3819928   5.236   5.864   6.383  2.3842 -1.8120  1.8531
   46MOL    H3919929   5.240   5.700   6.375  2.2433 -0.8465  0.2572
   46MOL    H4019930   5.062   5.776   6.225 -0.4222  0.3358  0.0155
   46MOL    H4119931   5.163   5.901   6.160 -2.4836  0.2237  1.8966
   46MOL    H4219932   5.204   5.607   6.093  0.1979 -0.1489  0.1987
   46MOL    H4319933   5.141   5.735   5.984 -0.2469 -2.2818 -0.6315
   46MOL    H4419934   5.293   5.503   5.834  1.0654 -1.6480 -0.4394
   46MOL    H4519935   5.382   5.476   5.976 -1.3296 -4.0081 -1.1928
   46MOL    C4619936   5.499   5.440   5.803  0.3018 -0.2099 -0.1051
   46MOL    C4719937   5.436   5.318   5.731 -0.4098  0.1368  0.0986
   46MOL    C4819938   5.398   5.200   5.823 -0.6344  0.0451  0.3452
   46MOL    C4919939   5.336   5.086   5.741 -0.0028 -0.1668 -0.0914
   46MOL    C5019940   5.415   5.035   5.620 -0.2341  0.9741  0.2315
   46MOL    C5119941   5.468   5.157   5.530 -0.1013 -0.3094 -0.0803
   46MOL    C5219942   5.527   5.274   5.613 -0.7309  0.1116 -0.4989
   46MOL    C5319943   5.620   5.399   5.896 -0.2367  0.5251 -0.2374
   46MOL    H5419944   5.545   5.503   5.728 -0.9176 -0.5848 -1.1832
   46MOL    H5519945   5.350   5.362   5.682 -0.3653  0.5447  0.3828
   46MOL    H5619946   5.482   5.152   5.873 -0.5097  0.9705  1.0345
   46MOL    H5719947   5.330   5.229   5.903 -2.3116 -1.9546 -0.3273
   46MOL    H5819948   5.245   5.133   5.704 -1.0898 -1.4093  0.9737
   46MOL    H5919949   5.315   4.997   5.800 -1.4294  0.9715  1.1596
   46MOL    H6019950   5.501   4.984   5.662 -1.6569 -1.6741  0.0374
   46MOL    H6119951   5.362   4.960   5.560  1.4143  0.9869 -1.2783
   46MOL    H6219952   5.392   5.193   5.460  0.1173  2.3237  0.9635
   46MOL    H6319953   5.551   5.118   5.471 -2.9956 -2.5924 -2.8462
   46MOL    H6419954   5.621   5.237   5.652 -0.8907  0.4840  0.2580
   46MOL    H6519955   5.544   5.366   5.556  1.0629 -0.6027 -1.1534
   46MOL    H6619956   5.618   5.292   5.918 -0.4103  0.5731 -0.0308
   46MOL    H6719957   5.602   5.450   5.990 -1.3809  2.8774 -1.7129
   46MOL    C6819958   5.762   5.428   5.841  0.3619  0.4681 -1.3843
   46MOL    C6919959   5.793   5.580   5.830 -0.1452 -0.3504  0.1213
   46MOL    C7019960   5.842   5.635   5.955 -0.4899  0.0453 -0.5244
   46MOL    C7119961   5.856   5.787   5.952  0.4812 -1.2545 -0.2589
   46MOL    C7219962   5.958   5.834   5.844 -0.1150  0.0564  0.2373
   46MOL    C7319963   5.904   5.781   5.707  0.3950  0.5462  0.5433
   46MOL    C7419964   5.882   5.623   5.709 -0.6752  0.9290  0.0361
   46MOL    C7519965   5.876   5.343   5.921 -0.3572 -0.2526  0.0838
   46MOL    H7619966   5.764   5.382   5.742  0.1046 -1.1852 -0.6401
   46MOL    H7719967   5.708   5.641   5.799  0.4931  0.3966 -0.2005
   46MOL    H7819968   5.939   5.597   5.987 -0.8243 -1.1949 -0.9515
   46MOL    H7919969   5.767   5.620   6.033 -2.8125  2.1921 -2.2574
   46MOL    H8019970   5.763   5.843   5.954  2.1202  1.5369  1.2492
   46MOL    H8119971   5.891   5.812   6.052 -2.6538  1.2594  0.3008
   46MOL    H8219972   6.060   5.800   5.863  0.0044  0.6949  0.7573
   46MOL    H8319973   5.961   5.943   5.841 -0.8615  0.0670 -0.2657
   46MOL    H8419974   5.967   5.816   5.626  0.7460  1.7613  1.3303
   46MOL    H8519975   5.805   5.819   5.686  0.5209  0.2577 -0.6060
   46MOL    H8619976   5.976   5.569   5.718 -1.2459  0.1927  1.6354
   46MOL    H8719977   5.847   5.581   5.614  1.3322 -2.0160  0.5398
   46MOL    H8819978   5.974   5.387   5.907  0.6462 -2.9564 -2.0973
   46MOL    H8919979   5.849   5.350   6.026  0.3449 -1.3305  0.3402
   46MOL    C9019980   5.883   5.204   5.870 -0.0066 -0.3528 -0.9905
   46MOL    C9119981   5.961   5.194   5.737 -0.0273 -0.6648  0.1578
   46MOL    C9219982   6.118   5.190   5.759 -0.4533  0.0685  0.6955
   46MOL    C9319983   6.197   5.197   5.626  0.6934 -0.0525  0.7401
   46MOL    C9419984   6.152   5.097   5.525 -0.7282  0.0224  0.0567
   46MOL    C9519985   5.992   5.088   5.506 -0.0801  0.2439  0.2485
   46MOL    C9619986   5.917   5.082   5.642 -0.0589 -0.0634  0.1236
   46MOL    C9719987   5.945   5.112   5.987  0.2923  0.4971  0.0279
   46MOL    H9819988   5.781   5.168   5.861 -0.9965  2.0825 -0.0546
   46MOL    H9919989   5.934   5.281   5.677  1.6763 -0.6852 -0.6746
   46MOL   H10019990   6.149   5.109   5.825  0.8502  0.7851  0.9920
   46MOL   H10119991   6.138   5.286   5.806  0.2497  0.7220 -0.8800
   46MOL   H10219992   6.302   5.177   5.649  1.5478  1.8371 -1.2478
   46MOL   H10319993   6.188   5.300   5.590 -0.2872 -0.6242 -0.7009
   46MOL   H10419994   6.186   5.000   5.558 -1.4944 -0.9202 -1.8333
   46MOL   H10519995   6.198   5.115   5.428  0.7303  0.5183  0.8337
   46MOL   H10619996   5.967   5.182   5.456 -1.1466  0.6172  1.4467
   46MOL   H10719997   5.967   5.006   5.439  0.7333  1.6993 -1.8705
   46MOL   H10819998   5.811   5.088   5.618  0.0611 -0.6978 -0.5745
   46MOL   H10919999   5.941   4.991   5.696 -2.2594 -0.5819  0.2657
   46MOL   H11020000   5.987   5.018   5.952  1.0359  0.5489  0.7582
   46MOL   H11120001   6.029   5.173   6.021  1.1726 -0.8552  0.3193
   46MOL   C11220002   5.856   5.076   6.104  0.0054  0.2136 -0.1969
   46MOL   C11320003   5.940   5.043   6.232 -0.2940 -0.5229 -0.0308
   46MOL   C11420004   6.020   4.914   6.236 -0.1710 -0.6606  0.4124
   46MOL   C11520005   6.119   4.900   6.353  0.0688  0.0361 -0.3317
   46MOL   C11620006   6.075   4.945   6.482  0.2237 -0.1190 -0.1007
   46MOL   C11720007   5.984   5.069   6.492  0.1710  0.3539 -0.0716
   46MOL   C11820008   5.884   5.082   6.371  0.3581  0.5254 -0.5323
   46MOL   C11920009   5.751   4.961   6.075  0.0775  0.0466 -0.2430
   46MOL   H12020010   5.790   5.161   6.118 -1.7027 -1.1805  0.4171
   46MOL   H12120011   6.015   5.122   6.222 -1.9836  1.1679  0.4262
   46MOL   H12220012   6.070   4.899   6.140 -1.3149  0.2059 -0.3337
   46MOL   H12320013   5.947   4.833   6.240  1.4535 -2.1655  0.0279
   46MOL   H12420014   6.151   4.797   6.365 -0.9931 -0.4376 -1.4969
   46MOL   H12520015   6.202   4.968   6.334 -0.0497  0.5692  0.9991
   46MOL   H12620016   6.007   4.869   6.522 -0.7256  0.7767  0.0026
   46MOL   H12720017   6.146   4.938   6.564 -0.4838  0.8772  0.6063
   46MOL   H12820018   5.947   5.079   6.594 -0.6996  0.2776 -0.3747
   46MOL   H12920019   6.053   5.152   6.475  2.0797 -1.2314 -0.1959
   46MOL   H13020020   5.836   5.180   6.368  0.7555  0.6641 -2.4049
   46MOL   H13120021   5.814   5.003   6.397 -0.6377  1.1867 -1.1845
   46MOL   H13220022   5.808   4.870   6.056 -1.4041 -1.3357  1.6846
   46MOL   H13320023   5.696   4.993   5.986  0.3327  1.1856  0.0010
   46MOL   C13420024   5.631   4.923   6.171  0.0277 -0.4459  0.1334
   46MOL   C13520025   5.554   4.802   6.129  0.4571 -0.2777 -0.5591
   46MOL   C13620026   5.643   4.676   6.119  0.3599  0.6169  0.4280
   46MOL   C13720027   5.557   4.549   6.105  0.1893  0.3916 -0.2873
   46MOL   C13820028   5.459   4.562   5.979 -0.7178  0.2731  0.4889
   46MOL   C13920029   5.379   4.694   5.985 -0.1017 -1.0369 -0.0223
   46MOL   C14020030   5.478   4.810   5.997 -0.3790 -0.7110 -0.4066
   46MOL   C14120031   5.536   5.046   6.198 -0.3364 -0.4870  0.1527
   46MOL   H14220032   5.672   4.900   6.269  0.0069  1.0046  0.4994
   46MOL   H14320033   5.494   4.771   6.214  1.1311  0.3106  0.1340
   46MOL   H14420034   5.709   4.684   6.032  0.7822 -0.3141  0.6545
   46MOL   H14520035   5.716   4.672   6.199  0.3363 -1.3283  0.3832
   46MOL   H14620036   5.506   4.509   6.193  0.7201 -1.2232 -0.6957
   46MOL   H14720037   5.634   4.475   6.085  1.0945  0.9411  1.1018
   46MOL   H14820038   5.509   4.554   5.883 -1.2855  2.5743 -0.0273
   46MOL   H14920039   5.382   4.487   5.993  0.2920 -1.2043 -1.7353
   46MOL   H15020040   5.299   4.705   6.058 -0.4092  0.2243 -0.5415
   46MOL   H15120041   5.326   4.718   5.893  1.2171  4.2338  0.4241
   46MOL   H15220042   5.551   4.808   5.916  0.3043  0.4400  0.1596
   46MOL   H15320043   5.427   4.906   5.989  0.6583 -0.2538 -1.7816
   46MOL   H15420044   5.502   5.083   6.101 -0.1745  0.2047  0.3588
   46MOL   H15520045   5.604   5.121   6.238  0.0665 -0.5798 -0.3472
   46MOL   C15620046   5.417   5.021   6.295 -0.2795  0.5673 -0.2364
   46MOL   C15720047   5.302   5.128   6.284  0.4185 -0.5451  0.3317
   46MOL   C15820048   5.352   5.274   6.250 -0.7279  0.2051 -0.2240
   46MOL   C15920049   5.237   5.377   6.240 -0.1375 -0.7191  0.3641
   46MOL   C16020050   5.141   5.324   6.129 -0.0161 -0.4333  0.2338
   46MOL   C16120051   5.087   5.188   6.158 -0.1117  0.2778 -0.2406
   46MOL   C16220052   5.206   5.092   6.166  0.7433 -0.1255 -0.5584
   46MOL   C16320053   5.475   5.006   6.440  0.2759 -0.7940  0.2304
   46MOL   H16420054   5.361   4.933   6.264 -1.0644  0.9401  0.1182
   46MOL   H16520055   5.247   5.127   6.378  2.9147 -1.6565  1.8380
   46MOL   H16620056   5.421   5.322   6.320 -1.8743  3.3688 -1.1715
   46MOL   H16720057   5.408   5.271   6.157  0.3094 -1.8516  0.4404
   46MOL   H16820058   5.172   5.368   6.327 -0.3949 -2.7093 -0.0205
   46MOL   H16920059   5.277   5.478   6.227 -1.1271 -0.2573  0.8149
   46MOL   H17020060   5.197   5.322   6.036  0.8071  0.8589  0.6918
   46MOL   H17120061   5.066   5.401   6.114  0.4470  0.5747  2.7985
   46MOL   H17220062   5.016   5.152   6.083  0.0429 -0.3870 -0.0729
   46MOL   H17320063   5.036   5.198   6.254  0.1680  2.0104 -0.2520
   46MOL   H17420064   5.168   4.991   6.181  0.8271 -0.0202  0.3817
   46MOL   H17520065   5.257   5.097   6.070 -0.0542  1.3483 -0.9219
   46MOL   H17620066   5.466   5.104   6.488 -2.0960 -0.6640 -0.3747
   46MOL   H17720067   5.582   4.990   6.438  0.6394  0.9164  3.2758
   46MOL   C17820068   5.408   4.888   6.532  0.1195  0.4035 -0.2547
   46MOL   C17920069   5.498   4.867   6.662  0.3293 -0.1816 -0.2707
   46MOL   C18020070   5.510   4.997   6.743 -0.0322  0.6754  0.0829
   46MOL   C18120071   5.577   4.967   6.873  0.5340  0.2815 -0.8846
   46MOL   C18220072   5.710   4.884   6.863  0.5773  0.3387  0.7947
   46MOL   C18320073   5.702   4.769   6.759 -0.8599 -0.3195 -0.0546
   46MOL   C18420074   5.635   4.808   6.627  0.2431  0.1145  0.0422
   46MOL   C18520075   5.260   4.921   6.565  0.1192  0.5377  0.3868
   46MOL   H18620076   5.405   4.797   6.473 -3.7752  0.6059 -0.4864
   46MOL   H18720077   5.450   4.791   6.724 -2.9672  0.8885 -1.4196
   46MOL   H18820078   5.545   5.077   6.679 -0.0087  0.3819 -0.2737
   46MOL   H18920079   5.409   5.030   6.767 -0.3025 -0.1448  0.1165
   46MOL   H19020080   5.509   4.907   6.934  0.8130  0.7145 -0.1386
   46MOL   H19120081   5.607   5.053   6.933 -0.5890  0.9293 -1.2381
   46MOL   H19220082   5.794   4.942   6.824 -0.5829  2.8724  1.9654
   46MOL   H19320083   5.744   4.854   6.962 -0.4325  2.9675  2.0041
   46MOL   H19420084   5.651   4.681   6.798 -0.7466 -0.4604 -0.2258
   46MOL   H19520085   5.805   4.738   6.741  0.0124 -0.0486  4.0699
   46MOL   H19620086   5.699   4.875   6.570  0.2813  0.0197 -0.0281
   46MOL   H19720087   5.634   4.720   6.563  0.1668 -0.0014  0.2028
   46MOL   H19820088   5.250   5.019   6.612 -1.1164 -0.0338  1.3688
   46MOL   H19920089   5.196   4.932   6.477  0.1586  0.9696  0.4111
   46MOL   C20020090   5.175   4.815   6.648 -0.2537 -0.3717 -0.5485
   46MOL   C20120091   5.027   4.857   6.680  0.1294  0.7288 -0.3452
   46MOL   C20220092   5.009   4.946   6.816 -0.6987  0.3534 -0.2180
   46MOL   C20320093   4.861   4.952   6.840 -0.7663 -0.4355  0.1824
   46MOL   C20420094   4.792   5.041   6.733  0.5397 -0.4442  0.4291
   46MOL   C20520095   4.812   4.982   6.595 -0.2279  0.5644  0.3663
   46MOL   C20620096   4.952   4.925   6.559 -0.1853 -0.2086 -0.3726
   46MOL   C20720097   5.174   4.676   6.582 -0.1106 -0.4784  0.4116
   46MOL   H20820098   5.222   4.810   6.746 -2.8382 -0.1993  0.7683
   46MOL   H20920099   4.969   4.766   6.695 -1.4637  1.1563 -3.5252
   46MOL   H21020100   5.048   5.047   6.801  1.0988  0.1289  2.5520
   46MOL   H21120101   5.059   4.897   6.899  2.0700  0.2667 -1.8944
   46MOL   H21220102   4.811   4.855   6.848  1.3125 -1.6901 -1.3636
   46MOL   H21320103   4.845   4.988   6.941 -0.7533  1.6676 -0.5474
   46MOL   H21420104   4.685   5.050   6.752  0.4302  1.9635 -1.0065
   46MOL   H21520105   4.826   5.144   6.724  2.7965 -1.2615 -0.9407
   46MOL   H21620106   4.755   4.890   6.585 -0.9138  0.9409  0.7079
   46MOL   H21720107   4.774   5.050   6.518 -0.8585 -0.5359 -0.2984
   46MOL   H21820108   4.924   4.859   6.477  3.3077  0.8157 -2.5139
   46MOL   H21920109   5.012   5.008   6.519 -0.9195 -0.2690 -1.6250
   46MOL   H22020110   5.114   4.683   6.491 -1.3077 -1.2324  1.1188
   46MOL   H22120111   5.270   4.648   6.539 -1.1870 -2.0504 -1.0585
   46MOL   C22220112   5.122   4.564   6.677  0.8703 -0.1755  0.1536
   46MOL   C22320113   5.007   4.467   6.622 -0.3096  0.1603  0.0009
   46MOL   C22420114   5.039   4.393   6.496  0.1986 -0.8816 -0.0413
   46MOL   C22520115   4.931   4.286   6.466 -0.1610 -0.2846  0.6510
   46MOL   C22620116   4.792   4.346   6.456  0.0990  0.5640 -0.2872
   46MOL   C22720117   4.763   4.421   6.589 -0.0899  0.5527  0.4672
   46MOL   C22820118   4.869   4.530   6.612 -0.4581  0.2379  0.1146
   46MOL   C22920119   5.244   4.488   6.740 -0.1540 -0.6138 -0.3749
   46MOL   H23020120   5.076   4.617   6.761  0.5515  3.1899 -2.0443
   46MOL   H23120121   4.994   4.383   6.691  0.9651  0.5871  0.7711
   46MOL   H23220122   5.053   4.462   6.413  0.4289 -0.1362  0.6086
   46MOL   H23320123   5.137   4.344   6.501 -0.2523 -1.8846 -0.8790
   46MOL   H23420124   4.922   4.202   6.535  1.1570 -0.5488  0.5243
   46MOL   H23520125   4.977   4.237   6.380  1.1819 -0.7088  1.5920
   46MOL   H23620126   4.777   4.416   6.374  0.6764 -0.0768 -0.9383
   46MOL   H23720127   4.724   4.262   6.448 -0.7224  0.7560  3.8196
   46MOL   H23820128   4.756   4.342   6.663 -1.5177  0.1267 -0.1091
   46MOL   H23920129   4.660   4.455   6.578 -0.8853 -2.2415 -1.3783
   46MOL   H24020130   4.883   4.596   6.527  0.8767  2.5280  2.0240
   46MOL   H24120131   4.844   4.589   6.700  1.1398  0.0951  0.6851
   46MOL   H24220132   5.327   4.555   6.763 -0.6525 -0.1914  0.2011
   46MOL   H24320133   5.289   4.421   6.666  0.2220  0.4998 -1.1525
   46MOL   C24420134   5.204   4.430   6.879  0.3800  0.5544  0.1891
   46MOL   C24520135   5.209   4.541   6.993  0.3294  0.3796  0.4386
   46MOL   C24620136   5.337   4.565   7.076  0.2494 -0.4542 -0.0152
   46MOL   C24720137   5.334   4.697   7.159 -1.1637 -0.4490 -0.1047
   46MOL   C24820138   5.211   4.696   7.250 -0.5634  0.0817 -0.1908
   46MOL   C24920139   5.085   4.678   7.163 -0.5627 -0.5850 -0.0797
   46MOL   C25020140   5.088   4.547   7.087 -0.4187  0.3800 -0.0065
   46MOL   C25120141   5.290   4.306   6.909  0.0457  0.4783 -0.4143
   46MOL   H25220142   5.099   4.401   6.882  1.1999 -2.6203 -0.4727
   46MOL   H25320143   5.191   4.630   6.933  0.0839  0.8447  1.1916
   46MOL   H25420144   5.419   4.579   7.005 -2.1556  0.0888 -2.8156
   46MOL   H25520145   5.369   4.484   7.141 -0.3908 -1.1650 -0.5762
   46MOL   H25620146   5.426   4.714   7.214 -0.7858  0.0757 -0.8987
   46MOL   H25720147   5.335   4.783   7.093 -1.9792 -1.1729 -1.0940
   46MOL   H25820148   5.217   4.620   7.328  1.0293 -0.4663 -0.8222
   46MOL   H25920149   5.213   4.793   7.300  0.2667 -0.5948  1.1071
   46MOL   H26020150   5.079   4.757   7.088 -0.2598  1.3937  1.9330
   46MOL   H26120151   4.994   4.690   7.223 -0.8602 -0.9278 -0.4588
   46MOL   H26220152   5.079   4.464   7.157 -2.1566  0.0030 -0.6679
   46MOL   H26320153   4.997   4.561   7.030 -1.0033 -1.4919  0.4499
   46MOL   H26420154   5.391   4.341   6.928  0.2209  1.0985 -2.3233
   46MOL   H26520155   5.305   4.248   6.817  1.8978  0.8164 -0.3466
   46MOL   C26620156   5.247   4.216   7.029  0.6514 -0.6730  0.5951
   46MOL   C26720157   5.145   4.099   6.993 -0.5705 -0.7342 -0.3694
   46MOL   C26820158   5.205   3.987   6.919  0.0024  0.6751  0.0756
   46MOL   C26920159   5.110   3.871   6.906  0.0682  0.7284  0.3956
   46MOL   C27020160   4.977   3.915   6.839 -0.5698  0.3090 -0.1527
   46MOL   C27120161   4.916   4.042   6.912  0.0951  0.7985 -0.7085
   46MOL   C27220162   5.016   4.153   6.920 -0.0401 -0.8201 -0.3315
   46MOL   C27320163   5.378   4.179   7.109 -0.3525 -0.3862  0.0225
   46MOL   H27420164   5.193   4.282   7.097  0.9902  0.9262 -0.6418
   46MOL   H27520165   5.110   4.056   7.087 -0.3585  2.0576  1.0396
   46MOL   H27620166   5.254   4.013   6.826  1.3537  0.2298  0.6438
   46MOL   H27720167   5.283   3.947   6.985  0.7638 -2.6547 -2.7301
   46MOL   H27820168   5.086   3.840   7.008 -1.4402 -1.9683 -0.7271
   46MOL   H27920169   5.141   3.786   6.846  0.8533  1.2930 -0.0066
   46MOL   H28020170   5.008   3.939   6.737  3.7990 -2.0366  0.4809
   46MOL   H28120171   4.912   3.828   6.826  0.2886  0.0056 -2.7599
   46MOL   H28220172   4.883   4.024   7.015 -0.9070 -0.1721 -1.1890
   46MOL   H28320173   4.825   4.073   6.860 -1.1736 -0.9034  0.4342
   46MOL   H28420174   4.985   4.236   6.983  2.7591  0.2279 -0.2473
   46MOL   H28520175   5.035   4.185   6.817 -1.4311  0.7640 -0.1238
   46MOL   H28620176   5.441   4.267   7.128  0.5588 -0.6949 -1.4815
   46MOL   H28720177   5.447   4.119   7.049  0.0865  0.5837 -0.4757
   46MOL   C28820178   5.362   4.102   7.242 -0.5041 -0.1900  0.0425
   46MOL   C28920179   5.258   4.158   7.344  0.7626 -0.5194  0.0292
   46MOL   C29020180   5.197   4.056   7.443 -0.0392  0.1719 -0.6058
   46MOL   C29120181   5.090   4.115   7.533  0.0268  0.4963  0.5900
   46MOL   C29220182   5.128   4.250   7.600  0.9655 -0.6783 -0.4941
   46MOL   C29320183   5.183   4.353   7.495  0.4841 -0.3179 -0.0028
   46MOL   C29420184   5.300   4.292   7.416  0.3402  0.7592  0.5834
   46MOL   C29520185   5.505   4.081   7.310  0.0464 -0.2698  0.0553
   46MOL   H29620186   5.323   4.003   7.215 -0.6534 -0.0509 -0.2575
   46MOL   H29720187   5.172   4.184   7.283  0.1263  1.0468  1.5562
   46MOL   H29820188   5.134   3.985   7.390  0.5545  0.4860 -1.7357
   46MOL   H29920189   5.268   4.019   7.517  0.3277 -0.8613 -1.4758
   46MOL   H30020190   4.996   4.113   7.478 -0.6534  3.0008  1.6208
   46MOL   H30120191   5.067   4.044   7.612  0.2945 -0.7811 -0.4528
   46MOL   H30220192   5.204   4.242   7.677 -0.2542 -0.6815  0.7435
   46MOL   H30320193   5.037   4.289   7.646  1.6335 -1.0071  1.1051
   46MOL   H30420194   5.209   4.446   7.545  0.1601 -0.4194  0.3522
   46MOL   H30520195   5.102   4.368   7.424 -0.7246 -0.1700  1.3791
   46MOL   H30620196   5.384   4.275   7.483  0.5064 -0.0646  0.1808
   46MOL   H30720197   5.333   4.363   7.341 -0.2850  1.2036  0.7256
   46MOL   H30820198   5.575   4.136   7.247  0.6000 -1.7925 -0.7019
   46MOL   H30920199   5.529   4.140   7.398 -0.2614  0.5177 -0.3789
   46MOL   C31020200   5.564   3.936   7.320  0.1426 -0.6168 -0.1754
   46MOL   C31120201   5.513   3.844   7.440 -0.1313 -0.3200  1.7012
   46MOL   C31220202   5.598   3.716   7.447  0.3225 -0.4108 -0.2675
   46MOL   C31320203   5.541   3.628   7.557 -0.4054  0.3692  0.4432
   46MOL   C31420204   5.539   3.700   7.691  0.7703  0.6980  0.0788
   46MOL   C31520205   5.462   3.837   7.685  0.1796 -0.5787 -0.0271
   46MOL   C31620206   5.518   3.919   7.568  0.0157  0.4260  0.3358
   46MOL   C31720207   5.554   3.865   7.183 -0.0127 -0.1083  0.7502
   46MOL   H31820208   5.670   3.952   7.339 -0.0166 -0.3179  0.4649
   46MOL   H31920209   5.410   3.814   7.424  0.7681 -2.3190 -0.6242
   46MOL   H32020210   5.589   3.664   7.352 -0.8209  2.6902 -1.9083
   46MOL   H32120211   5.706   3.730   7.456  0.3673 -0.9366  0.0097
   46MOL   H32220212   5.605   3.540   7.561 -0.6390  0.2090  0.6480
   46MOL   H32320213   5.449   3.578   7.528  0.9308 -0.9821 -1.5920
   46MOL   H32420214   5.501   3.636   7.770 -0.0465  1.0022 -0.0557
   46MOL   H32520215   5.642   3.713   7.723  0.7258  3.9425 -0.9046
   46MOL   H32620216   5.356   3.814   7.680  0.0175  0.3906 -1.8024
   46MOL   H32720217   5.468   3.897   0.003 -1.3958 -0.2752 -0.1167
   46MOL   H32820218   5.622   3.946   7.587  0.8765 -0.3538 -2.9495
   46MOL   H32920219   5.471   4.017   7.569 -0.9497 -0.0267  0.8784
   46MOL   H33020220   5.493   3.911   7.106  1.2638  0.3560 -0.0036
   46MOL   H33120221   5.497   3.773   7.191  0.6930 -0.3870  2.9537
   46MOL   C33220222   5.687   3.819   7.112  0.0346 -0.6671 -0.4364
   46MOL   C33320223   5.763   3.941   7.047  0.9118 -0.5933 -0.0040
   46MOL   C33420224   5.709   3.992   6.909  0.2033 -0.4090 -0.5637
   46MOL   C33520225   5.782   4.111   6.864  0.1584 -0.1435 -0.7238
   46MOL   C33620226   5.931   4.083   6.854  1.3068  0.2408 -0.0357
   46MOL   C33720227   5.993   4.036   6.979  0.2862 -0.3135 -0.5282
   46MOL   C33820228   5.912   3.912   7.024 -0.5508 -0.1672 -0.0930
   46MOL   C33920229   5.668   3.694   7.025 -0.4124 -0.0151  1.0565
   46MOL   H34020230   5.757   3.795   7.192 -0.2825  0.6740  0.2740
   46MOL   H34120231   5.764   4.026   7.116  2.0312  0.6091 -1.4667
   46MOL   H34220232   5.712   3.913   6.833 -2.7503 -0.8122 -0.3169
   46MOL   H34320233   5.601   4.008   6.916  0.2369 -0.3860 -0.0715
   46MOL   H34420234   5.734   4.159   6.778  0.2573 -1.2071 -1.3913
   46MOL   H34520235   5.766   4.186   6.941  1.8962  1.2011 -1.6433
   46MOL   H34620236   5.956   4.002   6.785  1.0398 -0.0134  0.1683
   46MOL   H34720237   5.972   4.178   6.818  2.3039  0.6736  2.1809
   46MOL   H34820238   5.983   4.120   7.047  2.0377 -0.5427  0.0450
   46MOL   H34920239   6.099   4.011   6.974  0.0320 -1.2971 -1.3562
   46MOL   H35020240   5.968   3.874   7.110 -0.1440  1.2022  0.2610
   46MOL   H35120241   5.919   3.841   6.942 -1.2258  0.9128 -1.0901
   46MOL   H35220242   5.766   3.680   6.979 -0.2076 -2.8552  2.2178
   46MOL   H35320243   5.588   3.705   6.952 -1.0839 -0.8371  1.6527
   46MOL   C35420244   5.651   3.551   7.086 -0.2059 -0.1765  0.6167
   46MOL   C35520245   5.761   3.505   7.183  0.3541  1.0395  0.3924
   46MOL   C35620246   5.888   3.462   7.115 -0.4122 -0.0374  0.2361
   46MOL   C35720247   5.997   3.458   7.221 -0.0645  0.0832  0.0776
   46MOL   C35820248   5.963   3.360   7.335 -0.5499  0.0054  0.0391
   46MOL   C35920249   5.822   3.389   7.395 -0.0734 -0.1744 -0.2961
   46MOL   C36020250   5.722   3.394   7.282  0.3117  0.1650  0.5245
   46MOL   C36120251   5.603   3.439   6.993 -0.6015  0.4185  0.3058
   46MOL   H36220252   5.563   3.544   7.150  0.4476 -0.2103  1.5236
   46MOL   H36320253   5.788   3.592   7.243  2.3224 -0.2556  1.4417
   46MOL   H36420254   5.921   3.533   7.039  1.7520 -0.8475  0.3842
   46MOL   H36520255   5.877   3.365   7.066  1.1874 -0.9061  1.5700
   46MOL   H36620256   6.096   3.440   7.178  0.0636  0.2281  0.3079
   46MOL   H36720257   5.998   3.553   7.274 -1.3178  0.3149 -0.2939
   46MOL   H36820258   5.956   3.260   7.293 -1.8200 -1.3438  3.3052
   46MOL   H36920259   6.039   3.363   7.413 -0.3447 -0.4383 -0.1439
   46MOL   H37020260   5.795   3.319   7.474 -0.7859  1.0198  0.5338
   46MOL   H37120261   5.826   3.485   7.447 -0.4085 -0.5038  0.3407
   46MOL   H37220262   5.622   3.418   7.317 -0.4076  1.0857 -2.0557
   46MOL   H37320263   5.726   3.299   7.229  0.1125  1.1558 -1.3381
   46MOL   H37420264   5.636   3.350   7.046  0.5917  0.7004  0.0472
   46MOL   H37520265   5.664   3.457   6.904  1.6223  1.0895  1.9285
   46MOL   C37620266   5.453   3.443   6.949 -0.1122  0.0148  0.3966
   46MOL   C37720267   5.431   3.421   6.797  0.1720  0.1010 -0.4755
   46MOL   C37820268   5.487   3.284   6.736 -0.4538  0.6236 -0.0636
   46MOL   C37920269   5.451   3.270   6.589  0.1816  0.2435 -0.1361
   46MOL   C38020270   5.506   3.394   6.516 -0.2728 -0.6727 -0.5840
   46MOL   C38120271   5.448   3.524   6.568  0.3293 -0.1932  0.5366
   46MOL   C38220272   5.473   3.543   6.714  0.1030 -0.4527 -0.9657
   46MOL   C38320273   5.373   3.339   7.032 -0.1752 -0.1573  0.4497
   46MOL   H38420274   5.416   3.541   6.981  0.4444  0.1845  0.5267
   46MOL   H38520275   5.324   3.420   6.775 -0.0060 -0.9692  0.4008
   46MOL   H38620276   5.596   3.294   6.736 -0.4211  0.3272 -0.7528
   46MOL   H38720277   5.479   3.191   6.793  0.6625  0.3386 -0.3507
   46MOL   H38820278   5.343   3.258   6.580  0.1137 -0.2555  1.1870
   46MOL   H38920279   5.509   3.189   6.546  1.1160  1.0182 -0.3650
   46MOL   H39020280   5.613   3.406   6.535 -0.6932  2.7036  0.0573
   46MOL   H39120281   5.494   3.387   6.408 -0.3692 -0.4855 -0.5846
   46MOL   H39220282   5.480   3.605   6.503  0.0646 -1.0242 -0.6349
   46MOL   H39320283   5.341   3.509   6.551 -0.1211  1.1198  2.0900
   46MOL   H39420284   5.577   3.565   6.741 -0.7357  0.6556  1.5148
   46MOL   H39520285   5.414   3.627   6.751 -0.3758 -0.6243 -1.3358
   46MOL   H39620286   5.431   3.293   7.112 -0.4343 -1.1259  0.0917
   46MOL   H39720287   5.343   3.256   6.967  2.0723 -1.0538  0.5090
   46MOL   C39820288   5.244   3.393   7.094 -0.0078  0.0678 -0.3014
   46MOL   C39920289   5.131   3.420   6.992 -0.8159 -0.0741 -0.1363
   46MOL   C40020290   5.055   3.297   6.944 -0.2380  1.2508  0.4558
   46MOL   C40120291   4.959   3.325   6.832 -0.1128 -0.5674  0.6434
   46MOL   C40220292   4.860   3.434   6.878  0.6160 -0.1801  0.1011
   46MOL   C40320293   4.931   3.560   6.927  0.4594 -0.1188  0.5053
   46MOL   C40420294   5.035   3.531   7.041 -0.3581  0.4190  0.7182
   46MOL   C40520295   5.182   3.307   7.201 -0.4890  0.5668 -0.5825
   46MOL   H40620296   5.273   3.494   7.123 -2.1392  0.4953  0.4671
   46MOL   H40720297   5.181   3.471   6.910 -0.9476  1.3590  0.6475
   46MOL   H40820298   5.001   3.245   7.023 -0.1448  0.3460 -0.0711
   46MOL   H40920299   5.137   3.236   6.905  0.1059  2.0684 -0.1092
   46MOL   H41020300   4.908   3.236   6.795 -1.0693 -0.3966  1.4994
   46MOL   H41120301   5.009   3.369   6.746 -0.9327 -0.7932  0.0428
   46MOL   H41220302   4.798   3.383   6.952 -1.2246  0.2770 -1.1195
   46MOL   H41320303   4.788   3.454   6.800 -0.6834 -2.7868  0.5833
   46MOL   H41420304   4.974   3.610   6.840  1.4150  0.4073  1.2690
   46MOL   H41520305   4.859   3.637   6.954 -0.2451 -1.0682  1.3455
   46MOL   H41620306   5.087   3.618   7.081 -0.4081  2.3937 -3.2897
   46MOL   H41720307   4.985   3.496   7.132 -2.2771  1.4542  0.1020
   46MOL   H41820308   5.081   3.335   7.229 -0.1628 -0.0108  1.2777
   46MOL   H41920309   5.183   3.207   7.158  0.8964  1.1483 -1.9598
   46MOL   C42020310   5.270   3.304   7.331 -0.1870  0.2802 -0.0895
   46MOL   C42120311   5.269   3.161   7.404 -0.1418  0.5024 -0.4258
   46MOL   C42220312   5.322   3.169   7.543 -0.1328 -0.5787 -0.1006
   46MOL   C42320313   5.471   3.189   7.546 -0.4868  0.3359  0.3385
   46MOL   C42420314   5.555   3.082   7.462  0.2758  0.3999  0.4016
   46MOL   C42520315   5.496   3.057   7.325  0.0116  0.0647 -0.5212
   46MOL   C42620316   5.345   3.043   7.335  0.1164 -0.1606  0.1479
   46MOL   C42720317   5.216   3.425   7.419 -0.0056  0.1043  0.5177
   46MOL   H42820318   5.376   3.324   7.313 -0.7614  1.3300 -2.4336
   46MOL   H42920319   5.164   3.130   7.410  0.0288 -0.0026 -0.0379
   46MOL   H43020320   5.268   3.241   7.603  0.1222  0.6916 -1.3625
   46MOL   H43120321   5.304   3.071   7.587  0.2624 -1.0714 -1.0136
   46MOL   H43220322   5.513   3.287   7.520  2.4845 -0.8038  0.5966
   46MOL   H43320323   5.493   3.193   7.653  1.5098  0.8293 -0.0500
   46MOL   H43420324   5.556   2.988   7.516 -1.8492  1.1737  1.8561
   46MOL   H43520325   5.656   3.119   7.445  0.0195  1.0806  0.3527
   46MOL   H43620326   5.536   2.961   7.294  0.2203 -0.7490  2.1724
   46MOL   H43720327   5.529   3.140   7.262  0.5103 -0.2547 -0.6824
   46MOL   H43820328   5.303   3.009   7.241  0.7247  0.5678 -0.4041
   46MOL   H43920329   5.332   2.950   7.390  0.0477 -1.4657 -2.0061
   46MOL   H44020330   5.269   3.446   7.512 -0.4842  0.9282  0.6101
   46MOL   H44120331   5.205   3.516   7.361 -0.6405  0.0420  0.5280
   46MOL   H44220332   5.113   3.408   7.451 -0.3454 -0.1345 -0.6969
   47MOL     C120333   1.004   1.326   5.027 -0.7800  0.0462  0.0729
   47MOL     C220334   0.933   1.412   5.128  0.1314  0.2909 -0.0031
   47MOL     C320335   0.928   1.560   5.075 -0.3652 -0.5262 -0.4291
   47MOL     C420336   0.855   1.649   5.179  0.1062 -0.6520  0.0740
   47MOL     C520337   0.926   1.644   5.314  0.3687  0.0177  0.2605
   47MOL     C620338   0.926   1.497   5.375  0.1574  0.0915  0.3398
   47MOL     C720339   0.996   1.396   5.271 -0.3138 -1.2480  0.3368
   47MOL     C820340   1.162   1.330   5.024 -0.2536  0.1016  0.3836
   47MOL     H920341   0.966   1.226   5.047 -1.9494  0.4431 -0.1587
   47MOL    H1020342   0.836   1.362   5.129  1.4759 -2.5133 -3.2825
   47MOL    H1120343   1.029   1.594   5.053 -0.1066 -0.5786  0.6364
   47MOL    H1220344   0.880   1.575   4.979 -1.0278  0.3311  0.0239
   47MOL    H1320345   0.751   1.619   5.187  0.3556 -2.1431 -1.8769
   47MOL    H1420346   0.843   1.751   5.143  0.8383 -1.3029 -2.0823
   47MOL    H1520347   0.871   1.722   5.366 -0.9889  0.0824 -1.1994
   47MOL    H1620348   1.026   1.683   5.298  0.3571 -0.0929 -0.1104
   47MOL    H1720349   0.981   1.499   5.470  0.0564  0.3041  0.3948
   47MOL    H1820350   0.826   1.457   5.388 -0.1360  0.6938 -0.0678
   47MOL    H1920351   1.001   1.290   5.297 -0.5428 -1.1807  0.6569
   47MOL    H2020352   1.102   1.423   5.262 -0.7534 -0.2001 -1.8520
   47MOL    H2120353   1.203   1.313   5.123 -1.4366  0.8905  1.0143
   47MOL    H2220354   1.197   1.428   4.994  0.3550  0.1511  1.2276
   47MOL    H2320355   0.968   1.351   4.927 -0.3805 -1.0420 -0.3560
   47MOL    C2420356   1.237   1.215   4.944  0.3271  0.0301  0.1523
   47MOL    C2520357   1.379   1.268   4.892  0.1475 -0.1776  0.2353
   47MOL    C2620358   1.446   1.176   4.795  0.5800 -0.3693 -0.0682
   47MOL    C2720359   1.579   1.238   4.743 -0.4620  0.0551  0.0356
   47MOL    C2820360   1.679   1.272   4.855  0.5518 -0.2475 -0.1815
   47MOL    C2920361   1.612   1.360   4.964  0.9491  0.1222 -0.5657
   47MOL    C3020362   1.476   1.304   5.016  0.5925  0.1355  0.3666
   47MOL    C3120363   1.251   1.088   5.037  1.0332 -0.1220  0.1489
   47MOL    H3220364   1.179   1.190   4.856  0.3159 -2.4591  0.8254
   47MOL    H3320365   1.351   1.366   4.854 -1.9176 -0.5005  0.8208
   47MOL    H3420366   1.370   1.152   4.721  1.2470 -0.4393 -0.7367
   47MOL    H3520367   1.470   1.081   4.844  0.0269  0.2439  1.4281
   47MOL    H3620368   1.629   1.165   4.680 -0.1840 -0.3305  0.7078
   47MOL    H3720369   1.548   1.330   4.692  0.3721  0.5896  0.4779
   47MOL    H3820370   1.770   1.323   4.825  0.1957  1.0469  0.8676
   47MOL    H3920371   1.724   1.188   4.908 -0.3373 -0.2724  0.5655
   47MOL    H4020372   1.672   1.362   5.055  2.5790  1.6041 -1.6391
   47MOL    H4120373   1.604   1.462   4.926  0.6273  0.2284 -0.2037
   47MOL    H4220374   1.498   1.212   5.070  2.6691 -0.2507 -1.0799
   47MOL    H4320375   1.426   1.376   5.081 -1.1946 -2.0233  1.4784
   47MOL    H4420376   1.160   1.089   5.097  0.3246 -2.5352 -0.8152
   47MOL    H4520377   1.329   1.120   5.105  1.0382 -0.4842  0.3119
   47MOL    C4620378   1.267   0.945   4.982  0.7765  0.3415  0.3586
   47MOL    C4720379   1.134   0.858   4.987 -0.2929  0.0143 -0.4635
   47MOL    C4820380   1.028   0.906   4.884  0.5786  0.0521 -0.2240
   47MOL    C4920381   0.920   0.800   4.867 -0.8783 -0.1514  0.2017
   47MOL    C5020382   0.848   0.780   4.996 -0.7683  0.1920  0.1373
   47MOL    C5120383   0.936   0.761   5.124 -0.8414  0.8873  0.3434
   47MOL    C5220384   1.058   0.854   5.123  0.0831 -0.3024 -0.1264
   47MOL    C5320385   1.386   0.873   5.062 -0.4902 -0.1634  0.4908
   47MOL    H5420386   1.304   0.958   4.880  0.9346 -0.7986  0.2600
   47MOL    H5520387   1.161   0.759   4.950  1.6017 -0.6541  2.6021
   47MOL    H5620388   0.995   1.007   4.905 -0.0950  0.3589 -2.5516
   47MOL    H5720389   1.075   0.921   4.786 -0.9653  0.6107 -0.8882
   47MOL    H5820390   0.967   0.706   4.838 -0.2584  0.0627  0.4977
   47MOL    H5920391   0.846   0.829   4.793 -0.5597 -0.4387 -0.2281
   47MOL    H6020392   0.778   0.861   5.012  2.5350  3.4796 -1.4076
   47MOL    H6120393   0.784   0.692   4.984 -2.6604  1.2838  1.8523
   47MOL    H6220394   0.966   0.657   5.135  2.0356  1.4381 -1.9046
   47MOL    H6320395   0.878   0.777   5.215  1.4145  3.3961  1.4058
   47MOL    H6420396   1.014   0.950   5.149  0.3866 -0.1753 -0.0812
   47MOL    H6520397   1.128   0.840   5.205 -0.5474  1.4271  0.7265
   47MOL    H6620398   1.346   0.850   5.161 -1.0383  2.0803  0.8048
   47MOL    H6720399   1.470   0.942   5.067 -1.0553  0.8799 -2.9077
   47MOL    C6820400   1.439   0.734   5.013 -0.1892 -0.0355 -0.3286
   47MOL    C6920401   1.455   0.713   4.856  0.2605  0.3003  0.3295
   47MOL    C7020402   1.559   0.796   4.792 -0.2915 -0.1317 -0.0561
   47MOL    C7120403   1.554   0.792   4.631  0.5899 -0.4114 -0.1858
   47MOL    C7220404   1.548   0.649   4.579  0.1819  0.4097  0.2437
   47MOL    C7320405   1.444   0.555   4.662 -0.2875 -0.1037 -0.3265
   47MOL    C7420406   1.454   0.565   4.814 -0.1598 -0.5199  0.1829
   47MOL    C7520407   1.570   0.704   5.091 -0.0699  0.0917  0.0852
   47MOL    H7620408   1.361   0.666   5.046 -1.3044  1.5989  0.4925
   47MOL    H7720409   1.360   0.747   4.815 -0.0453  1.1805  1.7023
   47MOL    H7820410   1.656   0.764   4.832 -0.8686 -0.5286  1.0570
   47MOL    H7920411   1.559   0.898   4.829 -0.4044  0.2020 -0.9706
   47MOL    H8020412   1.475   0.860   4.599 -0.0959 -1.7140 -1.2712
   47MOL    H8120413   1.631   0.854   4.584 -1.2712  0.7168 -1.8385
   47MOL    H8220414   1.643   0.598   4.567 -0.2544 -0.4348  0.3219
   47MOL    H8320415   1.505   0.648   4.479 -0.4112  1.1383  0.4798
   47MOL    H8420416   1.462   0.449   4.648  0.9824  0.2044 -1.1166
   47MOL    H8520417   1.340   0.577   4.639 -1.1611 -0.7705  2.6776
   47MOL    H8620418   1.547   0.522   4.851  1.9104  0.3870 -3.6827
   47MOL    H8720419   1.367   0.512   4.854 -0.5580  0.1972  0.2852
   47MOL    H8820420   1.614   0.618   5.040  2.2105  1.6847 -0.7017
   47MOL    H8920421   1.632   0.792   5.073 -1.4911  0.6178 -2.5902
   47MOL    C9020422   1.562   0.661   5.236 -0.5805 -0.3510  0.0526
   47MOL    C9120423   1.483   0.523   5.254  0.2102 -0.1829  0.4997
   47MOL    C9220424   1.575   0.397   5.234 -0.3115 -0.4146 -0.6839
   47MOL    C9320425   1.495   0.272   5.252  0.3770  0.1566  0.8754
   47MOL    C9420426   1.427   0.261   5.390 -0.2620 -0.1915 -0.3008
   47MOL    C9520427   1.344   0.386   5.417  0.0862  0.4581 -0.3843
   47MOL    C9620428   1.418   0.521   5.396 -0.0498  0.7272 -0.4057
   47MOL    C9720429   1.700   0.671   5.300 -0.8351 -0.1684 -0.2365
   47MOL    H9820430   1.508   0.732   5.299  3.2586 -0.1271  3.2964
   47MOL    H9920431   1.414   0.510   5.171  3.2638  0.2646 -2.2050
   47MOL   H10020432   1.658   0.400   5.304 -0.4503  0.5154 -0.5636
   47MOL   H10120433   1.620   0.395   5.134 -1.8591  0.3799 -1.4197
   47MOL   H10220434   1.560   0.185   5.243 -0.4292 -0.5715  1.9247
   47MOL   H10320435   1.413   0.270   5.179  1.5509 -1.4322 -0.4451
   47MOL   H10420436   1.516   0.263   5.452 -0.1395  1.4400 -0.4947
   47MOL   H10520437   1.380   0.167   5.416  0.8307 -0.4373  0.7988
   47MOL   H10620438   1.252   0.385   5.358 -2.0219  2.2031  2.7268
   47MOL   H10720439   1.303   0.382   5.518 -1.6700  0.0155 -1.0987
   47MOL   H10820440   1.350   0.606   5.406 -0.7566  0.2209 -0.8270
   47MOL   H10920441   1.488   0.530   5.479  0.1034  0.3104 -0.4891
   47MOL   H11020442   1.703   0.625   5.399 -0.4591  2.0289  0.7870
   47MOL   H11120443   1.774   0.611   5.246  0.5581 -1.1397  2.5862
   47MOL   C11220444   1.765   0.817   5.316  0.3980  0.2575  0.1291
   47MOL   C11320445   1.914   0.819   5.274 -0.5532 -0.5258 -0.0231
   47MOL   C11420446   2.007   0.754   5.378 -0.3769  0.3843  0.0279
   47MOL   C11520447   2.146   0.722   5.320  0.2715  0.1404 -0.0206
   47MOL   C11620448   2.208   0.856   5.269 -0.8377  0.1863 -0.0569
   47MOL   C11720449   2.117   0.937   5.181 -0.0482  0.7626 -0.3567
   47MOL   C11820450   1.974   0.957   5.231 -0.6877 -0.4428  0.1672
   47MOL   C11920451   1.750   0.887   5.458  0.0942 -0.3554  0.4633
   47MOL   H12020452   1.713   0.884   5.247  0.4770  0.0606 -0.1217
   47MOL   H12120453   1.912   0.746   5.193 -4.5534 -0.5139 -0.0260
   47MOL   H12220454   1.970   0.658   5.416  2.1562 -0.9417 -0.6947
   47MOL   H12320455   2.017   0.817   5.466  0.4441  1.9560 -1.1578
   47MOL   H12420456   2.206   0.676   5.399 -0.3410 -0.1073  0.3094
   47MOL   H12520457   2.140   0.654   5.235  0.8920 -0.1727  0.1798
   47MOL   H12620458   2.224   0.919   5.356 -2.6712 -0.5072  0.8029
   47MOL   H12720459   2.309   0.842   5.229 -0.0790  1.4963  1.3767
   47MOL   H12820460   2.158   1.035   5.155  0.4445  0.7912  0.4981
   47MOL   H12920461   2.109   0.882   5.087  2.7668  0.6883 -0.5805
   47MOL   H13020462   1.914   1.009   5.156 -0.4241  1.2367  1.0892
   47MOL   H13120463   1.968   1.017   5.321  0.5863 -0.2235  0.1138
   47MOL   H13220464   1.791   0.988   5.450 -0.0351 -0.4103 -0.9748
   47MOL   H13320465   1.813   0.831   5.527 -0.3060  0.9820  1.9517
   47MOL   C13420466   1.605   0.896   5.514 -0.0540 -0.1108  0.7561
   47MOL   C13520467   1.507   1.000   5.447  0.3671  0.2576 -0.2620
   47MOL   C13620468   1.542   1.148   5.485 -0.3717  0.5694  0.9692
   47MOL   C13720469   1.449   1.242   5.408 -0.6019 -0.6608  0.8732
   47MOL   C13820470   1.299   1.218   5.434  0.2282  0.5082  0.2662
   47MOL   C13920471   1.259   1.073   5.415  0.5214 -0.0536  0.1704
   47MOL   C14020472   1.360   0.973   5.484 -0.6107  0.1442 -0.0281
   47MOL   C14120473   1.624   0.922   5.666 -0.8520  0.0368 -0.3247
   47MOL   H14220474   1.554   0.799   5.509 -0.1231 -0.0319 -0.1825
   47MOL   H14320475   1.506   0.979   5.340 -0.5159 -0.5174 -0.1082
   47MOL   H14420476   1.547   1.169   5.592 -1.9595  2.0090  0.7966
   47MOL   H14520477   1.640   1.172   5.443  0.6324 -2.7540  1.3243
   47MOL   H14620478   1.457   1.229   5.300  0.1451 -0.0867  0.8575
   47MOL   H14720479   1.468   1.347   5.427 -1.2104 -0.1689 -1.0923
   47MOL   H14820480   1.279   1.250   5.536 -1.7704  0.5773 -0.1179
   47MOL   H14920481   1.246   1.287   5.369 -0.7715  0.1478  0.6881
   47MOL   H15020482   1.264   1.049   5.308  1.4668  3.3835 -0.6175
   47MOL   H15120483   1.156   1.057   5.447  0.2420  0.3819 -0.5087
   47MOL   H15220484   1.342   0.979   5.591  0.0752 -1.6013  0.2106
   47MOL   H15320485   1.322   0.878   5.446  0.4714 -0.7352  1.0663
   47MOL   H15420486   1.532   0.965   5.706 -1.3861 -0.3942 -1.0688
   47MOL   H15520487   1.700   1.000   5.673  0.4259 -1.2988  1.0904
   47MOL   C15620488   1.684   0.812   5.760 -0.8631 -0.2077 -0.1041
   47MOL   C15720489   1.584   0.690   5.775  0.5473  0.2742  0.4707
   47MOL   C15820490   1.648   0.561   5.838 -0.3155  1.4616 -0.2240
   47MOL   C15920491   1.555   0.440   5.860 -0.7805 -0.3594  0.0856
   47MOL   C16020492   1.420   0.482   5.934  0.3929  0.6580  0.3513
   47MOL   C16120493   1.355   0.612   5.870 -0.0274 -0.7058 -0.4643
   47MOL   C16220494   1.458   0.723   5.855  0.5840 -0.8336  0.2336
   47MOL   C16320495   1.734   0.881   5.897 -0.5700  1.0259 -0.6733
   47MOL   H16420496   1.764   0.757   5.710 -1.2254 -0.7059 -0.1337
   47MOL   H16520497   1.548   0.653   5.679  0.4046 -0.9059  0.9698
   47MOL   H16620498   1.736   0.524   5.786  0.4437  1.5376  0.9980
   47MOL   H16720499   1.681   0.592   5.937  2.1054  0.0430 -0.5663
   47MOL   H16820500   1.522   0.394   5.767 -2.3855  2.6754 -0.9194
   47MOL   H16920501   1.607   0.369   5.924 -2.0750  0.8955  2.6239
   47MOL   H17020502   1.440   0.498   6.039  2.2154 -1.1007  0.2974
   47MOL   H17120503   1.358   0.393   5.936  3.0018 -1.3339 -2.3428
   47MOL   H17220504   1.282   0.660   5.935  0.6710 -0.3406  0.0606
   47MOL   H17320505   1.312   0.569   5.779 -0.3762  0.9384 -1.1023
   47MOL   H17420506   1.409   0.810   5.810  0.7251 -1.6887 -1.6375
   47MOL   H17520507   1.486   0.754   5.955 -1.8566  0.1567  0.6528
   47MOL   H17620508   1.691   0.818   5.975 -0.9160  0.8987 -0.9665
   47MOL   H17720509   1.690   0.977   5.923  0.6329  1.4708 -0.2300
   47MOL   C17820510   1.887   0.877   5.929 -0.6097  0.1632  0.3512
   47MOL   C17920511   1.958   0.979   5.837  0.2739 -0.4582  0.4719
   47MOL   C18020512   2.109   0.951   5.832 -0.3551  0.5623  0.3251
   47MOL   C18120513   2.187   1.041   5.726  0.4541  0.5089 -0.4167
   47MOL   C18220514   2.136   1.185   5.736 -0.1740 -0.4551  0.1877
   47MOL   C18320515   1.995   1.203   5.747  0.1467  0.0702 -1.0356
   47MOL   C18420516   1.929   1.129   5.862  0.2445  0.6166  0.0626
   47MOL   C18520517   1.913   0.900   6.079 -0.0802 -0.8708  0.0548
   47MOL   H18620518   1.904   0.772   5.906 -0.7815  0.0515  0.7419
   47MOL   H18720519   1.916   0.946   5.743 -2.3752 -0.6378  1.6732
   47MOL   H18820520   2.143   0.960   5.935 -2.9808  0.2549  1.2562
   47MOL   H18920521   2.126   0.846   5.807 -3.7079  0.0132  0.1505
   47MOL   H19020522   2.159   1.001   5.629  1.6171 -0.3092 -0.4357
   47MOL   H19120523   2.296   1.028   5.732  0.3902 -0.9655 -1.9990
   47MOL   H19220524   2.187   1.233   5.820 -2.5002  2.5832 -0.0847
   47MOL   H19320525   2.167   1.238   5.647 -2.5600  2.3366  0.9454
   47MOL   H19420526   1.962   1.173   5.647 -0.3305 -0.5765 -0.6867
   47MOL   H19520527   1.970   1.309   5.754 -1.8765 -0.5296  1.7960
   47MOL   H19620528   1.970   1.169   5.954  0.7884 -0.1622  0.1628
   47MOL   H19720529   1.823   1.155   5.865 -0.0962 -0.6096 -0.7682
   47MOL   H19820530   2.015   0.931   6.101 -0.7465  0.3109  1.5748
   47MOL   H19920531   1.862   0.995   6.097  0.6406 -0.4950  0.1752
   47MOL   C20020532   1.866   0.792   6.185 -0.3595 -0.4153  0.0851
   47MOL   C20120533   1.958   0.669   6.204 -0.2218 -0.2011  0.0139
   47MOL   C20220534   2.106   0.709   6.239 -0.1998  0.6470  0.6141
   47MOL   C20320535   2.202   0.588   6.265 -0.0428  0.6423  0.0262
   47MOL   C20420536   2.137   0.482   6.346 -0.0451  0.1321  0.0968
   47MOL   C20520537   2.002   0.440   6.294 -0.3052  0.4127  0.2390
   47MOL   C20620538   1.901   0.552   6.286  0.2622  0.4313  0.2971
   47MOL   C20720539   1.826   0.861   6.323 -0.0106 -0.5875  0.2689
   47MOL   H20820540   1.771   0.745   6.159 -0.1079 -2.1989  2.2111
   47MOL   H20920541   1.957   0.635   6.100 -0.3925  2.1453 -0.7886
   47MOL   H21020542   2.121   0.755   6.336  0.9021  1.0848  0.2477
   47MOL   H21120543   2.150   0.778   6.166  0.6168 -1.9224 -1.3969
   47MOL   H21220544   2.239   0.556   6.167  1.0903  0.1997  0.5924
   47MOL   H21320545   2.292   0.624   6.316 -1.2962  1.9254  1.3876
   47MOL   H21420546   2.213   0.405   6.353 -0.8327 -1.1039 -3.5460
   47MOL   H21520547   2.112   0.515   6.447 -1.3404 -2.2200  0.6051
   47MOL   H21620548   2.006   0.401   6.192 -2.3907  0.5759  0.0855
   47MOL   H21720549   1.958   0.359   6.352 -2.1870 -0.2765 -2.0507
   47MOL   H21820550   1.812   0.498   6.254 -0.1706 -0.2568  2.5860
   47MOL   H21920551   1.891   0.582   6.390 -0.2377  0.3212  0.2816
   47MOL   H22020552   1.799   0.789   6.400 -1.2915 -0.1030  0.2765
   47MOL   H22120553   1.915   0.915   6.357  0.4286  0.0513 -1.8455
   47MOL   C22220554   1.713   0.963   6.331 -0.2107  0.2078 -0.3075
   47MOL   C22320555   1.579   0.911   6.273  0.5527 -0.0379 -0.2680
   47MOL   C22420556   1.488   1.029   6.236 -0.0092  0.4397  0.0941
   47MOL   C22520557   1.358   0.981   6.170  0.9120  0.0941 -0.3856
   47MOL   C22620558   1.282   0.882   6.261 -1.3450  0.2234  0.3183
   47MOL   C22720559   1.368   0.758   6.293  0.1941 -0.2981 -0.3495
   47MOL   C22820560   1.503   0.799   6.354  0.7267  0.4635 -0.7349
   47MOL   C22920561   1.698   1.016   6.480  0.0418  0.8825  0.0688
   47MOL   H23020562   1.748   1.040   6.262  0.6062  0.7643  0.7252
   47MOL   H23120563   1.598   0.862   6.177  0.2824  1.2379 -0.9952
   47MOL   H23220564   1.462   1.090   6.322 -1.6274  1.2671 -0.9423
   47MOL   H23320565   1.546   1.094   6.170  0.3326 -0.7749 -0.8163
   47MOL   H23420566   1.369   0.925   6.077 -1.7483 -0.7213 -0.2697
   47MOL   H23520567   1.296   1.069   6.153  1.6623  1.5240  3.6917
   47MOL   H23620568   1.251   0.922   6.358 -3.6854  1.4829 -0.8956
   47MOL   H23720569   1.201   0.832   6.208  0.0918 -1.0885 -0.6943
   47MOL   H23820570   1.394   0.687   6.215  0.2349 -1.7722  0.9867
   47MOL   H23920571   1.320   0.689   6.363 -0.4908  0.0591 -0.4628
   47MOL   H24020572   1.479   0.834   6.454 -0.0409  0.4429 -0.9123
   47MOL   H24120573   1.558   0.708   6.378 -3.7151 -1.6886  1.7118
   47MOL   H24220574   1.730   0.935   6.545 -2.4747 -2.3932 -2.6034
   47MOL   H24320575   1.593   1.036   6.500 -0.5347 -2.1743  0.2818
   47MOL   C24420576   1.799   1.130   6.507  0.1393 -0.4281  0.5227
   47MOL   C24520577   1.824   1.161   6.656  0.4656 -0.2101 -0.1820
   47MOL   C24620578   1.929   1.069   6.706  0.3927 -0.1863  0.1378
   47MOL   C24720579   1.955   1.091   6.854  0.0314  0.0214  0.6601
   47MOL   C24820580   1.837   1.083   6.953 -0.6444  0.5038 -0.0407
   47MOL   C24920581   1.723   1.170   6.892 -0.0392 -0.2631 -0.3777
   47MOL   C25020582   1.694   1.143   6.739  0.7105 -0.2197 -0.3217
   47MOL   C25120583   1.758   1.254   6.425  0.1448 -0.3777 -0.3537
   47MOL   H25220584   1.894   1.110   6.458 -1.9118 -1.1568 -3.3966
   47MOL   H25320585   1.857   1.262   6.679  1.3426 -0.7799  1.0517
   47MOL   H25420586   2.020   1.092   6.650 -1.1445  1.0756 -1.8599
   47MOL   H25520587   1.901   0.967   6.679  0.7626  0.5808 -3.2608
   47MOL   H25620588   2.037   1.024   6.879  0.4724 -0.2503 -1.4209
   47MOL   H25720589   2.005   1.187   6.863  0.9154 -0.4293  0.5588
   47MOL   H25820590   1.796   0.982   6.963 -1.5336  0.7832 -0.8123
   47MOL   H25920591   1.874   1.125   7.046  0.7979 -0.2364 -0.2557
   47MOL   H26020592   1.737   1.277   6.908 -1.2184 -0.0473 -0.7023
   47MOL   H26120593   1.633   1.146   6.949  1.3021  0.4908  2.1018
   47MOL   H26220594   1.653   1.042   6.735 -5.1503  1.9650 -1.2860
   47MOL   H26320595   1.614   1.210   6.707 -0.6965 -1.5245  0.4277
   47MOL   H26420596   1.701   1.322   6.488  0.4191  0.1637 -0.6767
   47MOL   H26520597   1.684   1.230   6.348  0.1379 -1.9548  0.1342
   47MOL   C26620598   1.872   1.330   6.355  0.6890  0.2901  0.6934
   47MOL   C26720599   1.826   1.445   6.262  0.1053  0.4840 -0.2071
   47MOL   C26820600   1.721   1.535   6.329 -0.0889  0.3188  0.9156
   47MOL   C26920601   1.687   1.658   6.246 -0.8901 -0.2952  0.2055
   47MOL   C27020602   1.629   1.614   6.115  0.6934  0.5369  0.4542
   47MOL   C27120603   1.726   1.518   6.048 -0.0028  0.4062 -0.3406
   47MOL   C27220604   1.761   1.396   6.136  0.9075  0.1140  0.3744
   47MOL   C27320605   1.974   1.389   6.469  0.0082  0.2898 -0.2932
   47MOL   H27420606   1.921   1.254   6.293  0.4701  1.1557 -0.5613
   47MOL   H27520607   1.914   1.506   6.240  0.0617  0.4607 -0.4531
   47MOL   H27620608   1.623   1.487   6.337 -0.2625  0.4314 -0.3860
   47MOL   H27720609   1.765   1.560   6.426  1.2497  0.2906  0.3200
   47MOL   H27820610   1.783   1.710   6.234  0.0825 -1.6191  1.9414
   47MOL   H27920611   1.620   1.725   6.300 -0.4170 -0.5270  1.0922
   47MOL   H28020612   1.534   1.565   6.136  0.9290  0.4316  1.2727
   47MOL   H28120613   1.599   1.704   6.060 -1.3287 -0.9711 -1.0324
   47MOL   H28220614   1.814   1.568   6.007  0.2393 -0.4990 -0.9481
   47MOL   H28320615   1.691   1.490   5.949 -1.3691  0.4627  0.1200
   47MOL   H28420616   1.829   1.331   6.080  0.2212  1.3498 -1.9860
   47MOL   H28520617   1.672   1.339   6.163  2.4449 -2.3838  0.3683
   47MOL   H28620618   2.018   1.304   6.521 -2.9952 -0.5271  1.0457
   47MOL   H28720619   1.921   1.449   6.543 -0.0138 -1.1268  0.8499
   47MOL   C28820620   2.095   1.470   6.412  0.5336 -0.1706  0.1811
   47MOL   C28920621   2.167   1.413   6.290 -0.3566 -0.0805  0.0196
   47MOL   C29020622   2.268   1.512   6.227 -0.0395 -0.5542 -0.2757
   47MOL   C29120623   2.298   1.472   6.092 -0.1637  0.5475  1.0810
   47MOL   C29220624   2.364   1.328   6.086 -0.7763  0.3099 -0.6796
   47MOL   C29320625   2.289   1.221   6.174  0.1307  0.5299 -0.1354
   47MOL   C29420626   2.245   1.277   6.313  0.2715  0.2779 -0.4594
   47MOL   C29520627   2.197   1.506   6.532 -0.2434  0.1277 -0.0557
   47MOL   H29620628   2.048   1.559   6.370 -1.3589 -0.5219  1.4643
   47MOL   H29720629   2.092   1.389   6.215  0.2685  0.1329 -0.6838
   47MOL   H29820630   2.218   1.609   6.227 -1.4808 -1.2719 -0.1122
   47MOL   H29920631   2.362   1.521   6.281  0.5865  2.9054 -1.8382
   47MOL   H30020632   2.200   1.465   6.045 -0.7000 -0.5942  2.3418
   47MOL   H30120633   2.348   1.555   6.042 -1.6615  1.2047  0.6504
   47MOL   H30220634   2.468   1.336   6.120 -0.8424 -1.5487  0.0343
   47MOL   H30320635   2.367   1.292   5.983  2.2286 -0.8723 -0.2393
   47MOL   H30420636   2.358   1.138   6.185 -1.1686 -0.6126 -0.4525
   47MOL   H30520637   2.199   1.192   6.119  0.6587  2.7984 -2.3522
   47MOL   H30620638   2.329   1.295   6.379 -1.5633  1.9700  1.4730
   47MOL   H30720639   2.166   1.218   6.361 -1.5893  3.3853  0.4115
   47MOL   H30820640   2.232   1.411   6.571  0.0566  0.1465 -0.2781
   47MOL   H30920641   2.290   1.548   6.495 -0.3256  0.8291  0.5263
   47MOL   C31020642   2.146   1.609   6.636  0.5143 -0.4067 -0.0839
   47MOL   C31120643   2.222   1.604   6.771  0.0460 -0.2873  0.2502
   47MOL   C31220644   2.204   1.468   6.843 -0.3383  0.0530  0.9493
   47MOL   C31320645   2.283   1.451   6.972 -0.0939 -0.1117  0.2558
   47MOL   C31420646   2.431   1.472   6.943 -0.6239  0.7564  0.3428
   47MOL   C31520647   2.450   1.608   6.888  0.7392 -0.2333  0.8236
   47MOL   C31620648   2.379   1.635   6.756 -0.2767  0.4831 -0.1691
   47MOL   C31720649   2.142   1.749   6.574  0.0150  0.3648 -0.6516
   47MOL   H31820650   2.044   1.585   6.665  0.6411 -0.7015  0.1150
   47MOL   H31920651   2.178   1.676   6.840 -0.1781 -2.6750  2.6364
   47MOL   H32020652   2.098   1.450   6.860  0.0107 -2.6420  0.4492
   47MOL   H32120653   2.220   1.384   6.776  0.1243  1.1188 -0.3111
   47MOL   H32220654   2.271   1.351   7.014 -1.7599  0.8764  2.2828
   47MOL   H32320655   2.241   1.522   7.044 -1.5415 -1.4872  0.8133
   47MOL   H32420656   2.489   1.461   7.035 -0.6761 -0.3173  0.2563
   47MOL   H32520657   2.469   1.395   6.877  0.1125  0.4054  1.1646
   47MOL   H32620658   2.416   1.677   6.965 -2.5043 -1.2927  0.4270
   47MOL   H32720659   2.553   1.644   6.893  0.1312  1.3979  2.0579
   47MOL   H32820660   2.416   1.568   6.679 -0.5254  1.3912 -1.0980
   47MOL   H32920661   2.401   1.738   6.728  1.8099  0.0070 -0.3300
   47MOL   H33020662   2.092   1.760   6.478 -0.3704  0.7848 -0.4039
   47MOL   H33120663   2.247   1.768   6.554  0.1291  1.0379  0.5368
   47MOL   C33220664   2.080   1.867   6.647 -0.2722 -0.4021 -0.4421
   47MOL   C33320665   1.934   1.838   6.704  0.1818 -1.1277 -0.0154
   47MOL   C33420666   1.822   1.788   6.610 -0.2810 -0.3026  0.1314
   47MOL   C33520667   1.696   1.739   6.692 -0.2752  0.0327  0.0163
   47MOL   C33620668   1.654   1.858   6.785  0.5905 -0.3895 -0.2861
   47MOL   C33720669   1.762   1.909   6.875  1.1591  0.6494  0.1603
   47MOL   C33820670   1.870   1.953   6.785  0.2528 -0.1743 -0.4751
   47MOL   C33920671   2.082   2.001   6.568 -0.1333 -0.2752  0.7450
   47MOL   H34020672   2.142   1.881   6.735 -0.1943 -0.6782 -0.4501
   47MOL   H34120673   1.934   1.756   6.776 -1.3064 -2.2054 -1.1924
   47MOL   H34220674   1.787   1.868   6.545  1.3874 -0.4096 -0.9245
   47MOL   H34320675   1.858   1.723   6.531 -3.0723  1.1263 -2.3782
   47MOL   H34420676   1.608   1.708   6.636 -0.5017 -0.7791  0.8144
   47MOL   H34520677   1.740   1.653   6.742 -0.5070  0.2913  0.6761
   47MOL   H34620678   1.620   1.944   6.727  1.2908 -0.1537 -0.3541
   47MOL   H34720679   1.563   1.827   6.837  0.4149 -0.9800 -0.9285
   47MOL   H34820680   1.804   1.826   6.931 -0.6616 -0.4070 -0.0072
   47MOL   H34920681   1.716   1.991   6.930  0.0669 -0.3295  0.7126
   47MOL   H35020682   1.948   1.994   6.849  0.0539 -0.1752 -0.2294
   47MOL   H35120683   1.843   2.041   6.727  2.0788  0.6674 -0.0968
   47MOL   H35220684   2.008   2.079   6.582 -0.6332 -0.4431 -0.8454
   47MOL   H35320685   2.068   1.988   6.461  2.3012  1.9433  0.1009
   47MOL   C35420686   2.223   2.072   6.586 -0.3507  0.6033 -0.6448
   47MOL   C35520687   2.243   2.175   6.700  0.1190  0.4413  0.2384
   47MOL   C35620688   2.261   2.113   6.838  0.3467  0.2723 -0.4601
   47MOL   C35720689   2.299   2.222   6.936  0.0814 -0.6499 -0.3288
   47MOL   C35820690   2.196   2.337   6.946  0.4609 -0.1304  0.6416
   47MOL   C35920691   2.174   2.397   6.810  0.3419  0.7433  0.9133
   47MOL   C36020692   2.130   2.283   6.707 -0.2998 -0.3046 -0.6636
   47MOL   C36120693   2.261   2.135   6.442  0.4961 -0.1895 -0.2015
   47MOL   H36220694   2.300   1.997   6.606  1.3550  2.5966  0.4511
   47MOL   H36320695   2.340   2.225   6.698  0.9474 -1.1713 -0.4655
   47MOL   H36420696   2.342   2.041   6.848  0.8366  0.8240 -0.4459
   47MOL   H36520697   2.169   2.071   6.879  0.3789  0.3374 -0.3191
   47MOL   H36620698   2.307   2.173   7.033 -2.1754 -0.7089 -0.1555
   47MOL   H36720699   2.393   2.271   6.908 -0.7805  0.8996 -0.5803
   47MOL   H36820700   2.101   2.293   6.974  0.2381  0.4127  0.7423
   47MOL   H36920701   2.228   2.417   7.013  1.6216  1.4749 -1.7502
   47MOL   H37020702   2.096   2.472   6.818  1.2950  1.9370 -0.7751
   47MOL   H37120703   2.260   2.455   6.778  1.1176 -0.4806  0.7666
   47MOL   H37220704   2.117   2.333   6.611 -0.9772  2.0982  0.6401
   47MOL   H37320705   2.032   2.239   6.722 -0.9680  1.8066  1.5879
   47MOL   H37420706   2.195   2.219   6.422  0.3933 -0.6324 -1.7868
   47MOL   H37520707   2.219   2.071   6.365 -1.0109  0.4485  0.0687
   47MOL   C37620708   2.410   2.181   6.419 -0.2624  0.6245 -0.3805
   47MOL   C37720709   2.501   2.055   6.417 -0.1230  0.5923  0.4446
   47MOL   C37820710   2.652   2.069   6.455 -0.2079 -0.0537 -0.0742
   47MOL   C37920711   2.733   1.939   6.456 -0.6767 -0.1719  0.2428
   47MOL   C38020712   2.710   1.854   6.329  0.1093 -0.3524 -0.0360
   47MOL   C38120713   2.557   1.831   6.306  0.9043  0.3739 -0.0628
   47MOL   C38220714   2.483   1.972   6.278  0.1816  0.2931 -0.4023
   47MOL   C38320715   2.429   2.266   6.299  0.5637 -0.3470  0.0314
   47MOL   H38420716   2.442   2.244   6.502  2.1317 -0.8925 -0.0862
   47MOL   H38520717   2.469   1.980   6.490 -0.2558 -0.3947 -0.6259
   47MOL   H38620718   2.687   2.137   6.377 -1.6342 -0.7695 -1.3638
   47MOL   H38720719   2.655   2.114   6.554 -1.4588 -2.0192  0.8974
   47MOL   H38820720   2.693   1.882   6.539 -0.1115 -0.0777  0.5818
   47MOL   H38920721   2.836   1.969   6.477 -1.1342  0.3766  1.8136
   47MOL   H39020722   2.751   1.905   6.242 -1.8684 -1.5372 -1.7137
   47MOL   H39120723   2.755   1.755   6.335  0.2087 -0.1617  3.1617
   47MOL   H39220724   2.537   1.745   6.242  2.1004 -1.4895  2.0132
   47MOL   H39320725   2.514   1.783   6.394 -0.4082 -0.6092 -1.2221
   47MOL   H39420726   2.539   2.024   6.201  0.1774 -0.2330 -0.7601
   47MOL   H39520727   2.380   1.965   6.241 -0.2768  2.3685  0.3638
   47MOL   H39620728   2.380   2.224   6.211  0.3471 -1.3551  0.6169
   47MOL   H39720729   2.532   2.260   6.265  0.7680  1.4006  0.3055
   47MOL   C39820730   2.401   2.418   6.319  0.7423  0.4176 -0.3490
   47MOL   C39920731   2.526   2.513   6.345 -0.4080 -0.4486  0.1286
   47MOL   C40020732   2.592   2.479   6.477 -0.4998  0.0357  0.5667
   47MOL   C40120733   2.709   2.574   6.504  0.0213  0.1955 -0.3605
   47MOL   C40220734   2.811   2.580   6.386 -0.5037  0.1792  0.0177
   47MOL   C40320735   2.743   2.620   6.262  0.2780  0.7050 -0.0595
   47MOL   C40420736   2.633   2.513   6.233  0.8387 -0.3006  0.5384
   47MOL   C40520737   2.307   2.467   6.201 -0.4220 -0.1955 -0.0482
   47MOL   H40620738   2.349   2.425   6.415 -0.0817 -2.0400 -0.5953
   47MOL   H40720739   2.493   2.617   6.355  1.7587  0.3019 -0.2214
   47MOL   H40820740   2.639   2.381   6.474 -0.8193 -0.1539  1.5738
   47MOL   H40920741   2.526   2.462   6.561  0.4016 -1.6137  0.9582
   47MOL   H41020742   2.759   2.533   6.591 -3.5934  1.0906  2.2665
   47MOL   H41120743   2.675   2.676   6.522 -0.0959  0.2436 -0.8287
   47MOL   H41220744   2.854   2.483   6.361  0.4979  0.5136  0.3858
   47MOL   H41320745   2.901   2.638   6.406 -0.3133 -0.5053  1.2385
   47MOL   H41420746   2.709   2.723   6.252 -1.3709  0.1752 -0.0672
   47MOL   H41520747   2.820   2.606   6.186 -2.2366 -3.6139 -2.0086
   47MOL   H41620748   2.590   2.534   6.135 -0.6858  0.9077  1.4579
   47MOL   H41720749   2.679   2.416   6.212 -0.4938 -0.2556 -2.8910
   47MOL   H41820750   2.347   2.449   6.101 -1.9083 -0.2871 -0.6411
   47MOL   H41920751   2.218   2.405   6.213 -1.2443  1.0555  0.4588
   47MOL   C42020752   2.258   2.616   6.205  0.2272 -0.5506  0.0071
   47MOL   C42120753   2.195   2.658   6.344 -0.4002 -0.1312 -0.1927
   47MOL   C42220754   2.075   2.567   6.389 -0.7486 -0.2228 -0.8127
   47MOL   C42320755   2.028   2.605   6.528  0.7805 -0.1374 -0.1373
   47MOL   C42420756   1.988   2.751   6.542 -0.3607 -0.2695  0.4233
   47MOL   C42520757   2.094   2.846   6.482  0.3439  0.2027 -0.6663
   47MOL   C42620758   2.150   2.802   6.339  1.3587 -0.5738 -0.3003
   47MOL   C42720759   2.173   2.642   6.085 -0.1378 -0.2603  0.1270
   47MOL   H42820760   2.354   2.668   6.199 -0.2566  0.1755 -1.6539
   47MOL   H42920761   2.263   2.652   6.429  0.3116  3.0442 -0.4909
   47MOL   H43020762   1.989   2.559   6.323 -1.4626 -0.8437  0.1948
   47MOL   H43120763   2.117   2.467   6.400 -0.3634 -0.0723 -0.8678
   47MOL   H43220764   1.944   2.537   6.543  0.4245  0.5714  1.1511
   47MOL   H43320765   2.098   2.583   6.608 -1.0133 -1.9135  0.9761
   47MOL   H43420766   1.960   2.758   6.648  2.9532 -2.2764  1.4901
   47MOL   H43520767   1.896   2.760   6.484 -1.6455 -0.5701  2.3552
   47MOL   H43620768   2.171   2.852   6.559  0.8881 -1.6522 -1.0504
   47MOL   H43720769   2.058   2.948   6.477 -1.6263 -0.2743  2.3150
   47MOL   H43820770   2.072   2.811   6.263 -1.3980 -2.4429  2.1912
   47MOL   H43920771   2.235   2.864   6.310  0.2957  1.9288  1.7117
   47MOL   H44020772   2.148   2.747   6.070 -0.0453 -0.3693 -0.8159
   47MOL   H44120773   2.216   2.588   6.001 -0.1097 -1.0627  0.6530
   47MOL   H44220774   2.084   2.581   6.101 -0.5665  0.7256  1.5790
   48MOL     C120775   7.068   3.130   4.387  0.5214 -0.3283  0.7240
   48MOL     C220776   7.082   3.212   4.518  0.5194 -0.1156  0.5698
   48MOL     C320777   6.951   3.194   4.605  0.3263  0.9169  0.2774
   48MOL     C420778   6.935   3.293   4.718 -0.3019  0.4375  0.1960
   48MOL     C520779   6.961   3.433   4.678 -0.1588  0.3331  0.9284
   48MOL     C620780   7.095   3.458   4.612 -0.2476 -0.3594  0.3161
   48MOL     C720781   7.097   3.358   4.490  0.3368  0.3150  0.4053
   48MOL     C820782   7.080   2.977   4.393 -0.6148 -0.0596  0.7131
   48MOL     H920783   6.974   3.164   4.342  0.2003 -0.2754  1.4308
   48MOL    H1020784   7.166   3.174   4.576  1.2584  2.2822  1.1348
   48MOL    H1120785   6.861   3.196   4.543 -0.4456  0.7393  1.3768
   48MOL    H1220786   6.958   3.100   4.659 -1.4905  2.7981  3.9966
   48MOL    H1320787   7.006   3.266   4.796 -0.5501  0.7919  0.5428
   48MOL    H1420788   6.837   3.282   4.765 -0.3585 -0.7025 -0.1657
   48MOL    H1520789   6.970   3.495   4.767 -0.6298 -1.6621  2.3854
   48MOL    H1620790   6.876   3.480   4.629 -0.5924 -0.7252  0.6536
   48MOL    H1720791   7.105   3.561   4.577 -1.6368  0.0765  1.1388
   48MOL    H1820792   7.171   3.434   4.685 -0.1795  1.2733  0.8032
   48MOL    H1920793   7.186   3.377   4.430 -0.8571  3.1513 -0.5409
   48MOL    H2020794   7.020   3.397   4.424 -0.5199  1.5757  2.1153
   48MOL    H2120795   7.017   2.935   4.471 -0.6281 -0.2131  0.6212
   48MOL    H2220796   7.183   2.965   4.425 -0.6024  1.0151  1.0954
   48MOL    H2320797   7.136   3.162   4.308 -2.1418  0.8326 -1.1824
   48MOL    C2420798   7.068   2.908   4.258  0.7403 -0.4014  0.1344
   48MOL    C2520799   7.150   2.777   4.246 -0.3273  0.0527 -0.3928
   48MOL    C2620800   7.133   2.696   4.378  0.3060 -0.0486 -0.0958
   48MOL    C2720801   7.204   2.564   4.355  0.8893 -0.4467  0.4313
   48MOL    C2820802   7.346   2.580   4.326  0.2563  0.8479 -0.4455
   48MOL    C2920803   7.369   2.663   4.204 -0.1968 -0.4056 -0.5791
   48MOL    C3020804   7.300   2.801   4.216  0.0318 -0.0832  0.1432
   48MOL    C3120805   6.914   2.884   4.237 -0.4401 -0.2243 -0.6005
   48MOL    H3220806   7.101   2.974   4.178 -0.5349 -0.7675 -0.7126
   48MOL    H3320807   7.118   2.718   4.160 -1.0644 -1.3711  0.8218
   48MOL    H3420808   7.030   2.679   4.411  1.3014 -3.0077  1.6260
   48MOL    H3520809   7.177   2.741   4.467  1.2365 -2.8190  0.8922
   48MOL    H3620810   7.197   2.491   4.436  1.5831 -0.5854  0.3637
   48MOL    H3720811   7.153   2.518   4.271 -0.1783  1.6612 -0.1197
   48MOL    H3820812   7.385   2.483   4.295  5.1062  2.0547  1.3940
   48MOL    H3920813   7.398   2.620   4.413  1.8379  0.2890 -1.1285
   48MOL    H4020814   7.475   2.682   4.187  0.2779  0.4526  2.9778
   48MOL    H4120815   7.326   2.615   4.116 -2.4710  1.0623 -0.3253
   48MOL    H4220816   7.342   2.864   4.294  0.8062 -0.5849  0.1351
   48MOL    H4320817   7.316   2.847   4.118 -3.3582 -1.5584 -1.1962
   48MOL    H4420818   6.873   2.984   4.226  0.1931 -0.0244 -1.2361
   48MOL    H4520819   6.870   2.848   4.329 -1.3289  1.7300 -0.2460
   48MOL    C4620820   6.877   2.789   4.112  0.3702 -0.2155 -0.4687
   48MOL    C4720821   6.937   2.817   3.967 -0.3749 -0.0820 -0.3471
   48MOL    C4820822   6.882   2.948   3.911  0.6120  0.7428  0.5294
   48MOL    C4920823   6.950   2.974   3.767 -0.5011  0.1762  0.1286
   48MOL    C5020824   6.917   2.856   3.679  0.2264 -0.2852 -0.1312
   48MOL    C5120825   6.972   2.734   3.729  0.7179  0.0423 -0.6370
   48MOL    C5220826   6.921   2.697   3.866 -0.1937  0.0628  0.0339
   48MOL    C5320827   6.724   2.753   4.108  0.8357 -0.1780  0.2196
   48MOL    H5420828   6.915   2.688   4.126  1.0313  0.2464  1.1232
   48MOL    H5520829   7.045   2.825   3.981 -0.3572 -0.0605 -0.4979
   48MOL    H5620830   6.776   2.934   3.892  0.9063 -0.1114 -0.5098
   48MOL    H5720831   6.891   3.031   3.981 -3.1215  0.9479  0.8361
   48MOL    H5820832   7.057   2.989   3.784 -0.5786 -1.0837  1.8122
   48MOL    H5920833   6.913   3.069   3.728  2.1397  1.4731  0.6193
   48MOL    H6020834   6.808   2.856   3.674  0.2028  2.1992 -0.4617
   48MOL    H6120835   6.933   2.878   3.574  1.5279 -0.5018  0.0178
   48MOL    H6220836   7.080   2.745   3.732  0.6210  0.6076  1.5635
   48MOL    H6320837   6.940   2.654   3.661 -0.7116  1.9657 -2.2932
   48MOL    H6420838   6.814   2.678   3.852 -0.3135  0.9863 -0.3080
   48MOL    H6520839   6.970   2.609   3.908 -1.2592  0.7386  2.7631
   48MOL    H6620840   6.682   2.800   4.019  1.3772  0.9979  0.5659
   48MOL    H6720841   6.670   2.802   4.189 -0.3677 -0.3090 -0.5101
   48MOL    C6820842   6.695   2.598   4.104 -0.8400 -0.1817  0.5925
   48MOL    C6920843   6.715   2.530   4.241 -0.4570  0.2489  0.0901
   48MOL    C7020844   6.605   2.537   4.345  0.2586 -0.7317  1.0123
   48MOL    C7120845   6.618   2.446   4.464 -0.1613 -0.6264 -0.1962
   48MOL    C7220846   6.632   2.305   4.423 -0.0662 -0.4344 -0.0267
   48MOL    C7320847   6.764   2.298   4.340 -0.2052  0.1705  0.3209
   48MOL    C7420848   6.749   2.387   4.214  0.3828  0.1116  0.4166
   48MOL    C7520849   6.548   2.568   4.051  0.0598 -0.2468  0.4911
   48MOL    H7620850   6.762   2.552   4.031 -1.4550 -1.4132  0.7959
   48MOL    H7720851   6.805   2.569   4.289 -0.3183 -1.7980  1.5584
   48MOL    H7820852   6.509   2.502   4.306  1.3350 -1.7294 -0.7679
   48MOL    H7920853   6.584   2.639   4.378 -1.0838 -0.7669  0.3248
   48MOL    H8020854   6.709   2.472   4.518 -1.0064  1.8984  0.1212
   48MOL    H8120855   6.530   2.458   4.527  1.3911 -0.4005  1.9745
   48MOL    H8220856   6.541   2.272   4.374 -0.8788  0.6744  0.7086
   48MOL    H8320857   6.648   2.244   4.512  2.6778  1.1771  0.6661
   48MOL    H8420858   6.783   2.194   4.315 -2.0823 -0.4463  1.3133
   48MOL    H8520859   6.849   2.318   4.404 -0.3776 -1.6827  1.1640
   48MOL    H8620860   6.678   2.343   4.143 -0.3209  1.3621  0.3441
   48MOL    H8720861   6.842   2.374   4.158 -0.7642  2.2123 -2.1035
   48MOL    H8820862   6.504   2.475   4.088 -1.1389  0.8827  1.9841
   48MOL    H8920863   6.484   2.643   4.097 -1.3049 -1.1004  0.0120
   48MOL    C9020864   6.528   2.582   3.900 -0.4365  0.0885 -0.3965
   48MOL    C9120865   6.582   2.448   3.846 -0.1998  0.3643 -0.7868
   48MOL    C9220866   6.488   2.324   3.865  0.0444  0.3921 -0.5358
   48MOL    C9320867   6.557   2.184   3.820  0.2630  0.1362  0.2003
   48MOL    C9420868   6.620   2.200   3.678  0.0719  0.1389 -0.0748
   48MOL    C9520869   6.709   2.329   3.657 -0.4720  0.4723  0.2513
   48MOL    C9620870   6.629   2.460   3.691  0.3306  0.3104 -0.0634
   48MOL    C9720871   6.381   2.600   3.866 -0.0289  0.1513  0.2199
   48MOL    H9820872   6.589   2.661   3.855 -1.4199  0.9343 -0.2704
   48MOL    H9920873   6.676   2.422   3.894 -0.2163 -0.6613 -1.3123
   48MOL   H10020874   6.392   2.325   3.814 -0.5655  0.3482  0.5946
   48MOL   H10120875   6.463   2.316   3.971  0.9693 -0.6075 -0.3782
   48MOL   H10220876   6.488   2.100   3.827  1.1237 -0.5405  0.4821
   48MOL   H10320877   6.636   2.160   3.891 -2.2864 -0.8431  2.8168
   48MOL   H10420878   6.534   2.199   3.611 -1.2244  0.1596  1.5765
   48MOL   H10520879   6.667   2.106   3.648  2.0793  1.5623 -1.5684
   48MOL   H10620880   6.792   2.329   3.727  0.6679  0.8664 -1.0770
   48MOL   H10720881   6.761   2.327   3.561  0.3005 -0.3545  0.6822
   48MOL   H10820882   6.695   2.546   3.675  1.0295 -0.3127 -0.5609
   48MOL   H10920883   6.541   2.465   3.627  0.2615  0.6666  0.0598
   48MOL   H11020884   6.355   2.544   3.776 -0.7332 -2.3385  1.9139
   48MOL   H11120885   6.314   2.554   3.938 -1.2252  0.1524 -0.8703
   48MOL   C11220886   6.332   2.742   3.832 -0.3165 -1.0195 -0.3700
   48MOL   C11320887   6.337   2.843   3.953  0.3760 -0.0587 -0.0668
   48MOL   C11420888   6.228   2.826   4.056  0.4246  1.0973 -0.4555
   48MOL   C11520889   6.252   2.917   4.178 -0.3440 -0.4056 -0.4198
   48MOL   C11620890   6.249   3.064   4.135 -0.0260 -0.7021 -0.1321
   48MOL   C11720891   6.363   3.090   4.026 -0.3684  0.1784 -0.6727
   48MOL   C11820892   6.341   2.997   3.906  0.2689  0.4186  0.3007
   48MOL   C11920893   6.192   2.739   3.755 -0.0069  0.3072  0.1357
   48MOL   H12020894   6.406   2.777   3.761 -1.8381 -3.5234 -3.2985
   48MOL   H12120895   6.433   2.824   4.000  1.2430 -2.0992 -2.4926
   48MOL   H12220896   6.216   2.726   4.097  1.0013  1.3868  0.4402
   48MOL   H12320897   6.132   2.860   4.017  0.0031 -1.7907 -2.0198
   48MOL   H12420898   6.178   2.892   4.254  0.2117 -1.3372 -0.1864
   48MOL   H12520899   6.346   2.890   4.227 -0.2501  2.3285  0.9997
   48MOL   H12620900   6.150   3.092   4.099  0.1920  1.5832  0.9572
   48MOL   H12720901   6.267   3.135   4.216  0.5112 -2.0771  0.9621
   48MOL   H12820902   6.354   3.195   4.000  0.0598  0.7515  1.4169
   48MOL   H12920903   6.465   3.077   4.063 -0.4707  1.1388 -0.0412
   48MOL   H13020904   6.411   3.015   3.825  1.7349 -0.0002  1.4325
   48MOL   H13120905   6.247   3.030   3.862  0.1882  1.2001  1.0392
   48MOL   H13220906   6.134   2.822   3.796  1.1041  2.4309 -2.4557
   48MOL   H13320907   6.136   2.646   3.770  0.1393  0.1172 -0.4843
   48MOL   C13420908   6.189   2.757   3.598 -1.2644  0.4109 -0.3823
   48MOL   C13520909   6.054   2.801   3.539  0.4696 -0.0826 -0.3036
   48MOL   C13620910   6.022   2.946   3.545  0.1083  1.2372  0.1230
   48MOL   C13720911   5.897   2.977   3.463 -0.6945  0.1532  0.4210
   48MOL   C13820912   5.781   2.884   3.496 -0.6632  1.3347  0.2956
   48MOL   C13920913   5.816   2.738   3.478 -0.3824 -1.1025 -0.2057
   48MOL   C14020914   5.936   2.712   3.575 -0.4338 -0.5440 -0.0281
   48MOL   C14120915   6.237   2.630   3.518 -0.4367  0.4229  0.7109
   48MOL   H14220916   6.261   2.832   3.565 -1.0365  1.2819  1.9997
   48MOL   H14320917   6.051   2.796   3.430 -2.7670 -0.8564 -0.1973
   48MOL   H14420918   6.003   2.965   3.650 -0.3604 -1.2400  0.4968
   48MOL   H14520919   6.107   3.008   3.516 -0.8305  1.4640 -2.3403
   48MOL   H14620920   5.906   2.976   3.354  1.0184  1.7384  0.5286
   48MOL   H14720921   5.862   3.077   3.487 -0.9341  0.4189 -0.9562
   48MOL   H14820922   5.764   2.888   3.603 -1.0443  0.2876  0.2776
   48MOL   H14920923   5.687   2.912   3.448 -0.5173 -0.4782 -1.0940
   48MOL   H15020924   5.818   2.706   3.374 -0.0484 -3.1494  0.3988
   48MOL   H15120925   5.729   2.680   3.510 -2.5165  1.1350 -1.7767
   48MOL   H15220926   5.896   2.728   3.675 -0.7888  0.4578 -0.3261
   48MOL   H15320927   5.957   2.606   3.564  4.1019  0.5389 -3.6451
   48MOL   H15420928   6.178   2.545   3.554  0.9332 -0.2840  1.3135
   48MOL   H15520929   6.331   2.601   3.564  0.0550  0.6495 -0.1416
   48MOL   C15620930   6.251   2.613   3.364 -0.4490  0.6086 -0.4721
   48MOL   C15720931   6.344   2.715   3.296 -0.5091  0.7116 -0.8722
   48MOL   C15820932   6.484   2.711   3.363  0.0423 -0.8137  0.2970
   48MOL   C15920933   6.591   2.796   3.282  0.0182  0.4268 -0.1901
   48MOL   C16020934   6.591   2.768   3.135  0.4435 -0.7773 -0.1060
   48MOL   C16120935   6.455   2.778   3.066 -0.8417 -0.2835  0.7814
   48MOL   C16220936   6.355   2.689   3.143  0.0130 -0.4592 -0.0955
   48MOL   C16320937   6.116   2.598   3.276  0.5933  0.2713 -0.4357
   48MOL   H16420938   6.295   2.515   3.348 -0.8996  0.2380  0.5138
   48MOL   H16520939   6.301   2.815   3.300 -0.6601  0.7144 -2.2728
   48MOL   H16620940   6.478   2.757   3.461 -1.8867  2.0335 -1.0911
   48MOL   H16720941   6.499   2.605   3.380 -1.5043 -1.0095  0.5450
   48MOL   H16820942   6.565   2.902   3.289 -1.0700  0.0534  1.7424
   48MOL   H16920943   6.695   2.780   3.312  0.4848  1.1207 -1.3920
   48MOL   H17020944   6.640   2.671   3.124  2.4145  0.1473  0.3732
   48MOL   H17120945   6.660   2.836   3.086  0.8840 -1.3551 -0.2996
   48MOL   H17220946   6.466   2.745   2.962 -0.0054 -0.9925  1.0869
   48MOL   H17320947   6.414   2.879   3.061  0.0527  0.0857  0.7828
   48MOL   H17420948   6.258   2.699   3.094 -0.9564 -0.4011  1.8078
   48MOL   H17520949   6.380   2.585   3.118  0.2048 -0.4493  0.0603
   48MOL   H17620950   6.102   2.682   3.210  1.3651  0.7655  0.0190
   48MOL   H17720951   6.028   2.601   3.340  0.1441 -0.3209 -1.0226
   48MOL   C17820952   6.097   2.468   3.191  0.5093 -0.4174 -0.6073
   48MOL   C17920953   6.092   2.336   3.276  0.5903 -0.2925  0.4191
   48MOL   C18020954   6.122   2.212   3.188  0.2218  0.5042 -0.0044
   48MOL   C18120955   6.109   2.084   3.260  0.5331  0.1773 -0.5933
   48MOL   C18220956   5.972   2.078   3.335 -0.0584 -0.1077  0.0162
   48MOL   C18320957   5.943   2.194   3.430  0.4830 -0.8255  0.4234
   48MOL   C18420958   5.958   2.325   3.353  1.1550  0.3168 -0.8343
   48MOL   C18520959   5.986   2.486   3.077  0.1218 -0.0058 -1.2372
   48MOL   H18620960   6.187   2.456   3.131  0.2608  0.9738 -1.2790
   48MOL   H18720961   6.158   2.337   3.362  0.4702 -2.4918  0.5523
   48MOL   H18820962   6.054   2.205   3.103  1.7860 -1.1439 -1.1559
   48MOL   H18920963   6.218   2.223   3.138  0.0781 -2.7479 -1.1579
   48MOL   H19020964   6.190   2.073   3.333  0.6073  1.7975 -0.4098
   48MOL   H19120965   6.107   2.000   3.190  1.7596 -0.2298 -0.1475
   48MOL   H19220966   5.892   2.067   3.261  1.4791 -0.2893 -1.6355
   48MOL   H19320967   5.970   1.981   3.384 -1.0876 -0.1083 -0.0093
   48MOL   H19420968   6.001   2.190   3.522  1.0300 -2.4282  0.0323
   48MOL   H19520969   5.839   2.194   3.464 -0.4112 -0.0861 -2.2104
   48MOL   H19620970   5.873   2.331   3.285  1.5330 -0.7698 -1.4124
   48MOL   H19720971   5.956   2.404   3.429  1.4485  0.3087 -0.8145
   48MOL   H19820972   5.945   2.390   3.043 -0.1377 -0.4816  0.3674
   48MOL   H19920973   5.902   2.530   3.131  1.1371 -1.0472  1.2743
   48MOL   C20020974   6.018   2.578   2.947  0.0557  0.6456 -0.0716
   48MOL   C20120975   6.139   2.513   2.858 -0.6089 -0.0146  0.7547
   48MOL   C20220976   6.092   2.394   2.759 -0.0285  0.0969  0.2981
   48MOL   C20320977   6.219   2.326   2.690  0.1426 -0.2459 -0.3818
   48MOL   C20420978   6.315   2.426   2.621  0.1200  0.8381  0.4782
   48MOL   C20520979   6.339   2.561   2.695 -0.0383  0.0821 -0.0388
   48MOL   C20620980   6.218   2.621   2.775 -0.1218  0.0715 -0.6903
   48MOL   C20720981   5.898   2.615   2.862  0.2883  0.1645  0.5808
   48MOL   H20820982   6.061   2.671   2.984 -2.0907  1.9680 -0.7990
   48MOL   H20920983   6.210   2.477   2.933 -0.0898 -0.2020  0.1819
   48MOL   H21020984   6.031   2.439   2.680  0.4673  1.6465  0.7755
   48MOL   H21120985   6.030   2.319   2.807 -0.2884  0.2622  0.2245
   48MOL   H21220986   6.270   2.260   2.760 -0.5480 -1.2360 -0.8030
   48MOL   H21320987   6.174   2.258   2.618  0.5003  0.9095 -1.7309
   48MOL   H21420988   6.402   2.362   2.605 -0.5420 -0.2807  1.2349
   48MOL   H21520989   6.282   2.459   2.523  0.4655  1.2340  0.4949
   48MOL   H21620990   6.413   2.535   2.771  0.6845  0.0956 -0.7297
   48MOL   H21720991   6.395   2.622   2.625 -0.4193 -0.0210 -0.4369
   48MOL   H21820992   6.259   2.696   2.842 -1.0009 -0.9417  0.9998
   48MOL   H21920993   6.154   2.674   2.705  0.8282 -0.3312 -1.8852
   48MOL   H22020994   5.930   2.662   2.769  1.6495 -2.1390 -0.1643
   48MOL   H22120995   5.855   2.522   2.826 -0.7418 -0.2344  2.7662
   48MOL   C22220996   5.782   2.688   2.922 -0.0146 -0.5317 -0.1057
   48MOL   C22320997   5.825   2.835   2.967  0.0588 -0.0470 -0.4657
   48MOL   C22420998   5.730   2.886   3.073  0.7374  0.3116 -0.1426
   48MOL   C22520999   5.758   3.034   3.111 -0.0638  0.3520  0.3822
   48MOL   C22621000   5.745   3.125   2.985 -0.3678  0.8293  0.0496
   48MOL   C22721001   5.850   3.077   2.880  0.5884  0.4483 -0.0480
   48MOL   C22821002   5.835   2.934   2.847 -0.5088 -0.4281 -0.2735
   48MOL   C22921003   5.651   2.680   2.835  0.2716  0.0544 -0.1391
   48MOL   H23021004   5.757   2.638   3.016 -1.1793 -0.9875 -0.6516
   48MOL   H23121005   5.916   2.826   3.028 -0.5264 -0.0985  0.4112
   48MOL   H23221006   5.628   2.877   3.035  0.6576 -0.8418  0.3208
   48MOL   H23321007   5.732   2.828   3.164  0.7906 -0.2759 -0.5175
   48MOL   H23421008   5.852   3.059   3.159 -0.6590 -1.6444  2.7036
   48MOL   H23521009   5.688   3.066   3.188 -2.0177 -1.4005 -0.5951
   48MOL   H23621010   5.647   3.130   2.937  0.6576 -0.7974 -2.2494
   48MOL   H23721011   5.786   3.223   3.011 -1.6535  1.1365  0.9842
   48MOL   H23821012   5.951   3.076   2.921  0.4627 -0.1064  0.2590
   48MOL   H23921013   5.865   3.147   2.798  0.7744  0.2475 -0.1840
   48MOL   H24021014   5.744   2.934   2.789 -0.8296 -1.3436  0.2266
   48MOL   H24121015   5.921   2.917   2.782  1.0689  1.0152  1.3280
   48MOL   H24221016   5.671   2.732   2.741 -0.8609  1.3255  0.3178
   48MOL   H24321017   5.572   2.741   2.878  0.2117  0.9099 -1.4418
   48MOL   C24421018   5.594   2.542   2.802  1.1684  0.3016 -0.3925
   48MOL   C24521019   5.479   2.548   2.696  0.1889  0.3911  0.6712
   48MOL   C24621020   5.535   2.562   2.547  0.1768  0.5966 -0.0259
   48MOL   C24721021   5.424   2.552   2.440 -0.2999 -0.0398 -0.4419
   48MOL   C24821022   5.297   2.634   2.469 -0.1057 -0.3249 -0.4045
   48MOL   C24921023   5.244   2.611   2.609  0.3593 -0.2678 -0.5265
   48MOL   C25021024   5.353   2.638   2.719 -0.5188  0.2647 -0.0688
   48MOL   C25121025   5.534   2.482   2.932  0.4644  0.1952  0.3278
   48MOL   H25221026   5.675   2.474   2.772 -2.2763 -3.3503 -1.8886
   48MOL   H25321027   5.445   2.445   2.684  1.9926 -0.0584 -0.8272
   48MOL   H25421028   5.615   2.491   2.528 -0.4755 -0.3197  0.5912
   48MOL   H25521029   5.580   2.661   2.539  0.0514  0.6648  0.0920
   48MOL   H25621030   5.462   2.584   2.343  0.1721 -1.3200 -0.6933
   48MOL   H25721031   5.401   2.446   2.429  0.7221 -0.4182  0.8624
   48MOL   H25821032   5.300   2.739   2.441 -1.7739 -0.1827 -0.1342
   48MOL   H25921033   5.219   2.595   2.403 -0.2918  1.7921 -1.4811
   48MOL   H26021034   5.223   2.504   2.615 -0.6333 -0.1984 -2.3430
   48MOL   H26121035   5.158   2.673   2.636  1.7140  0.5967  1.9258
   48MOL   H26221036   5.394   2.739   2.713  3.2497 -0.9276  2.9976
   48MOL   H26321037   5.321   2.627   2.823  1.9991 -1.4547  0.5818
   48MOL   H26421038   5.464   2.550   2.981 -1.0404  0.0724 -1.5737
   48MOL   H26521039   5.614   2.472   3.004  2.5762  0.5893 -1.9057
   48MOL   C26621040   5.484   2.335   2.932  0.0012 -0.0486  0.2336
   48MOL   C26721041   5.573   2.228   2.878 -0.4391  0.7400  1.1879
   48MOL   C26821042   5.717   2.225   2.940 -0.2141  0.3453 -0.5968
   48MOL   C26921043   5.805   2.107   2.901  0.0117 -0.7425  0.7332
   48MOL   C27021044   5.809   2.100   2.743  0.2602 -0.7318  0.1964
   48MOL   C27121045   5.666   2.097   2.681 -0.3701  0.1753  0.3653
   48MOL   C27221046   5.579   2.220   2.721 -0.3400  0.3546  0.0622
   48MOL   C27321047   5.422   2.303   3.072 -0.2181 -1.1017  0.4286
   48MOL   H27421048   5.395   2.348   2.870  0.0309  0.3021  0.2674
   48MOL   H27521049   5.525   2.131   2.893  0.9497 -0.5662 -2.2120
   48MOL   H27621050   5.773   2.308   2.899 -2.0919  0.4778 -2.9627
   48MOL   H27721051   5.723   2.234   3.049  0.3012  0.8052 -0.6658
   48MOL   H27821052   5.751   2.022   2.943 -0.8334 -0.2911  0.5691
   48MOL   H27921053   5.907   2.115   2.937  0.6194 -0.9729 -0.8992
   48MOL   H28021054   5.863   2.190   2.713  0.2972 -1.0274 -0.6262
   48MOL   H28121055   5.863   2.009   2.718  0.4980 -0.2558 -1.0823
   48MOL   H28221056   5.610   2.009   2.711 -1.6522  0.7516 -0.2909
   48MOL   H28321057   5.685   2.092   2.574 -1.9149 -0.5264  0.1143
   48MOL   H28421058   5.482   2.221   2.671 -0.6607  2.4180  0.7124
   48MOL   H28521059   5.643   2.300   2.685  2.7941 -1.4196  1.4291
   48MOL   H28621060   5.380   2.398   3.103 -0.7523 -1.1518 -0.1275
   48MOL   H28721061   5.499   2.269   3.142 -2.1545  1.2019  3.8376
   48MOL   C28821062   5.309   2.200   3.072  1.4351  0.4383  0.1828
   48MOL   C28921063   5.162   2.258   3.065  0.1435 -0.0418  0.2613
   48MOL   C29021064   5.144   2.355   2.948  0.3134 -0.1095  0.6254
   48MOL   C29121065   5.000   2.397   2.937 -0.2695  0.0330  0.5387
   48MOL   C29221066   4.898   2.291   2.911 -0.3801  0.3722 -0.2582
   48MOL   C29321067   4.912   2.194   3.027  1.0958  0.4495 -0.2140
   48MOL   C29421068   5.056   2.144   3.038 -0.1296 -0.1540  0.1914
   48MOL   C29521069   5.320   2.108   3.194 -0.2841 -0.3059 -0.5147
   48MOL   H29621070   5.316   2.143   2.980  1.7932 -0.7038  0.9174
   48MOL   H29721071   5.138   2.314   3.155  0.0267 -0.3013  0.3907
   48MOL   H29821072   5.205   2.445   2.962 -2.3521  1.8651 -0.1253
   48MOL   H29921073   5.169   2.308   2.853 -2.9457 -0.2478 -0.1929
   48MOL   H30021074   4.980   2.442   3.035 -1.3284  0.0048  0.3435
   48MOL   H30121075   4.984   2.472   2.860 -0.0146 -1.2853 -0.8108
   48MOL   H30221076   4.919   2.239   2.818  0.0577 -1.1191  0.6583
   48MOL   H30321077   4.797   2.329   2.899 -1.1439 -2.0878 -1.8565
   48MOL   H30421078   4.849   2.107   3.007 -2.8780  2.8739  1.1051
   48MOL   H30521079   4.871   2.246   3.114 -0.7221  2.5097 -2.2519
   48MOL   H30621080   5.085   2.078   2.956 -0.0402  0.0407  0.0681
   48MOL   H30721081   5.046   2.077   3.123  0.4725 -2.5088 -1.5392
   48MOL   H30821082   5.325   2.177   3.278 -1.1881 -0.7642 -0.0873
   48MOL   H30921083   5.228   2.059   3.225  0.3430 -1.8286 -1.0338
   48MOL   C31021084   5.427   1.994   3.172 -0.0268 -0.2664 -0.2194
   48MOL   C31121085   5.481   1.940   3.302 -0.3345 -0.5534 -0.2303
   48MOL   C31221086   5.560   2.039   3.383  0.2778 -0.3021 -0.4078
   48MOL   C31321087   5.612   1.974   3.512 -0.6477  1.0569  0.2433
   48MOL   C31421088   5.508   1.907   3.610  0.6136  0.8107  0.0265
   48MOL   C31521089   5.414   1.816   3.527  0.3439  0.9120 -0.8330
   48MOL   C31621090   5.372   1.870   3.391 -0.7662 -0.6245  0.4808
   48MOL   C31721091   5.373   1.881   3.068 -0.5606  0.4840 -0.3630
   48MOL   H31821092   5.519   2.032   3.127  0.3832 -1.8125 -0.7484
   48MOL   H31921093   5.550   1.862   3.272  0.8271  0.7069 -0.8572
   48MOL   H32021094   5.639   2.091   3.330 -0.5745  0.3248 -1.0772
   48MOL   H32121095   5.489   2.115   3.416  0.0620 -0.1381 -1.2473
   48MOL   H32221096   5.677   2.042   3.568  2.5844 -0.2956 -1.7162
   48MOL   H32321097   5.689   1.900   3.490  0.8880  2.1115  1.8839
   48MOL   H32421098   5.558   1.841   3.681 -1.7422 -0.0724  0.9244
   48MOL   H32521099   5.448   1.981   3.662 -1.0930 -0.7961  0.4120
   48MOL   H32621100   5.468   1.724   3.505  0.5173  0.4411  1.3985
   48MOL   H32721101   5.333   1.791   3.596  0.7835 -1.6085 -1.1692
   48MOL   H32821102   5.294   1.944   3.408 -0.6255 -0.0652 -1.1515
   48MOL   H32921103   5.333   1.786   3.333 -0.6639  0.3675 -1.0688
   48MOL   H33021104   5.365   1.920   2.967  0.8631 -0.4323 -0.8440
   48MOL   H33121105   5.268   1.860   3.092 -0.1641 -0.4864  0.5830
   48MOL   C33221106   5.443   1.746   3.059 -0.2966  0.2346 -0.0635
   48MOL   C33321107   5.585   1.733   2.992  0.0305 -0.5381  0.8377
   48MOL   C33421108   5.588   1.729   2.835 -0.2061  0.4366 -0.6840
   48MOL   C33521109   5.726   1.723   2.779 -0.4731 -0.4440  0.7452
   48MOL   C33621110   5.816   1.614   2.839  0.2244 -0.0075 -0.1172
   48MOL   C33721111   5.815   1.631   2.992  0.3430 -0.2004 -0.3996
   48MOL   C33821112   5.671   1.622   3.050 -0.4972 -0.5507  0.3143
   48MOL   C33921113   5.343   1.640   3.000  0.3222  0.1257  0.0076
   48MOL   H34021114   5.450   1.717   3.164 -1.0556 -1.9464 -0.6005
   48MOL   H34121115   5.627   1.826   3.029  0.3014 -0.1774 -0.3353
   48MOL   H34221116   5.515   1.654   2.803 -0.6664  1.1777 -1.3876
   48MOL   H34321117   5.527   1.812   2.798 -0.5061  1.3612  1.7465
   48MOL   H34421118   5.719   1.711   2.671 -1.9326  1.0939  0.6492
   48MOL   H34521119   5.777   1.817   2.798 -0.9373  0.0112 -0.2372
   48MOL   H34621120   5.791   1.512   2.810 -0.6665 -0.3251  1.6640
   48MOL   H34721121   5.915   1.641   2.804 -0.0371 -1.9480 -2.4633
   48MOL   H34821122   5.859   1.727   3.020  1.3402 -0.4660 -1.0003
   48MOL   H34921123   5.871   1.551   3.040 -0.4531 -1.4448 -1.5001
   48MOL   H35021124   5.663   1.621   3.159 -0.7057 -2.2107  0.3041
   48MOL   H35121125   5.623   1.533   3.009 -2.2254  0.4975  0.0149
   48MOL   H35221126   5.392   1.551   2.959  0.8857  0.2059  0.4930
   48MOL   H35321127   5.300   1.687   2.912 -1.1966  0.6817  1.0213
   48MOL   C35421128   5.240   1.580   3.099 -0.0100 -0.3675  0.5460
   48MOL   C35521129   5.286   1.459   3.192 -0.1955  0.1435 -0.3517
   48MOL   C35621130   5.402   1.494   3.288  0.9596  0.1058  0.4207
   48MOL   C35721131   5.438   1.381   3.387 -1.3633 -0.3616  0.0338
   48MOL   C35821132   5.478   1.252   3.305  0.0431  0.3166 -0.3176
   48MOL   C35921133   5.363   1.211   3.205 -1.0776 -0.1903  0.5393
   48MOL   C36021134   5.319   1.329   3.119 -0.2317  0.3518 -0.0456
   48MOL   C36121135   5.096   1.553   3.035  0.2513 -0.0631  0.0386
   48MOL   H36221136   5.229   1.667   3.164  0.4504  0.9981 -1.1704
   48MOL   H36321137   5.202   1.445   3.259  0.3472 -0.9538  0.1235
   48MOL   H36421138   5.379   1.588   3.338  0.7982 -0.9906  2.4660
   48MOL   H36521139   5.497   1.507   3.235  1.2914  0.5414  1.1174
   48MOL   H36621140   5.518   1.411   3.454 -1.1177 -0.2962 -0.2864
   48MOL   H36721141   5.343   1.360   3.436 -1.8114 -0.1644 -0.7387
   48MOL   H36821142   5.568   1.281   3.250  0.0323  1.8733  0.4594
   48MOL   H36921143   5.510   1.174   3.374  3.5128  1.2362 -0.7596
   48MOL   H37021144   5.407   1.128   3.149  2.1068  1.0320  1.1406
   48MOL   H37121145   5.285   1.180   3.275 -1.9515 -0.1580 -0.4046
   48MOL   H37221146   5.230   1.303   3.062 -0.8520 -2.1375  1.9720
   48MOL   H37321147   5.398   1.356   3.049  0.0683 -0.5561 -0.0617
   48MOL   H37421148   5.115   1.478   2.959  1.7383  0.5792 -0.2446
   48MOL   H37521149   5.056   1.636   2.977 -0.7082  0.8835  2.0080
   48MOL   C37621150   4.978   1.498   3.128 -0.6281 -0.2420  0.1956
   48MOL   C37721151   4.962   1.595   3.251 -0.0430 -0.8000  0.8685
   48MOL   C37821152   4.865   1.540   3.357  0.4087 -0.5884  0.8819
   48MOL   C37921153   4.848   1.633   3.479  0.1684  0.5010 -0.4655
   48MOL   C38021154   4.812   1.769   3.444 -0.1436 -0.6892  0.0300
   48MOL   C38121155   4.906   1.826   3.337  0.1833 -0.0297  0.0113
   48MOL   C38221156   4.931   1.741   3.212 -0.1420 -0.8658 -0.1299
   48MOL   C38321157   4.842   1.470   3.050  0.2807  0.1129  0.1732
   48MOL   H38421158   5.005   1.403   3.173 -0.7656 -1.5494 -2.3706
   48MOL   H38521159   5.055   1.617   3.304  2.4696 -3.3536 -2.3282
   48MOL   H38621160   4.768   1.533   3.309 -0.4199 -1.5957  2.6493
   48MOL   H38721161   4.895   1.439   3.385  0.1468 -0.9496 -0.1319
   48MOL   H38821162   4.943   1.628   3.531 -0.0074 -2.7703 -0.3596
   48MOL   H38921163   4.768   1.588   3.538  1.5363 -1.7742 -0.3045
   48MOL   H39021164   4.708   1.778   3.413 -0.5389  0.1432  1.5134
   48MOL   H39121165   4.827   1.837   3.529 -0.3304 -1.7764  0.9391
   48MOL   H39221166   4.880   1.927   3.305  0.2857  0.2653  0.8502
   48MOL   H39321167   5.003   1.841   3.385  0.2758  0.7440 -0.4066
   48MOL   H39421168   4.844   1.742   3.147  0.7500  1.8249 -1.3630
   48MOL   H39521169   5.010   1.784   3.150 -0.0892 -1.1445 -0.2573
   48MOL   H39621170   4.785   1.559   3.024 -3.6632 -1.5839  2.6181
   48MOL   H39721171   4.766   1.419   3.110  0.9453 -0.6709  0.3650
   48MOL   C39821172   4.857   1.402   2.912 -0.1137 -0.7789 -0.0696
   48MOL   C39921173   4.915   1.256   2.918 -0.4981 -0.1323 -0.0449
   48MOL   C40021174   4.811   1.146   2.952 -0.3252  0.2217  0.0661
   48MOL   C40121175   4.896   1.023   2.988  0.7088 -0.4207 -0.1523
   48MOL   C40221176   4.953   0.973   2.863 -0.3271 -0.9429  0.6591
   48MOL   C40321177   5.060   1.073   2.807  0.3717  0.0949  0.5040
   48MOL   C40421178   4.990   1.212   2.797  0.0724 -0.4032  0.0826
   48MOL   C40521179   4.724   1.401   2.834 -0.9397  0.2158  0.4383
   48MOL   H40621180   4.927   1.461   2.854 -0.8288  0.2613  0.1109
   48MOL   H40721181   4.983   1.271   3.002  1.5847  0.5013 -1.8089
   48MOL   H40821182   4.748   1.128   2.865  1.8968 -0.7456 -1.4015
   48MOL   H40921183   4.754   1.167   3.042  0.7374  1.4502  0.4716
   48MOL   H41021184   4.839   0.939   3.029 -0.8596  0.9175  0.4549
   48MOL   H41121185   4.976   1.048   3.058  1.7757 -0.9750 -1.1662
   48MOL   H41221186   4.876   0.955   2.788  1.4278 -0.0140 -1.4341
   48MOL   H41321187   4.999   0.875   2.877 -0.2946 -0.8639  1.1115
   48MOL   H41421188   5.140   1.067   2.881  0.4269  1.0420  0.5251
   48MOL   H41521189   5.105   1.040   2.714 -0.1739  1.9926 -0.4577
   48MOL   H41621190   5.064   1.287   2.769  0.0076 -0.2312  0.3728
   48MOL   H41721191   4.929   1.204   2.707 -0.0901  2.7256 -0.1355
   48MOL   H41821192   4.738   1.340   2.745  1.7276  0.6857  0.5037
   48MOL   H41921193   4.651   1.357   2.902 -0.5393  1.0058  1.3839
   48MOL   C42021194   4.671   1.544   2.790  0.2851  0.6052  0.8384
   48MOL   C42121195   4.515   1.541   2.781  0.4800 -0.1972  0.1077
   48MOL   C42221196   4.439   1.554   2.920 -0.2545  0.1075  0.2625
   48MOL   C42321197   4.285   1.548   2.913 -0.2731 -0.2709 -0.1956
   48MOL   C42421198   4.244   1.420   2.841 -0.7251 -0.2565 -0.9176
   48MOL   C42521199   4.311   1.402   2.702  0.0274  0.2560  0.1378
   48MOL   C42621200   4.460   1.411   2.710 -0.0075  0.0979 -0.0715
   48MOL   C42721201   4.736   1.589   2.658  0.2015 -0.0837 -0.4996
   48MOL   H42821202   4.697   1.625   2.858  1.6807 -0.2226  1.3067
   48MOL   H42921203   4.483   1.629   2.725 -0.4144  0.2813  1.3541
   48MOL   H43021204   4.471   1.474   2.986  0.3052  0.7388  0.7650
   48MOL   H43121205   4.459   1.651   2.965 -2.8167  0.3024  1.0224
   48MOL   H43221206   4.241   1.547   3.012 -0.9817  0.9600 -0.4790
   48MOL   H43321207   4.233   1.630   2.862  3.1477  1.9370 -0.2707
   48MOL   H43421208   4.135   1.419   2.840 -0.8301 -1.0815  2.5975
   48MOL   H43521209   4.276   1.338   2.906 -0.4485  1.0118  0.5989
   48MOL   H43621210   4.280   1.483   2.636  1.3263  0.4370 -0.2550
   48MOL   H43721211   4.271   1.308   2.663 -0.6681  0.1765  1.0243
   48MOL   H43821212   4.499   1.322   2.760  1.4935  0.8106  0.0479
   48MOL   H43921213   4.505   1.402   2.611  2.0823  0.7361  0.8040
   48MOL   H44021214   4.843   1.600   2.676  0.2060 -0.9006  0.0091
   48MOL   H44121215   4.700   1.517   2.586 -0.8128 -0.0554 -0.0380
   48MOL   H44221216   4.692   1.683   2.623 -0.4585 -0.8321 -1.7014
   49MOL     C121217   0.229   3.356   1.618 -0.6232  0.2606  0.4307
   49MOL     C221218   0.251   3.427   1.478  0.2332 -0.2526 -0.6896
   49MOL     C321219   0.361   3.363   1.386 -0.5828  0.0740 -0.2366
   49MOL     C421220   0.382   3.442   1.252 -0.1148 -0.0853 -0.5299
   49MOL     C521221   0.411   3.585   1.290  0.1345  0.1861  0.3991
   49MOL     C621222   0.306   3.657   1.382 -0.2565  0.0151  0.7771
   49MOL     C721223   0.284   3.578   1.511 -0.2289  0.2833  0.0470
   49MOL     C821224   0.186   3.209   1.608 -0.3177  0.5085 -0.4059
   49MOL     H921225   0.313   3.369   1.686 -2.5917  1.1809  2.7358
   49MOL    H1021226   0.153   3.423   1.431 -0.2171 -0.9647  0.2757
   49MOL    H1121227   0.460   3.367   1.432 -0.0927  0.2398 -1.2859
   49MOL    H1221228   0.326   3.262   1.366 -2.8177  0.7765 -0.0310
   49MOL    H1321229   0.292   3.434   1.191 -0.7772 -3.4681  0.7772
   49MOL    H1421230   0.459   3.395   1.190 -0.2222 -0.4687 -0.3722
   49MOL    H1521231   0.417   3.648   1.201  1.0644  0.1224  0.4123
   49MOL    H1621232   0.505   3.599   1.343  0.6722  0.3992 -0.6137
   49MOL    H1721233   0.343   3.757   1.402  1.2445 -0.6382  1.3745
   49MOL    H1821234   0.212   3.677   1.330 -0.4452 -0.4302  0.9357
   49MOL    H1921235   0.197   3.613   1.566 -0.5746 -0.6842  0.1215
   49MOL    H2021236   0.370   3.592   1.576 -1.9110 -0.1784  2.4327
   49MOL    H2121237   0.273   3.155   1.569  0.7747  1.6117  0.4636
   49MOL    H2221238   0.094   3.199   1.551 -2.0208  0.3578  2.2776
   49MOL    H2321239   0.152   3.420   1.661 -1.0179  0.3511 -0.4042
   49MOL    C2421240   0.153   3.151   1.749 -0.1135 -0.4247 -0.6039
   49MOL    C2521241   0.022   3.211   1.821 -0.1048  0.6937 -0.3598
   49MOL    C2621242   0.041   3.221   1.971  0.2466 -1.2339 -0.4988
   49MOL    C2721243   7.698   3.307   2.030 -0.3036  0.5796  0.1145
   49MOL    C2821244   7.559   3.256   2.000  0.0335  0.3871 -0.3192
   49MOL    C2921245   7.541   3.249   1.849  0.3571 -0.5496 -0.8106
   49MOL    C3021246   7.648   3.162   1.784 -0.1135 -0.4316  0.5190
   49MOL    C3121247   0.145   3.003   1.753 -0.5553 -0.1873  0.2213
   49MOL    H3221248   0.235   3.189   1.810  0.1577 -2.8158  0.5716
   49MOL    H3321249   0.014   3.316   1.793  0.6033  0.0193 -3.2211
   49MOL    H3421250   0.138   3.254   2.008  0.0092  0.8596 -1.6307
   49MOL    H3521251   0.017   3.127   2.021 -0.3434 -0.2945  1.0130
   49MOL    H3621252   7.713   3.319   2.137  0.4152 -1.2011  0.2428
   49MOL    H3721253   7.692   3.410   1.996 -1.0451  0.9960  1.4680
   49MOL    H3821254   7.478   3.307   2.052 -1.6917 -1.4484 -1.1421
   49MOL    H3921255   7.552   3.157   2.045 -0.2965  0.2122 -0.7588
   49MOL    H4021256   7.443   3.206   1.828 -0.3190  0.0095  1.0935
   49MOL    H4121257   7.529   3.346   1.801 -0.2375 -0.4661 -0.4985
   49MOL    H4221258   7.644   3.056   1.810 -0.7496 -0.6325 -0.3723
   49MOL    H4321259   7.637   3.177   1.676  0.1854 -0.4881  0.4798
   49MOL    H4421260   0.097   2.976   1.659  1.9821  0.5926 -1.3397
   49MOL    H4521261   0.074   2.984   1.834 -0.8370  2.3317  0.6158
   49MOL    C4621262   0.284   2.932   1.773 -0.0961 -0.2312 -0.2258
   49MOL    C4721263   0.293   2.778   1.755  0.3667 -0.8753 -0.6317
   49MOL    C4821264   0.249   2.731   1.618  0.6708  0.3246  0.2150
   49MOL    C4921265   0.303   2.582   1.621  1.0032  0.2705  0.4411
   49MOL    C5021266   0.232   2.502   1.732 -0.6823  0.5821 -0.2188
   49MOL    C5121267   0.246   2.564   1.872 -0.4296  0.4991  0.1040
   49MOL    C5221268   0.214   2.709   1.868  0.0635 -0.7895 -0.4054
   49MOL    C5321269   0.351   2.970   1.912 -0.0667 -0.1385 -0.5059
   49MOL    H5421270   0.354   2.967   1.697  0.4397 -1.2150 -0.1993
   49MOL    H5521271   0.396   2.744   1.766  0.5645  0.3336  1.4199
   49MOL    H5621272   0.143   2.720   1.593  0.5340  2.8855 -0.4840
   49MOL    H5721273   0.290   2.780   1.530 -0.7589 -0.4091 -0.8761
   49MOL    H5821274   0.410   2.568   1.632  0.9727  0.8624  1.5605
   49MOL    H5921275   0.271   2.543   1.524 -1.9234  3.1355  0.1765
   49MOL    H6021276   0.125   2.505   1.710 -0.7361  1.8852  0.1903
   49MOL    H6121277   0.264   2.398   1.728 -3.3911 -0.3519  1.0997
   49MOL    H6221278   0.346   2.547   1.911  0.1886  2.9847 -0.3188
   49MOL    H6321279   0.173   2.512   1.934 -0.2660  0.0508 -0.0780
   49MOL    H6421280   0.116   2.741   1.832  1.5464  0.4722 -3.5053
   49MOL    H6521281   0.229   2.754   1.967  0.0620 -0.4418 -0.5598
   49MOL    H6621282   0.403   2.881   1.947  0.2855 -0.4964 -1.9109
   49MOL    H6721283   0.271   2.984   1.986  0.1060 -0.2129 -0.3061
   49MOL    C6821284   0.463   3.084   1.908 -0.4231 -0.1701  0.1816
   49MOL    C6921285   0.447   3.188   2.024 -0.6084 -0.3193 -0.4179
   49MOL    C7021286   0.502   3.134   2.160 -0.0024 -0.0802 -0.3386
   49MOL    C7121287   0.453   3.223   2.273  0.4070 -0.5186 -0.5919
   49MOL    C7221288   0.507   3.372   2.250  0.5507 -0.0902 -0.1538
   49MOL    C7321289   0.466   3.428   2.111 -0.3575  0.5844  0.4446
   49MOL    C7421290   0.499   3.332   1.997  0.1343  0.2857 -0.7771
   49MOL    C7521291   0.607   3.015   1.901  0.3070  0.1668 -0.6404
   49MOL    H7621292   0.445   3.146   1.820  2.0336 -0.0952 -0.2998
   49MOL    H7721293   0.339   3.192   2.037 -0.4247  1.9561  0.6523
   49MOL    H7821294   0.610   3.123   2.158 -0.0080 -0.5749  1.0909
   49MOL    H7921295   0.475   3.031   2.187  2.4340 -0.2415  1.6069
   49MOL    H8021296   0.344   3.221   2.280  0.4284  0.8009  0.4155
   49MOL    H8121297   0.494   3.191   2.368  0.3199 -0.5771 -0.5749
   49MOL    H8221298   0.614   3.367   2.269  0.7956  0.8069 -1.2189
   49MOL    H8321299   0.465   3.437   2.326 -2.1051 -0.2693 -1.3964
   49MOL    H8421300   0.509   3.525   2.086  0.0128 -0.1235 -1.7804
   49MOL    H8521301   0.357   3.434   2.117 -0.4191  0.9528 -0.8445
   49MOL    H8621302   0.608   3.328   1.992  0.2083 -0.1691  0.7500
   49MOL    H8721303   0.466   3.380   1.905  2.1319 -1.5108 -2.4671
   49MOL    H8821304   0.686   3.084   1.931 -0.8120  1.2672 -0.1909
   49MOL    H8921305   0.618   2.944   1.984  0.0846 -0.5087 -1.1872
   49MOL    C9021306   0.662   2.944   1.771 -0.1598  0.1415  0.0258
   49MOL    C9121307   0.678   3.031   1.644 -0.5238  0.1055 -1.3001
   49MOL    C9221308   0.790   3.134   1.659 -0.6001 -0.1726  0.2563
   49MOL    C9321309   0.818   3.213   1.525  0.0354 -1.1583 -0.4375
   49MOL    C9421310   0.841   3.122   1.402  0.3339 -0.6041  0.3845
   49MOL    C9521311   0.722   3.025   1.392  0.3918  0.2989 -0.5942
   49MOL    C9621312   0.691   2.948   1.517  0.3373  0.7168  0.2170
   49MOL    C9721313   0.794   2.868   1.802 -0.3615  0.5535 -0.2951
   49MOL    H9821314   0.582   2.875   1.742  1.8646 -2.0745 -0.4980
   49MOL    H9921315   0.593   3.098   1.633  1.1872  2.3383 -1.2716
   49MOL   H10021316   0.888   3.095   1.687 -0.9300 -0.0159  1.6732
   49MOL   H10121317   0.770   3.206   1.738  0.6148 -0.4894  0.8592
   49MOL   H10221318   0.916   3.261   1.533  0.0472 -0.7073 -3.0546
   49MOL   H10321319   0.732   3.277   1.506  0.0784 -0.5150  1.4314
   49MOL   H10421320   0.936   3.069   1.415 -0.1305 -0.9289  2.7742
   49MOL   H10521321   0.848   3.180   1.310  0.8156  0.1317  0.8774
   49MOL   H10621322   0.629   3.074   1.366 -0.1379 -0.6200 -0.4642
   49MOL   H10721323   0.745   2.951   1.315 -0.5633 -0.4081 -0.2011
   49MOL   H10821324   0.599   2.890   1.505  0.1927  1.2688 -1.4708
   49MOL   H10921325   0.760   2.864   1.524  0.5462  0.7630 -1.1534
   49MOL   H11021326   0.853   2.856   1.711 -1.7902 -0.9538 -1.0379
   49MOL   H11121327   0.844   2.936   1.871 -3.9980  2.0437  0.9723
   49MOL   C11221328   0.781   2.723   1.850  0.1746 -0.0022  0.0563
   49MOL   C11321329   0.893   2.698   1.952 -0.5723 -0.2842  0.6647
   49MOL   C11421330   0.894   2.762   2.094  0.9383 -0.5586 -0.0390
   49MOL   C11521331   1.006   2.718   2.191  0.1588 -0.1369  0.6750
   49MOL   C11621332   1.144   2.728   2.125  0.6470 -0.4121 -0.0797
   49MOL   C11721333   1.146   2.669   1.982 -0.4571 -0.0392  0.2992
   49MOL   C11821334   1.032   2.716   1.889  0.0453  0.1544 -0.7202
   49MOL   C11921335   0.765   2.631   1.726 -0.5497  0.1465 -1.3303
   49MOL   H12021336   0.696   2.710   1.917 -0.3722  1.1520 -0.3909
   49MOL   H12121337   0.891   2.591   1.973 -0.0790 -0.2677  0.8012
   49MOL   H12221338   0.798   2.741   2.140  0.0336 -1.2565 -2.1817
   49MOL   H12321339   0.892   2.870   2.076 -1.8332 -0.6183 -0.2898
   49MOL   H12421340   1.004   2.787   2.276 -0.9242  1.4157 -0.5772
   49MOL   H12521341   0.981   2.622   2.234 -0.1663  0.4969  1.9303
   49MOL   H12621342   1.180   2.830   2.133 -0.2212  0.1300 -2.5637
   49MOL   H12721343   1.218   2.670   2.179  2.6085  1.6146 -0.5176
   49MOL   H12821344   1.247   2.677   1.942 -0.5230 -1.9661 -0.2684
   49MOL   H12921345   1.134   2.562   1.999 -1.1174  0.1575  1.1048
   49MOL   H13021346   1.033   2.665   1.793  2.1438 -0.1244 -0.5761
   49MOL   H13121347   1.046   2.824   1.883 -1.4558  0.3883 -0.3348
   49MOL   H13221348   0.845   2.651   1.655  0.2220 -1.9988 -1.0989
   49MOL   H13321349   0.667   2.643   1.678 -1.0815  0.1404 -0.2559
   49MOL   C13421350   0.774   2.477   1.747 -0.0398  0.6242 -0.1532
   49MOL   C13521351   0.826   2.385   1.627 -0.0449  0.1864 -0.5117
   49MOL   C13621352   0.976   2.413   1.589 -0.1578  0.2100 -0.2068
   49MOL   C13721353   1.021   2.319   1.477  0.3197  0.4965  0.3721
   49MOL   C13821354   0.923   2.323   1.354 -1.1568 -0.5723  0.5205
   49MOL   C13921355   0.784   2.281   1.406 -0.0412 -0.1305 -0.8927
   49MOL   C14021356   0.738   2.393   1.503 -0.8840  0.1364 -0.2754
   49MOL   C14121357   0.648   2.417   1.816  0.8045  1.6323 -0.1444
   49MOL   H14221358   0.854   2.455   1.817  0.7797 -0.5584 -1.4549
   49MOL   H14321359   0.825   2.281   1.659 -0.3939 -0.1692 -1.6407
   49MOL   H14421360   0.969   2.517   1.557 -4.6763 -0.5057 -1.8821
   49MOL   H14521361   1.039   2.412   1.678  0.2607  0.1532 -0.5032
   49MOL   H14621362   1.030   2.218   1.516 -0.2872 -0.0436 -0.8387
   49MOL   H14721363   1.125   2.337   1.448 -0.3700  1.4326 -1.6371
   49MOL   H14821364   0.923   2.426   1.317 -1.9410 -0.1939  1.5794
   49MOL   H14921365   0.957   2.261   1.270  3.2471  1.8627  0.3435
   49MOL   H15021366   0.797   2.182   1.450 -1.6378 -0.5709 -1.3874
   49MOL   H15121367   0.710   2.279   1.326 -1.9110  4.8319  0.5019
   49MOL   H15221368   0.748   2.491   1.456  0.8781  1.3120  2.3905
   49MOL   H15321369   0.632   2.385   1.529 -1.1488  0.6593 -1.1561
   49MOL   H15421370   0.573   2.396   1.741  0.8897  0.7096  0.0226
   49MOL   H15521371   0.604   2.497   1.876  0.7651 -0.3236  2.5520
   49MOL   C15621372   0.659   2.292   1.905 -0.0722  0.4301 -0.5937
   49MOL   C15721373   0.548   2.184   1.887  0.3413  0.1021 -0.2178
   49MOL   C15821374   0.415   2.224   1.943 -0.1660  0.0724 -0.0032
   49MOL   C15921375   0.300   2.114   1.925 -0.1231 -0.6685 -0.3173
   49MOL   C16021376   0.296   2.060   1.782  0.3526  0.0096  0.1392
   49MOL   C16121377   0.441   2.015   1.740 -0.5611 -0.0210 -0.4897
   49MOL   C16221378   0.533   2.141   1.747  0.4066 -0.5331 -0.1104
   49MOL   C16321379   0.683   2.329   2.059 -0.2439 -0.4293  0.1077
   49MOL   H16421380   0.751   2.242   1.874  0.2007  2.1954 -2.7329
   49MOL   H16521381   0.589   2.098   1.940  0.2227  0.1576 -0.0375
   49MOL   H16621382   0.423   2.251   2.049  0.1088  0.4219 -0.1148
   49MOL   H16721383   0.374   2.315   1.899 -0.5820 -0.3725 -0.5444
   49MOL   H16821384   0.328   2.025   1.981 -2.3174 -0.6281  0.8985
   49MOL   H16921385   0.206   2.141   1.973  0.8125 -0.7223  1.5961
   49MOL   H17021386   0.257   2.132   1.709 -1.9173 -1.6356 -0.3139
   49MOL   H17121387   0.231   1.975   1.763  0.7560 -0.6291  1.6249
   49MOL   H17221388   0.440   1.975   1.639  0.1411  1.1535 -0.9700
   49MOL   H17321389   0.482   1.937   1.804 -0.3382  0.8059  0.3850
   49MOL   H17421390   0.630   2.126   1.701  0.6118  0.2635  0.0591
   49MOL   H17521391   0.476   2.214   1.688 -0.1450 -0.8281  0.0536
   49MOL   H17621392   0.597   2.394   2.079  0.0375  0.1817 -0.6746
   49MOL   H17721393   0.775   2.384   2.076  0.3889 -1.1015 -1.0369
   49MOL   C17821394   0.678   2.224   2.177  0.6215  0.5259  0.4023
   49MOL   C17921395   0.811   2.148   2.186 -0.3631  0.8517 -0.1916
   49MOL   C18021396   0.794   2.007   2.245 -0.4032 -0.0779  0.3013
   49MOL   C18121397   0.918   1.934   2.222  0.0342 -0.4665 -0.2714
   49MOL   C18221398   1.035   1.992   2.297  0.3271 -0.0658  0.3611
   49MOL   C18321399   1.060   2.140   2.268  0.6157  0.7044  0.0345
   49MOL   C18421400   0.926   2.212   2.269  0.2632  0.0829 -0.1428
   49MOL   C18521401   0.647   2.298   2.319 -0.3043 -0.0303  1.5317
   49MOL   H18621402   0.586   2.168   2.160  0.5514 -0.0684  2.6263
   49MOL   H18721403   0.841   2.135   2.082  0.8325 -0.3012  0.2867
   49MOL   H18821404   0.757   2.015   2.347 -4.7983 -2.5469 -0.9531
   49MOL   H18921405   0.716   1.952   2.191 -0.5131  0.8305 -0.4712
   49MOL   H19021406   0.925   1.935   2.114 -0.3083  1.7760 -0.3044
   49MOL   H19121407   0.901   1.828   2.239 -0.3736 -0.3978 -0.2375
   49MOL   H19221408   1.013   1.986   2.404 -0.8386  0.1156  0.1326
   49MOL   H19321409   1.126   1.935   2.280  0.2727  0.9631 -3.7911
   49MOL   H19421410   1.128   2.154   2.184 -0.9562  2.4764 -0.9847
   49MOL   H19521411   1.109   2.183   2.356  1.2953  1.7725 -0.8554
   49MOL   H19621412   0.903   2.245   2.370 -1.1515  0.9768 -0.7332
   49MOL   H19721413   0.950   2.310   2.226  0.1669  0.2843  0.2560
   49MOL   H19821414   0.671   2.226   2.397  1.4924 -0.6222  0.4676
   49MOL   H19921415   0.710   2.386   2.330 -1.6961  1.6676 -2.9447
   49MOL   C20021416   0.492   2.330   2.346 -0.0807 -0.2347 -0.3793
   49MOL   C20121417   0.439   2.459   2.278 -0.0499  0.2541 -0.0807
   49MOL   C20221418   0.297   2.500   2.340 -0.1293  0.1523 -0.4189
   49MOL   C20321419   0.242   2.624   2.275 -0.4726 -0.5790 -0.0036
   49MOL   C20421420   0.341   2.734   2.273  0.2416 -0.1410 -0.0232
   49MOL   C20521421   0.476   2.701   2.204  0.9723 -0.5984 -0.2119
   49MOL   C20621422   0.533   2.581   2.279 -0.7054  0.4489  0.2146
   49MOL   C20721423   0.401   2.208   2.344 -0.9224  0.0256  0.6806
   49MOL   H20821424   0.487   2.368   2.449 -0.6205 -0.3481 -0.3635
   49MOL   H20921425   0.419   2.445   2.172 -0.3320 -0.1441  0.0248
   49MOL   H21021426   0.305   2.515   2.448 -1.6033 -1.5701 -0.0450
   49MOL   H21121427   0.215   2.428   2.332 -0.3890  0.3754  0.2277
   49MOL   H21221428   0.213   2.611   2.171 -0.4193  0.1223 -0.1068
   49MOL   H21321429   0.153   2.665   2.322  0.6539  0.9910  0.8312
   49MOL   H21421430   0.282   2.810   2.221  0.7356  1.2981  1.4514
   49MOL   H21521431   0.350   2.785   2.369  1.5139 -1.6145  0.6582
   49MOL   H21621432   0.458   2.680   2.099  0.4758  0.0454 -0.2629
   49MOL   H21721433   0.544   2.786   2.200  2.1886 -1.5625 -0.1202
   49MOL   H21821434   0.624   2.553   2.227 -2.1660 -2.1587 -1.0286
   49MOL   H21921435   0.551   2.608   2.384  0.3339 -0.2399  0.2261
   49MOL   H22021436   0.351   2.211   2.247  0.9653  0.6427 -0.3095
   49MOL   H22121437   0.462   2.118   2.349 -0.9743  0.0093  1.0163
   49MOL   C22221438   0.290   2.198   2.449  1.0780  0.0034 -0.1277
   49MOL   C22321439   0.173   2.111   2.397  0.6479 -0.6015 -0.3081
   49MOL   C22421440   0.219   1.974   2.340 -0.1657 -0.5992  0.5098
   49MOL   C22521441   0.107   1.880   2.278  0.0201 -0.2565 -0.6743
   49MOL   C22621442   0.034   1.963   2.174  0.6429 -0.1571  0.4127
   49MOL   C22721443   7.753   2.093   2.231 -0.0983  0.2800 -0.3861
   49MOL   C22821444   0.089   2.184   2.288 -0.1085 -0.3117  0.0094
   49MOL   C22921445   0.352   2.154   2.580 -0.2961  0.4345  0.2025
   49MOL   H23021446   0.266   2.299   2.485  2.7971 -0.4101  2.3433
   49MOL   H23121447   0.118   2.087   2.488  1.1390 -1.3030 -0.1926
   49MOL   H23221448   0.289   1.992   2.258 -0.2947  1.4750  0.8104
   49MOL   H23321449   0.274   1.929   2.423 -2.5545 -0.7173  2.0739
   49MOL   H23421450   0.040   1.836   2.352  0.4978  0.3834  0.1458
   49MOL   H23521451   0.169   1.803   2.232  0.8120 -0.4856  0.7624
   49MOL   H23621452   0.085   1.980   2.080 -2.0976 -0.0397 -1.1090
   49MOL   H23721453   7.725   1.899   2.140  0.2182  0.7987 -0.3844
   49MOL   H23821454   7.681   2.079   2.312  0.1856 -0.0679 -0.1969
   49MOL   H23921455   7.701   2.154   2.157  0.3304  1.0011 -0.0905
   49MOL   H24021456   0.150   2.224   2.207 -1.2110  1.2295 -0.0923
   49MOL   H24121457   0.042   2.276   2.324 -3.0139 -1.6872 -0.1911
   49MOL   H24221458   0.427   2.229   2.606  1.2096 -1.0484  0.1622
   49MOL   H24321459   0.400   2.060   2.555  0.8766  0.3891  2.4397
   49MOL   C24421460   0.267   2.148   2.718 -0.4935 -0.3902  0.2274
   49MOL   C24521461   0.223   2.288   2.773  0.3822 -0.8368 -0.5587
   49MOL   C24621462   0.346   2.384   2.795 -0.0198 -0.0434 -0.1036
   49MOL   C24721463   0.313   2.519   2.860 -0.3769 -0.4389 -0.5087
   49MOL   C24821464   0.228   2.510   2.983 -0.0433  0.2762  0.1740
   49MOL   C24921465   0.098   2.427   2.952 -0.0926  0.6548  0.0518
   49MOL   C25021466   0.126   2.287   2.900 -0.3266 -0.2523 -0.0083
   49MOL   C25121467   0.339   2.062   2.835 -0.4429 -0.1809 -0.1294
   49MOL   H25221468   0.172   2.098   2.701 -1.0719 -0.4912  3.4582
   49MOL   H25321469   0.160   2.329   2.694  0.1129 -0.5829 -0.2078
   49MOL   H25421470   0.393   2.414   2.701  0.1962  3.1273  0.9678
   49MOL   H25521471   0.423   2.336   2.855 -1.6241  0.9453  2.7993
   49MOL   H25621472   0.404   2.579   2.866  0.0457 -1.0774 -0.5218
   49MOL   H25721473   0.257   2.578   2.788  0.2352 -0.0716 -0.6945
   49MOL   H25821474   0.279   2.461   3.066  1.2664  0.3408 -0.5782
   49MOL   H25921475   0.196   2.611   3.011  0.4704  0.0836  1.4919
   49MOL   H26021476   0.050   2.479   2.869 -1.0391 -0.8573 -0.3752
   49MOL   H26121477   0.026   2.409   3.032 -0.0813 -0.3235 -0.1483
   49MOL   H26221478   0.179   2.242   2.984  0.8525 -0.4090 -0.8259
   49MOL   H26321479   0.033   2.232   2.887 -1.7576  2.3502 -1.1817
   49MOL   H26421480   0.369   2.140   2.905  1.9729  0.2452 -1.5726
   49MOL   H26521481   0.432   2.025   2.792 -0.8883 -1.4986  0.0031
   49MOL   C26621482   0.268   1.946   2.904 -0.3433 -0.0096  0.0159
   49MOL   C26721483   0.276   1.801   2.836  0.0998  0.1221  0.1276
   49MOL   C26821484   0.255   1.800   2.683  0.0696 -0.3045 -0.1810
   49MOL   C26921485   0.255   1.667   2.613 -0.4252  0.4815 -0.2335
   49MOL   C27021486   0.169   1.567   2.673 -0.1205  0.1030  0.2840
   49MOL   C27121487   0.185   1.568   2.826 -0.2948 -0.2773  0.3611
   49MOL   C27221488   0.167   1.702   2.894 -0.0495 -0.2589  0.6971
   49MOL   C27321489   0.296   1.953   3.054 -0.0580  0.1883  0.0049
   49MOL   H27421490   0.163   1.972   2.902 -0.5890 -0.9057  0.7239
   49MOL   H27521491   0.377   1.768   2.858  0.7110  0.7871 -1.5838
   49MOL   H27621492   0.165   1.857   2.660  0.0620  1.1719  3.1281
   49MOL   H27721493   0.342   1.850   2.640 -0.1404  0.4633  0.2708
   49MOL   H27821494   0.357   1.628   2.625  0.2114  1.9426 -0.8128
   49MOL   H27921495   0.234   1.681   2.507 -3.8583  0.1876  0.3570
   49MOL   H28021496   0.066   1.603   2.664 -0.4051 -0.5298  0.9356
   49MOL   H28121497   0.190   1.479   2.614 -1.8675  1.0634 -1.8526
   49MOL   H28221498   0.284   1.537   2.858 -1.8962 -3.1386  2.8439
   49MOL   H28321499   0.117   1.493   2.866 -1.3869 -1.3726 -3.2840
   49MOL   H28421500   0.168   1.687   3.002 -0.3655  1.5099  0.9610
   49MOL   H28521501   0.067   1.739   2.872  0.4339 -0.5586 -2.2537
   49MOL   H28621502   0.215   1.897   3.101 -2.0303  1.6983 -1.5387
   49MOL   H28721503   0.279   2.053   3.095  0.2736 -0.2029  1.1285
   49MOL   C28821504   0.427   1.884   3.105  0.2984  0.1657 -0.2754
   49MOL   C28921505   0.415   1.843   3.251 -0.5052  0.0770  0.8502
   49MOL   C29021506   0.388   1.953   3.353  0.2520  0.1621  0.7768
   49MOL   C29121507   0.405   1.897   3.493  0.0503  0.3772 -0.5048
   49MOL   C29221508   0.315   1.774   3.524 -0.2806  0.4548 -0.3437
   49MOL   C29321509   0.331   1.672   3.409  0.0870  0.4930 -0.2818
   49MOL   C29421510   0.318   1.733   3.271 -0.1440  0.7643 -0.0190
   49MOL   C29521511   0.557   1.975   3.085  0.2893 -0.1019  0.3461
   49MOL   H29621512   0.435   1.792   3.047  4.1246 -0.0365  0.4294
   49MOL   H29721513   0.507   1.794   3.284 -1.3080 -3.2585 -1.6190
   49MOL   H29821514   0.459   2.035   3.347  0.2587  0.1816  1.0720
   49MOL   H29921515   0.292   2.000   3.333 -0.3165 -1.6617 -0.8663
   49MOL   H30021516   0.504   1.857   3.516 -0.2146  0.5424  0.9373
   49MOL   H30121517   0.379   1.974   3.565  1.4292  0.9836 -0.6383
   49MOL   H30221518   0.212   1.811   3.522 -0.3018  0.3756 -0.6919
   49MOL   H30321519   0.341   1.728   3.620 -1.9512 -0.1732 -0.1823
   49MOL   H30421520   0.260   1.592   3.427  2.5511 -1.7073 -0.0741
   49MOL   H30521521   0.429   1.626   3.419 -0.6710 -0.9208  0.7445
   49MOL   H30621522   0.215   1.765   3.258  0.5798  2.2469 -2.4896
   49MOL   H30721523   0.332   1.644   3.210 -1.2886  0.6149 -0.0696
   49MOL   H30821524   0.525   2.077   3.065  0.9811  0.0734  0.1099
   49MOL   H30921525   0.607   1.985   3.181 -1.5768  1.5059  1.1864
   49MOL   C31021526   0.655   1.924   2.981 -0.2021 -0.1734 -0.2012
   49MOL   C31121527   0.751   2.032   2.921  0.2007  0.0699  0.2806
   49MOL   C31221528   0.674   2.118   2.811 -0.8067 -0.2861 -0.0174
   49MOL   C31321529   0.759   2.227   2.744 -0.2905 -0.3159 -0.4504
   49MOL   C31421530   0.833   2.314   2.849 -0.2856 -0.0144 -0.6865
   49MOL   C31521531   0.912   2.229   2.947  0.0979  0.3884  0.2838
   49MOL   C31621532   0.816   2.132   3.023 -1.0168 -0.8821 -0.4684
   49MOL   C31721533   0.723   1.795   3.031 -0.0422 -0.5527  0.2223
   49MOL   H31821534   0.590   1.898   2.897 -2.2180  0.4954  1.0982
   49MOL   H31921535   0.832   1.985   2.865  1.4396  0.9438  1.3184
   49MOL   H32021536   0.624   2.060   2.733  0.3183  1.1125 -1.8290
   49MOL   H32121537   0.592   2.169   2.862 -1.3186  0.5178 -1.5822
   49MOL   H32221538   0.695   2.296   2.688  0.7203  0.9810 -0.0208
   49MOL   H32321539   0.825   2.194   2.664  0.7775  0.0279  0.2814
   49MOL   H32421540   0.897   2.380   2.791  1.6924  0.9416  2.4725
   49MOL   H32521541   0.759   2.371   2.905 -0.8835 -2.3972  1.0103
   49MOL   H32621542   0.985   2.169   2.891 -2.0985 -2.0109 -0.1242
   49MOL   H32721543   0.962   2.297   3.015 -0.1180  2.0357 -1.1856
   49MOL   H32821544   0.737   2.186   3.075  0.6850  1.4841 -0.2566
   49MOL   H32921545   0.872   2.067   3.090 -3.4840 -0.9882  1.5532
   49MOL   H33021546   0.713   1.779   3.138 -1.3885  0.6123  0.2848
   49MOL   H33121547   0.831   1.805   3.019 -0.2721  1.6732 -0.1050
   49MOL   C33221548   0.685   1.667   2.951  0.1238 -0.6596  0.1623
   49MOL   C33321549   0.701   1.534   3.026 -0.5006 -0.3974 -0.6259
   49MOL   C33421550   0.607   1.513   3.153 -0.4608 -0.6885 -0.6183
   49MOL   C33521551   0.619   1.368   3.205 -0.4553  0.6919 -0.0762
   49MOL   C33621552   0.764   1.340   3.233 -0.4463  0.0047 -0.4102
   49MOL   C33721553   0.850   1.359   3.116  0.3578  0.4544  0.1475
   49MOL   C33821554   0.840   1.502   3.066 -0.0981 -0.0942 -0.4925
   49MOL   C33921555   0.775   1.672   2.826 -0.1852  0.1005  0.4264
   49MOL   H34021556   0.579   1.680   2.933 -0.1478 -1.7554  0.9308
   49MOL   H34121557   0.665   1.456   2.959 -0.9240  0.0982 -0.9835
   49MOL   H34221558   0.622   1.589   3.230  1.6422 -0.1133 -1.5323
   49MOL   H34321559   0.507   1.533   3.116 -0.2278  0.6147 -0.5760
   49MOL   H34421560   0.561   1.355   3.296 -0.1247 -1.8132 -0.1742
   49MOL   H34521561   0.582   1.295   3.133  0.4408  0.0265  0.1227
   49MOL   H34621562   0.810   1.401   3.311 -0.5126 -2.2110  1.4365
   49MOL   H34721563   0.775   1.241   3.278  1.3854  1.3877  2.3416
   49MOL   H34821564   0.813   1.295   3.036 -1.7319  2.4218 -0.5043
   49MOL   H34921565   0.950   1.325   3.145  0.0242 -1.7572 -1.1855
   49MOL   H35021566   0.905   1.502   2.979  0.5751 -2.1231 -0.0221
   49MOL   H35121567   0.876   1.570   3.142 -1.3021  0.5374 -0.4822
   49MOL   H35221568   0.873   1.708   2.856  0.4421 -0.5918 -0.7721
   49MOL   H35321569   0.734   1.752   2.764  1.5184  1.3842  0.9375
   49MOL   C35421570   0.788   1.542   2.737 -0.2436 -0.6235 -0.4561
   49MOL   C35521571   0.902   1.555   2.642  0.1296  0.3045 -0.1797
   49MOL   C35621572   1.041   1.535   2.721 -0.1746  0.2416  0.1213
   49MOL   C35721573   1.165   1.544   2.630  0.4110  0.1051  0.3784
   49MOL   C35821574   1.160   1.674   2.544 -0.5072  1.5314 -0.4853
   49MOL   C35921575   1.023   1.684   2.470  0.3414 -0.1301  0.5308
   49MOL   C36021576   0.905   1.687   2.563  0.2298 -0.7275 -0.6908
   49MOL   C36121577   0.653   1.518   2.662  0.0115  0.2100 -0.8575
   49MOL   H36221578   0.801   1.461   2.808 -2.0884  0.2611  0.9500
   49MOL   H36321579   0.916   1.468   2.578  2.1629  0.1404  0.4285
   49MOL   H36421580   1.040   1.454   2.794 -0.2535 -0.9293 -1.1565
   49MOL   H36521581   1.056   1.627   2.778  0.0905  1.0440 -1.2056
   49MOL   H36621582   1.253   1.542   2.695  0.3300 -1.0886  0.4605
   49MOL   H36721583   1.173   1.456   2.566  0.5409 -0.9409  1.8006
   49MOL   H36821584   1.182   1.762   2.604  0.2287  1.3258 -0.4479
   49MOL   H36921585   1.232   1.669   2.462  0.7172  2.0090  0.5519
   49MOL   H37021586   1.021   1.771   2.404 -0.3177 -1.4306 -1.2391
   49MOL   H37121587   1.016   1.605   2.395 -1.8315  2.4306 -2.0997
   49MOL   H37221588   0.809   1.706   2.515 -0.2996  0.6709  0.8651
   49MOL   H37321589   0.920   1.777   2.623 -0.0068  0.5357 -2.4814
   49MOL   H37421590   0.648   1.589   2.579  0.5566  1.6718  0.3393
   49MOL   H37521591   0.558   1.541   2.710 -0.0449 -1.4071 -0.1622
   49MOL   C37621592   0.648   1.372   2.597 -0.0745 -0.1245  0.8896
   49MOL   C37721593   0.579   1.275   2.698  0.5194  0.2659 -0.5727
   49MOL   C37821594   0.613   1.135   2.675  0.1090  0.9403  0.1250
   49MOL   C37921595   0.563   1.040   2.780  0.3264  1.0850  0.0960
   49MOL   C38021596   0.407   1.032   2.781 -0.3900 -0.2853  0.9790
   49MOL   C38121597   0.360   1.182   2.796 -0.8209  0.4802 -1.2120
   49MOL   C38221598   0.426   1.277   2.694  0.5191 -0.1246  0.0458
   49MOL   C38321599   0.602   1.364   2.451 -0.5781 -0.0562 -0.8959
   49MOL   H38421600   0.749   1.334   2.610  0.6892  1.6402  0.2847
   49MOL   H38521601   0.601   1.304   2.801  3.1370 -2.5924 -0.2772
   49MOL   H38621602   0.576   1.100   2.579  1.3525 -0.0222 -0.0267
   49MOL   H38721603   0.720   1.115   2.664  0.5083  2.3417  1.3044
   49MOL   H38821604   0.599   1.064   2.880  0.7690 -1.6537  0.6399
   49MOL   H38921605   0.608   0.947   2.746 -2.8326 -0.5240  0.1302
   49MOL   H39021606   0.378   0.990   2.685  0.5428 -0.3736  0.7275
   49MOL   H39121607   0.392   0.973   2.871 -3.1403 -3.5845 -1.4534
   49MOL   H39221608   0.253   1.189   2.779 -1.1643 -2.2007 -0.3261
   49MOL   H39321609   0.389   1.222   2.893  0.4912  0.5452 -1.6147
   49MOL   H39421610   0.379   1.264   2.596 -1.5226  0.0411  0.9669
   49MOL   H39521611   0.390   1.371   2.735  0.6545  0.4558 -1.1178
   49MOL   H39621612   0.522   1.436   2.429 -2.3366 -0.6983  3.1252
   49MOL   H39721613   0.560   1.269   2.418  0.5606 -1.7416  2.3417
   49MOL   C39821614   0.711   1.400   2.354  0.1186 -0.0529 -0.5489
   49MOL   C39921615   0.823   1.289   2.346  0.4841  0.5687  0.0848
   49MOL   C40021616   0.774   1.153   2.283 -0.0496 -0.6329 -0.2778
   49MOL   C40121617   0.892   1.051   2.290 -0.4622  0.5487  0.1426
   49MOL   C40221618   1.017   1.095   2.230  0.4027  0.2520 -0.0202
   49MOL   C40321619   1.066   1.231   2.282 -0.0432 -0.6472  0.3436
   49MOL   C40421620   0.947   1.330   2.272  0.0305  0.3651 -0.0002
   49MOL   C40521621   0.656   1.429   2.210  0.1850  0.1723 -0.3864
   49MOL   H40621622   0.758   1.486   2.403 -1.5228  1.6783 -1.9219
   49MOL   H40721623   0.860   1.267   2.446 -0.3717  1.4040  0.6017
   49MOL   H40821624   0.730   1.159   2.183  0.1839  0.6175 -0.3120
   49MOL   H40921625   0.693   1.119   2.346 -0.0769  1.5092  0.8992
   49MOL   H41021626   0.867   0.958   2.239  3.0620 -0.0386 -0.6524
   49MOL   H41121627   0.915   1.018   2.391  1.1455  0.4092 -0.2551
   49MOL   H41221628   1.014   1.095   2.121 -2.6132 -0.2750  0.0176
   49MOL   H41321629   1.092   1.018   2.249  1.0371  0.8458 -0.0784
   49MOL   H41421630   1.095   1.231   2.387 -1.3265  1.1800  0.7313
   49MOL   H41521631   1.144   1.263   2.213 -3.5003 -0.2746 -3.6670
   49MOL   H41621632   0.984   1.430   2.294  1.2124 -0.4604  1.9397
   49MOL   H41721633   0.913   1.333   2.169  0.5829 -1.5093 -0.2493
   49MOL   H41821634   0.740   1.459   2.148 -1.7660  2.9153 -1.8077
   49MOL   H41921635   0.611   1.333   2.185  0.5896  0.3371 -1.7417
   49MOL   C42021636   0.546   1.545   2.200  0.2576 -0.3543  0.2174
   49MOL   C42121637   0.495   1.553   2.052 -0.0303 -0.0511 -0.2000
   49MOL   C42221638   0.373   1.655   2.033 -0.2315 -0.0340  0.2637
   49MOL   C42321639   0.330   1.672   1.888 -0.2154 -0.7726 -0.5220
   49MOL   C42421640   0.284   1.540   1.831 -0.0090 -0.3986 -0.1245
   49MOL   C42521641   0.394   1.433   1.848  0.5998 -0.4012  0.2398
   49MOL   C42621642   0.441   1.421   1.992  0.1593  0.3151  0.0317
   49MOL   C42721643   0.596   1.673   2.256 -0.5922 -0.1146  0.6177
   49MOL   H42821644   0.451   1.516   2.244  1.0985 -1.7776  1.1554
   49MOL   H42921645   0.571   1.582   1.980 -0.6396 -0.3436 -0.9679
   49MOL   H43021646   0.290   1.621   2.096  0.2626  0.2523  1.0749
   49MOL   H43121647   0.402   1.752   2.072 -0.1946  0.3315 -0.6689
   49MOL   H43221648   0.248   1.742   1.868 -1.7290 -2.3851 -0.1525
   49MOL   H43321649   0.417   1.706   1.832 -1.2608  0.3635 -1.4805
   49MOL   H43421650   0.277   1.546   1.723 -0.4442 -1.0313 -0.1293
   49MOL   H43521651   0.194   1.491   1.867  1.6284 -3.3854  0.1260
   49MOL   H43621652   0.488   1.451   1.797  0.1388  0.6337 -0.2489
   49MOL   H43721653   0.347   1.339   1.818 -2.6753  0.7793  1.4568
   49MOL   H43821654   0.352   1.392   2.048 -1.3134  0.8184 -2.0155
   49MOL   H43921655   0.515   1.341   1.987 -0.3002 -0.1136  0.0069
   49MOL   H44021656   0.522   1.753   2.252 -0.6060 -0.2059 -3.3337
   49MOL   H44121657   0.616   1.670   2.363  0.0531 -0.3413  0.4886
   49MOL   H44221658   0.697   1.688   2.219 -1.3441 -1.7450 -2.2353
   50MOL     C121659   3.999   2.817   1.902  0.4587  0.1185  0.0068
   50MOL     C221660   4.061   2.867   1.767 -0.0334  0.0022 -0.6834
   50MOL     C321661   4.126   2.755   1.686  0.0987  1.1750  0.1524
   50MOL     C421662   4.208   2.799   1.563  0.1641 -0.0196 -0.4250
   50MOL     C521663   4.318   2.892   1.618  0.1179  0.3085 -0.1442
   50MOL     C621664   4.248   3.014   1.676 -0.7779  0.0018 -0.1455
   50MOL     C721665   4.166   2.976   1.801 -0.4194 -0.1242  0.4645
   50MOL     C821666   3.905   2.690   1.898 -0.6925 -0.0343  0.4978
   50MOL     H921667   4.070   2.791   1.980  0.6987  0.9819  0.0762
   50MOL    H1021668   3.982   2.910   1.706 -0.0521  0.7650 -0.1150
   50MOL    H1121669   4.191   2.695   1.750 -0.5117 -1.1007 -1.2844
   50MOL    H1221670   4.047   2.691   1.645 -0.5749 -0.1215  3.3528
   50MOL    H1321671   4.148   2.841   1.482 -0.0581 -0.7534 -0.6469
   50MOL    H1421672   4.249   2.709   1.519  0.8673 -1.8886  3.8038
   50MOL    H1521673   4.385   2.930   1.540  0.7986  1.8555  1.1522
   50MOL    H1621674   4.378   2.840   1.692 -1.9306 -0.4155  1.0132
   50MOL    H1721675   4.324   3.089   1.701 -0.9962  0.9483 -2.2333
   50MOL    H1821676   4.182   3.049   1.597 -0.5005 -1.7718 -1.1751
   50MOL    H1921677   4.121   3.063   1.848 -1.5786 -0.7450  0.5111
   50MOL    H2021678   4.235   2.937   1.877 -0.4791 -0.6451  0.2545
   50MOL    H2121679   3.960   2.608   1.853  0.5879  0.8746  0.3865
   50MOL    H2221680   3.836   2.709   1.815 -1.7534 -1.6405  0.9960
   50MOL    H2321681   3.932   2.896   1.937  1.5822  0.6730  0.9148
   50MOL    C2421682   3.828   2.645   2.026  0.2670 -0.7373  0.4225
   50MOL    C2521683   3.697   2.562   1.990  0.0501  0.0893  0.4885
   50MOL    C2621684   3.597   2.536   2.104  0.4025 -0.1260  0.7704
   50MOL    C2721685   3.466   2.466   2.053  0.8500 -0.3090  0.0449
   50MOL    C2821686   3.489   2.341   1.969 -0.6285  0.5116  0.1540
   50MOL    C2921687   3.574   2.391   1.849  0.0108  0.8122 -0.1740
   50MOL    C3021688   3.714   2.445   1.896  0.2285 -0.3912  0.1860
   50MOL    C3121689   3.928   2.559   2.107 -0.3460 -0.3140  1.2200
   50MOL    H3221690   3.787   2.732   2.077 -0.3787 -0.2035 -0.9768
   50MOL    H3321691   3.651   2.636   1.924  0.2727 -0.2115 -0.0095
   50MOL    H3421692   3.565   2.632   2.143  3.7959  1.4312 -0.0588
   50MOL    H3521693   3.635   2.473   2.185  1.1542 -0.3541  0.2506
   50MOL    H3621694   3.401   2.448   2.138 -0.0448 -0.4611 -0.6644
   50MOL    H3721695   3.416   2.538   1.989 -0.7899  0.1745  1.8533
   50MOL    H3821696   3.391   2.309   1.935 -1.7605  0.1777  3.4894
   50MOL    H3921697   3.537   2.261   2.027 -1.4742 -0.7216 -0.8137
   50MOL    H4021698   3.593   2.309   1.780  2.2223  0.8600  0.3555
   50MOL    H4121699   3.521   2.469   1.794 -1.7657 -1.2594 -1.4679
   50MOL    H4221700   3.764   2.364   1.949  0.3809 -1.3141 -1.3490
   50MOL    H4321701   3.770   2.468   1.806 -2.8520  1.1987 -1.3982
   50MOL    H4421702   4.003   2.520   2.038 -0.0089 -0.4125  1.6419
   50MOL    H4521703   3.876   2.467   2.136  0.0644 -1.6985 -2.1479
   50MOL    C4621704   3.986   2.619   2.239  0.3653 -0.7720 -0.8358
   50MOL    C4721705   4.127   2.561   2.284  0.1631  0.5884 -0.1761
   50MOL    C4821706   4.233   2.570   2.171 -0.2602 -0.0611 -0.5790
   50MOL    C4921707   4.373   2.534   2.227 -0.5640  0.3262 -0.0778
   50MOL    C5021708   4.375   2.387   2.272  0.2160 -0.1476  0.2236
   50MOL    C5121709   4.263   2.368   2.375 -0.3822 -0.3546  0.0511
   50MOL    C5221710   4.122   2.414   2.334 -0.6252 -0.3848 -0.0931
   50MOL    C5321711   3.878   2.617   2.349  0.3133 -0.2160  0.2231
   50MOL    H5421712   3.996   2.728   2.232  2.1899 -0.7952  1.0425
   50MOL    H5521713   4.160   2.624   2.366 -0.1196  0.2898  0.1702
   50MOL    H5621714   4.218   2.515   2.078  1.1780  1.9141 -2.0460
   50MOL    H5721715   4.247   2.677   2.155  0.3176  0.0820  0.8417
   50MOL    H5821716   4.398   2.596   2.314 -0.7462 -1.2669  1.1273
   50MOL    H5921717   4.464   2.539   2.167 -1.1384 -0.3879 -1.0126
   50MOL    H6021718   4.348   2.322   2.188 -1.7667  0.6352  0.2134
   50MOL    H6121719   4.466   2.350   2.317  0.6900  0.1035 -0.5149
   50MOL    H6221720   4.295   2.421   2.465  0.4506  1.4069 -1.2512
   50MOL    H6321721   4.281   2.265   2.406  2.1026  0.9330  3.1679
   50MOL    H6421722   4.080   2.358   2.250 -0.4897  0.8945 -1.0255
   50MOL    H6521723   4.051   2.416   2.418  1.1663 -0.2681  1.4507
   50MOL    H6621724   3.847   2.515   2.372 -0.5065 -0.7300 -2.9774
   50MOL    H6721725   3.784   2.649   2.303  0.0470 -0.3948  0.6315
   50MOL    C6821726   3.888   2.728   2.465 -0.1438 -0.0753 -0.4162
   50MOL    C6921727   3.833   2.869   2.421  0.6530 -0.1703  0.1935
   50MOL    C7021728   3.678   2.884   2.408  0.1152  0.7547  0.2670
   50MOL    C7121729   3.647   3.022   2.344 -0.0003  0.2618  0.4267
   50MOL    C7221730   3.696   3.133   2.432  0.5132 -0.2498  0.6987
   50MOL    C7321731   3.845   3.118   2.467  0.3110  0.6762 -1.1164
   50MOL    C7421732   3.882   2.980   2.516  0.4605 -0.5537  0.1092
   50MOL    C7521733   3.824   2.690   2.596 -0.6370  0.9186  0.5529
   50MOL    H7621734   3.991   2.742   2.497 -0.6081 -0.1417  1.1769
   50MOL    H7721735   3.865   2.889   2.319  1.4700  2.0245  0.8541
   50MOL    H7821736   3.635   2.865   2.506  1.4983  0.2403  0.7883
   50MOL    H7921737   3.635   2.805   2.346  2.7715 -0.1773 -0.4602
   50MOL    H8021738   3.701   3.045   2.252  0.3274 -2.3816 -0.0870
   50MOL    H8121739   3.541   3.033   2.321 -0.0067  1.3672  0.9616
   50MOL    H8221740   3.631   3.132   2.519 -1.6319 -0.1367 -0.8460
   50MOL    H8321741   3.674   3.226   2.380  1.2603  0.0641  0.9416
   50MOL    H8421742   3.867   3.181   2.553 -1.4917 -0.8118  0.4705
   50MOL    H8521743   3.911   3.150   2.386  1.5588  0.3601 -0.2448
   50MOL    H8621744   3.853   2.965   2.620  0.1359 -3.5164 -0.3588
   50MOL    H8721745   3.990   2.975   2.528  0.9024  3.7921 -1.4307
   50MOL    H8821746   3.829   2.771   2.668 -0.3309  0.5587  0.9421
   50MOL    H8921747   3.717   2.678   2.580 -0.1211 -1.3815 -1.4794
   50MOL    C9021748   3.881   2.560   2.659  0.2657  0.4989 -0.4278
   50MOL    C9121749   3.998   2.588   2.753  0.2744  0.4185 -0.4343
   50MOL    C9221750   4.065   2.450   2.796 -0.4382  0.0625  0.0100
   50MOL    C9321751   4.171   2.467   2.901 -0.2531  0.7388  0.1898
   50MOL    C9421752   4.277   2.572   2.858 -0.1432  0.4053 -0.7575
   50MOL    C9521753   4.216   2.707   2.836 -0.0742 -0.3803 -0.5302
   50MOL    C9621754   4.107   2.696   2.726  0.1697 -0.2699  0.0527
   50MOL    C9721755   3.763   2.475   2.717 -0.5665  0.3494 -0.5536
   50MOL    H9821756   3.923   2.500   2.579  2.0015  1.8388 -0.5498
   50MOL    H9921757   3.959   2.622   2.849  0.6772 -0.2946 -0.0110
   50MOL   H10021758   4.097   2.412   2.699 -0.4634 -1.7076  0.6719
   50MOL   H10121759   3.987   2.382   2.831  0.1503 -0.5583  0.1331
   50MOL   H10221760   4.215   2.368   2.910 -3.9596 -1.0576 -0.2117
   50MOL   H10321761   4.126   2.486   2.998  0.6624  0.1772  0.7169
   50MOL   H10421762   4.319   2.540   2.762  1.2058  0.3048 -0.1414
   50MOL   H10521763   4.358   2.580   2.930  1.5383  1.1250 -2.6714
   50MOL   H10621764   4.176   2.750   2.928 -2.4260  2.2607 -2.6524
   50MOL   H10721765   4.294   2.777   2.807 -0.9822  1.4378  1.2545
   50MOL   H10821766   4.062   2.795   2.737 -1.0948 -0.8549  0.2575
   50MOL   H10921767   4.145   2.688   2.624  0.3140  0.1199  0.0768
   50MOL   H11021768   3.782   2.439   2.818  0.2124  0.4156 -0.6758
   50MOL   H11121769   3.673   2.536   2.728 -1.3764 -0.4853 -2.2663
   50MOL   C11221770   3.729   2.350   2.627  0.9830  0.1438  0.0223
   50MOL   C11321771   3.578   2.322   2.638 -0.2888 -0.3356 -0.6475
   50MOL   C11421772   3.491   2.421   2.560  0.5946  0.2034  0.3305
   50MOL   C11521773   3.338   2.395   2.562  0.5388  0.5157 -0.0871
   50MOL   C11621774   3.291   2.354   2.710 -0.3372 -0.4087 -0.1790
   50MOL   C11721775   3.377   2.245   2.764 -0.4486 -0.0946 -0.0772
   50MOL   C11821776   3.525   2.279   2.777  0.0108  0.4288 -0.6917
   50MOL   C11921777   3.812   2.225   2.675  0.2361  0.1201  0.5552
   50MOL   H12021778   3.754   2.384   2.526 -0.3028 -0.4447 -0.5111
   50MOL   H12121779   3.564   2.239   2.569 -0.7150 -0.6736 -0.1513
   50MOL   H12221780   3.515   2.442   2.455  0.9910  1.3948  0.6535
   50MOL   H12321781   3.495   2.520   2.604  3.0958  0.1280  0.3355
   50MOL   H12421782   3.286   2.487   2.536 -0.6982  0.4501  2.0127
   50MOL   H12521783   3.315   2.326   2.481 -1.2639  1.8564 -0.7475
   50MOL   H12621784   3.285   2.439   2.778  2.6538  1.6862 -2.3406
   50MOL   H12721785   3.191   2.313   2.715 -0.4055 -0.2743 -0.4012
   50MOL   H12821786   3.361   2.214   2.867 -0.2219 -0.0899 -0.0415
   50MOL   H12921787   3.373   2.154   2.705 -0.8243 -0.2262  0.1475
   50MOL   H13021788   3.576   2.185   2.797 -0.4135  0.6689  1.5766
   50MOL   H13121789   3.546   2.354   2.853 -3.3073 -1.5721  2.3591
   50MOL   H13221790   3.799   2.205   2.782  0.5362 -0.5226  0.4736
   50MOL   H13321791   3.912   2.259   2.648 -0.1669  1.3172  0.5778
   50MOL   C13421792   3.791   2.094   2.594 -0.0072 -0.1348  0.3988
   50MOL   C13521793   3.852   1.969   2.665  0.4631  0.9817  0.1029
   50MOL   C13621794   3.765   1.928   2.785 -0.1851 -0.5923  0.3062
   50MOL   C13721795   3.820   1.800   2.841 -1.3858 -0.1692 -0.2037
   50MOL   C13821796   3.970   1.808   2.880  0.4540 -0.4102  0.8329
   50MOL   C13921797   4.057   1.862   2.764  0.1918 -0.6995 -0.4909
   50MOL   C14021798   3.999   1.994   2.710 -0.0224 -0.7247 -0.0134
   50MOL   C14121799   3.855   2.107   2.449  1.2688  0.2896 -0.0864
   50MOL   H14221800   3.688   2.058   2.591  0.5036 -1.5463 -1.5951
   50MOL   H14321801   3.856   1.892   2.587 -1.1619 -0.5936  1.5285
   50MOL   H14421802   3.754   2.004   2.863 -0.0998 -0.7007  0.4231
   50MOL   H14521803   3.664   1.908   2.751  0.0327  1.7360 -1.9213
   50MOL   H14621804   3.815   1.720   2.767 -0.6375  0.2805 -0.7404
   50MOL   H14721805   3.760   1.762   2.924 -1.5402 -0.1534 -0.3086
   50MOL   H14821806   3.977   1.868   2.971  1.1692  0.7892  0.0024
   50MOL   H14921807   4.001   1.710   2.917 -0.1243  0.3518  3.4845
   50MOL   H15021808   4.067   1.782   2.690  0.2862  0.7039 -2.0362
   50MOL   H15121809   4.160   1.878   2.796 -0.1116  1.6496 -0.5745
   50MOL   H15221810   4.000   2.055   2.800  3.6738 -0.3406 -0.2376
   50MOL   H15321811   4.056   2.042   2.631 -0.5127  2.0277  1.2502
   50MOL   H15421812   3.963   2.093   2.451  1.2779  0.1189 -1.0956
   50MOL   H15521813   3.843   2.209   2.412 -0.4445  0.2391  0.3184
   50MOL   C15621814   3.788   2.026   2.334  1.0279 -0.1759 -0.4172
   50MOL   C15721815   3.884   2.006   2.215 -0.0125 -0.2900 -0.0726
   50MOL   C15821816   3.942   2.129   2.154  0.1647 -0.3185 -0.6135
   50MOL   C15921817   4.015   2.103   2.026  0.2606 -0.3420 -0.4869
   50MOL   C16021818   4.121   1.988   2.038  0.3347 -0.1413  0.1917
   50MOL   C16121819   4.058   1.862   2.095  0.8644 -0.5006  0.7066
   50MOL   C16221820   3.991   1.899   2.232 -0.7422 -0.4811  0.7301
   50MOL   C16321821   3.631   2.052   2.310 -0.4746  0.6473  0.5377
   50MOL   H16421822   3.784   1.923   2.372  0.8278  0.1724  0.5363
   50MOL   H16521823   3.813   1.963   2.144 -0.4190  0.2937 -0.0274
   50MOL   H16621824   3.874   2.214   2.148  1.4911  0.6236 -2.8479
   50MOL   H16721825   4.018   2.169   2.222  0.9236 -2.2287 -0.2981
   50MOL   H16821826   3.944   2.088   1.945 -0.8212  3.1069 -0.2726
   50MOL   H16921827   4.071   2.193   2.001  0.5299  0.5049  2.9165
   50MOL   H17021828   4.203   2.022   2.102  2.8685 -0.9475 -2.5117
   50MOL   H17121829   4.165   1.973   1.939  0.9027  1.4242  0.1934
   50MOL   H17221830   4.132   1.782   2.100  0.6189 -0.6523  2.1564
   50MOL   H17321831   3.978   1.821   2.033 -0.1674  1.3725  0.7652
   50MOL   H17421832   3.963   1.808   2.284  4.5533 -2.2077  0.8611
   50MOL   H17521833   4.061   1.942   2.304 -0.4435  0.3800 -0.0601
   50MOL   H17621834   3.631   2.119   2.224  0.7483  0.5610  0.4613
   50MOL   H17721835   3.596   2.117   2.390  0.2247  1.8160 -0.0966
   50MOL   C17821836   3.543   1.923   2.281  0.5354  0.6525  0.7382
   50MOL   C17921837   3.506   1.826   2.401 -0.3531 -0.1567 -0.0955
   50MOL   C18021838   3.449   1.688   2.356  0.1320 -0.1537  0.4934
   50MOL   C18121839   3.416   1.596   2.477  0.1493 -0.6467  0.5548
   50MOL   C18221840   3.332   1.665   2.580  0.0062  0.1974  0.3240
   50MOL   C18321841   3.388   1.804   2.625  0.2132 -0.2309  0.1383
   50MOL   C18421842   3.407   1.888   2.499 -0.4003  0.1443  0.0578
   50MOL   C18521843   3.416   1.958   2.192  0.0632 -0.2805 -0.0956
   50MOL   H18621844   3.609   1.866   2.216 -0.0773 -2.5024  2.7765
   50MOL   H18721845   3.604   1.810   2.445  1.0339  2.5756 -2.0059
   50MOL   H18821846   3.360   1.699   2.295  0.6727  1.1565 -0.0768
   50MOL   H18921847   3.519   1.637   2.290 -0.9680  0.2238 -0.9741
   50MOL   H19021848   3.504   1.558   2.530  0.7117  1.4194  1.1163
   50MOL   H19121849   3.358   1.509   2.445  0.2967 -0.8184  0.7544
   50MOL   H19221850   3.230   1.673   2.542 -0.1243  0.5002  0.7370
   50MOL   H19321851   3.318   1.596   2.662  0.0619 -0.6821 -0.3940
   50MOL   H19421852   3.484   1.792   2.675  2.1759  1.0900 -3.2208
   50MOL   H19521853   3.323   1.861   2.691 -1.3370 -0.6699 -0.9757
   50MOL   H19621854   3.308   1.903   2.454 -0.6517 -0.1047  0.5221
   50MOL   H19721855   3.445   1.987   2.526 -1.6680  0.3128  1.3590
   50MOL   H19821856   3.322   1.945   2.244  0.8962 -1.3228  1.1736
   50MOL   H19921857   3.406   2.064   2.168  3.1156  0.1433  0.2145
   50MOL   C20021858   3.410   1.887   2.058 -0.4460 -0.2211  0.3364
   50MOL   C20121859   3.264   1.889   2.011  0.9703 -0.0507 -0.9306
   50MOL   C20221860   3.178   1.786   2.085  0.1909  0.7261 -0.3067
   50MOL   C20321861   3.044   1.759   2.007 -0.5869 -0.2953 -0.1523
   50MOL   C20421862   2.971   1.902   1.999 -0.3956  0.8940 -0.5636
   50MOL   C20521863   3.056   2.004   1.922  0.2788  0.0558 -0.2500
   50MOL   C20621864   3.195   2.026   1.983 -1.0444  0.3181 -0.2730
   50MOL   C20721865   3.514   1.945   1.947  0.2775 -0.4038 -0.1965
   50MOL   H20821866   3.434   1.782   2.076 -1.3253 -0.8629 -2.0016
   50MOL   H20921867   3.262   1.857   1.906 -0.6938 -0.3080 -0.8286
   50MOL   H21021868   3.172   1.824   2.187  0.6686 -1.4104  0.5518
   50MOL   H21121869   3.224   1.687   2.092 -1.3019 -0.0131 -0.5537
   50MOL   H21221870   3.061   1.717   1.907  0.8261  0.8062 -0.4015
   50MOL   H21321871   2.990   1.677   2.053 -1.0558 -0.5570 -1.1412
   50MOL   H21421872   2.879   1.896   1.941 -1.4404  0.7582  1.0531
   50MOL   H21521873   2.926   1.941   2.090 -1.1569  1.8825 -1.3657
   50MOL   H21621874   3.073   1.968   1.820  0.4620  0.8624 -0.5154
   50MOL   H21721875   3.009   2.103   1.916 -1.4225 -0.8134 -1.8127
   50MOL   H21821876   3.248   2.092   1.914  1.4124 -1.2889  0.0263
   50MOL   H21921877   3.193   2.082   2.076 -0.6845  0.2319 -0.2125
   50MOL   H22021878   3.463   2.028   1.899  0.9437  0.6253  0.8366
   50MOL   H22121879   3.595   2.001   1.995 -1.1648  1.2974  0.2980
   50MOL   C22221880   3.562   1.846   1.841  0.1407 -0.2046 -0.2517
   50MOL   C22321881   3.613   1.924   1.719  0.1390 -0.7854  0.3873
   50MOL   C22421882   3.717   2.029   1.752 -0.1609 -0.9457  0.0420
   50MOL   C22521883   3.757   2.100   1.620 -0.1756  0.0323  0.1250
   50MOL   C22621884   3.634   2.145   1.541  0.7450 -0.8087  0.4598
   50MOL   C22721885   3.541   2.029   1.510 -0.3429 -0.2422 -0.0152
   50MOL   C22821886   3.493   1.971   1.642  0.6955 -0.4584 -0.6852
   50MOL   C22921887   3.675   1.754   1.896 -0.3581  0.1867 -0.1318
   50MOL   H23021888   3.479   1.791   1.798 -0.4716  0.5335 -0.0153
   50MOL   H23121889   3.680   1.863   1.659  1.6187 -0.1503  1.3466
   50MOL   H23221890   3.678   2.108   1.816 -0.1069 -0.5669 -0.3908
   50MOL   H23321891   3.803   1.985   1.803  0.8950 -0.8006 -1.5478
   50MOL   H23421892   3.825   2.035   1.564 -0.2751  0.4131 -0.4403
   50MOL   H23521893   3.823   2.185   1.635  1.3037 -0.8155 -1.3929
   50MOL   H23621894   3.583   2.219   1.602  0.6021  0.9585 -1.7221
   50MOL   H23721895   3.675   2.194   1.452 -0.4618  0.2440  0.4612
   50MOL   H23821896   3.580   1.954   1.442  0.0602  0.7159 -0.8478
   50MOL   H23921897   3.448   2.070   1.471  0.4121 -0.6017 -2.2702
   50MOL   H24021898   3.437   2.055   1.682 -0.2682 -1.4129  0.0112
   50MOL   H24121899   3.419   1.897   1.611 -0.4937  0.2575  0.4243
   50MOL   H24221900   3.644   1.732   1.998 -0.4209  1.4789  0.1406
   50MOL   H24321901   3.769   1.808   1.908 -0.4160  0.6256 -1.5304
   50MOL   C24421902   3.696   1.624   1.818 -0.1876 -0.5386 -0.1764
   50MOL   C24521903   3.632   1.495   1.879 -0.4227  0.3977  0.5152
   50MOL   C24621904   3.482   1.517   1.889  0.4199 -0.1240  0.1911
   50MOL   C24721905   3.412   1.385   1.954  0.5608 -1.1293 -0.1853
   50MOL   C24821906   3.486   1.327   2.074 -0.4572 -0.4656 -0.4518
   50MOL   C24921907   3.638   1.302   2.034  0.1869  0.2323 -0.4847
   50MOL   C25021908   3.697   1.446   2.000 -0.4162 -1.0807  0.7493
   50MOL   C25121909   3.855   1.615   1.776  0.5350  0.4234  0.1136
   50MOL   H25221910   3.649   1.628   1.720  1.5663 -3.0150 -1.1892
   50MOL   H25321911   3.635   1.418   1.803  0.7087  0.9402 -0.0073
   50MOL   H25421912   3.429   1.528   1.794 -2.3345  0.3158  1.7012
   50MOL   H25521913   3.459   1.596   1.961  1.8316 -0.2134  0.7560
   50MOL   H25621914   3.305   1.401   1.969  0.5544 -1.2241 -0.1300
   50MOL   H25721915   3.401   1.308   1.877 -1.0133  1.4362 -2.5960
   50MOL   H25821916   3.480   1.401   2.153  0.6942 -0.8588  0.0155
   50MOL   H25921917   3.449   1.232   2.112 -1.4414 -0.0301 -0.3055
   50MOL   H26021918   3.638   1.235   1.948 -0.0890  0.3343 -0.5645
   50MOL   H26121919   3.692   1.266   2.122 -1.6741  1.2776  1.1413
   50MOL   H26221920   3.672   1.509   2.085 -0.2120 -2.1515  1.6039
   50MOL   H26321921   3.804   1.462   2.003 -0.6932  1.6468 -1.7200
   50MOL   H26421922   3.918   1.595   1.862 -0.0649  1.4215  0.8044
   50MOL   H26521923   3.868   1.718   1.742 -0.7192  0.7072  0.4369
   50MOL   C26621924   3.898   1.532   1.657  0.2174  0.1798 -0.0534
   50MOL   C26721925   4.031   1.588   1.594  0.2230 -0.4084 -0.1233
   50MOL   C26821926   4.134   1.642   1.702  0.5765  0.8926 -0.2176
   50MOL   C26921927   4.255   1.706   1.636  0.5142  0.3132 -0.0909
   50MOL   C27021928   4.204   1.827   1.551 -0.7552 -0.0822  0.3325
   50MOL   C27121929   4.120   1.773   1.440  0.1170 -0.0803  0.2525
   50MOL   C27221930   3.997   1.700   1.486 -0.2718 -0.0176 -0.4396
   50MOL   C27321931   3.906   1.378   1.687  0.4334  0.3066  0.5987
   50MOL   H27421932   3.818   1.551   1.585 -0.2680 -2.4185 -0.2469
   50MOL   H27521933   4.075   1.511   1.530 -0.1287 -0.0001 -0.8599
   50MOL   H27621934   4.092   1.705   1.780 -0.2204 -0.1571  0.2100
   50MOL   H27721935   4.169   1.558   1.761  0.8347  1.1335 -0.0232
   50MOL   H27821936   4.308   1.638   1.569 -1.4843  0.7011 -2.1335
   50MOL   H27921937   4.336   1.736   1.703  0.1398 -1.4362  1.1740
   50MOL   H28021938   4.138   1.891   1.610 -1.7793  0.1984 -1.0997
   50MOL   H28121939   4.287   1.887   1.515 -0.8502  0.9909  1.8575
   50MOL   H28221940   4.183   1.708   1.378 -0.6461 -1.5393  0.9860
   50MOL   H28321941   4.086   1.864   1.391  1.2304  1.0215  1.4900
   50MOL   H28421942   3.956   1.654   1.396 -0.1570  0.9397 -0.9868
   50MOL   H28521943   3.925   1.766   1.535  1.3923  0.4394  1.4345
   50MOL   H28621944   3.829   1.349   1.759 -1.3274  1.9013 -0.5633
   50MOL   H28721945   3.998   1.366   1.743  1.0134  0.6459 -0.2739
   50MOL   C28821946   3.905   1.272   1.576 -0.0869  0.9485 -0.0875
   50MOL   C28921947   3.775   1.285   1.491 -0.0962  0.7489 -0.4693
   50MOL   C29021948   3.642   1.307   1.565 -0.2171 -0.8528  0.1272
   50MOL   C29121949   3.523   1.302   1.473  0.0674  0.1932 -0.0515
   50MOL   C29221950   3.539   1.393   1.345  0.4740  0.3644 -0.0446
   50MOL   C29321951   3.675   1.378   1.272 -0.0395 -0.2558  0.0322
   50MOL   C29421952   3.789   1.376   1.369 -0.6672 -0.3841 -0.4665
   50MOL   C29521953   3.908   1.129   1.638  0.2539 -0.7818 -0.1169
   50MOL   H29621954   3.996   1.280   1.517 -0.4614 -0.7115 -0.9410
   50MOL   H29721955   3.742   1.191   1.447  1.3237  0.4349 -0.8980
   50MOL   H29821956   3.627   1.255   1.660  0.7678 -1.7076 -0.1727
   50MOL   H29921957   3.647   1.413   1.589 -1.6857 -0.6733 -0.3553
   50MOL   H30021958   3.508   1.201   1.437 -2.5178  1.0253 -1.4090
   50MOL   H30121959   3.429   1.319   1.524  0.3981 -2.7491  1.6139
   50MOL   H30221960   3.508   1.494   1.374  0.0386 -0.3584  2.0816
   50MOL   H30321961   3.464   1.364   1.271  1.1269  2.3916 -1.5713
   50MOL   H30421962   3.683   1.451   1.191  2.2758 -0.6569 -0.1393
   50MOL   H30521963   3.683   1.287   1.213  1.8435  1.7227 -2.9064
   50MOL   H30621964   3.798   1.477   1.407  1.5257 -0.6970 -0.0849
   50MOL   H30721965   3.889   1.356   1.328  0.5279 -0.1530  2.2291
   50MOL   H30821966   3.943   1.131   1.741  0.5625  0.0167 -0.2362
   50MOL   H30921967   3.807   1.089   1.635 -0.1188 -0.0369  1.7580
   50MOL   C31021968   3.992   1.032   1.555 -0.5760 -0.0460  0.7468
   50MOL   C31121969   4.047   0.908   1.628  0.6388 -0.2583  0.7898
   50MOL   C31221970   4.134   0.949   1.751 -0.2900 -0.2300 -0.5470
   50MOL   C31321971   4.215   0.826   1.816  0.5468 -0.2534 -0.1703
   50MOL   C31421972   4.112   0.713   1.848 -0.7172  0.0250 -0.6041
   50MOL   C31521973   4.017   0.671   1.734 -0.2851  0.2925  0.4740
   50MOL   C31621974   3.951   0.798   1.674  0.0914 -0.2085 -0.3336
   50MOL   C31721975   3.924   0.996   1.420 -0.2501 -0.1560 -0.3119
   50MOL   H31821976   4.086   1.083   1.537 -1.2179  0.5175 -1.1114
   50MOL   H31921977   4.115   0.860   1.558 -0.3419 -0.5636  0.0250
   50MOL   H32021978   4.194   1.039   1.736  1.0334 -0.6115  2.0123
   50MOL   H32121979   4.067   0.973   1.834 -0.3346 -0.0151 -0.6461
   50MOL   H32221980   4.264   0.861   1.906 -1.2494  0.2712  0.6223
   50MOL   H32321981   4.297   0.789   1.755  0.4314  0.1982 -0.6052
   50MOL   H32421982   4.173   0.642   1.904  1.2898  0.4346 -2.2052
   50MOL   H32521983   4.047   0.744   1.929 -1.7478 -1.2071 -0.9458
   50MOL   H32621984   4.074   0.624   1.654 -1.5508  1.3976 -1.1192
   50MOL   H32721985   3.943   0.598   1.766 -0.9631  0.5375 -0.5307
   50MOL   H32821986   3.884   0.849   1.743  0.8896 -0.0493  0.3365
   50MOL   H32921987   3.884   0.766   1.593  1.3374 -0.9264 -1.0975
   50MOL   H33021988   3.921   1.082   1.353  0.9421  0.5871  0.5810
   50MOL   H33121989   3.822   0.957   1.432 -0.3149  0.1289  0.0750
   50MOL   C33221990   4.003   0.892   1.328  0.1431 -0.2738  0.6322
   50MOL   C33321991   4.128   0.945   1.264 -0.1550 -0.6583 -0.5080
   50MOL   C33421992   4.115   1.073   1.170 -0.6918 -0.6499 -0.5133
   50MOL   C33521993   4.253   1.114   1.102 -0.6917  0.6171  0.4012
   50MOL   C33621994   4.312   0.990   1.039  0.1536  0.2530 -0.3909
   50MOL   C33721995   4.348   0.890   1.151 -0.4892 -0.2408 -0.0937
   50MOL   C33821996   4.225   0.835   1.212 -0.4556  0.3359  0.0094
   50MOL   C33921997   3.911   0.841   1.212 -0.6135 -0.1950 -0.4102
   50MOL   H34021998   4.024   0.799   1.382 -2.1531 -1.6574 -0.7791
   50MOL   H34121999   4.179   0.978   1.355 -1.0013  1.9672 -0.9485
   50MOL   H34222000   4.056   1.057   1.079 -2.7511  1.7500  0.3447
   50MOL   H34322001   4.070   1.159   1.219 -1.1075 -0.7517 -0.7119
   50MOL   H34422002   4.231   1.178   1.017 -2.7527 -0.5568  0.0106
   50MOL   H34522003   4.327   1.175   1.156 -0.0443  0.7382 -0.6155
   50MOL   H34622004   4.243   0.948   0.965 -0.6918  1.0124 -0.0452
   50MOL   H34722005   4.398   1.019   0.979  2.9163 -3.5232  1.5769
   50MOL   H34822006   4.410   0.936   1.229  0.7335  0.0428 -1.2163
   50MOL   H34922007   4.401   0.809   1.101  0.1330  0.9036 -1.3082
   50MOL   H35022008   4.253   0.760   1.287 -0.4079 -0.2009 -0.5445
   50MOL   H35122009   4.177   0.773   1.138 -0.7502 -0.4357  0.8338
   50MOL   H35222010   3.979   0.805   1.135 -0.5804  3.3628 -2.1656
   50MOL   H35322011   3.848   0.923   1.177 -0.5422  0.2777  0.5633
   50MOL   C35422012   3.817   0.714   1.225 -0.9133  0.0715 -0.0636
   50MOL   C35522013   3.888   0.582   1.194  0.0856  0.4114 -0.0799
   50MOL   C35622014   4.006   0.546   1.292  0.1581 -0.3573  0.4615
   50MOL   C35722015   4.055   0.397   1.276  0.4871  0.3646 -0.7926
   50MOL   C35822016   4.098   0.373   1.126 -0.6438 -0.8514  0.0892
   50MOL   C35922017   3.989   0.420   1.023 -0.5924 -0.1559  0.1797
   50MOL   C36022018   3.944   0.570   1.046 -0.3158  0.9102 -0.4597
   50MOL   C36122019   3.690   0.732   1.141  0.1848 -0.3995  0.0735
   50MOL   H36222020   3.792   0.692   1.329  1.4240 -2.4740  0.0027
   50MOL   H36322021   3.806   0.511   1.211  0.6334 -0.8920 -2.6572
   50MOL   H36422022   3.974   0.548   1.396 -0.1192 -1.3814  0.4105
   50MOL   H36522023   4.093   0.611   1.285 -0.7887  0.6584 -2.5366
   50MOL   H36622024   4.144   0.370   1.335 -0.1608 -1.8625 -0.7851
   50MOL   H36722025   3.977   0.332   1.315  0.8919 -0.9800 -2.1678
   50MOL   H36822026   4.188   0.431   1.105  1.3710 -3.1685  2.1178
   50MOL   H36922027   4.120   0.269   1.107 -2.4528 -1.3058  0.3368
   50MOL   H37022028   4.035   0.404   0.926 -0.9814 -0.3730  0.0301
   50MOL   H37122029   3.908   0.348   1.031 -1.0121  0.2725 -0.2007
   50MOL   H37222030   3.862   0.591   0.976 -1.9994 -1.7863  0.6341
   50MOL   H37322031   4.026   0.638   1.024 -0.1087  1.7825  2.8753
   50MOL   H37422032   3.655   0.631   1.117  1.4485 -0.3358 -2.0959
   50MOL   H37522033   3.713   0.773   1.043 -0.1957 -0.8489 -0.2032
   50MOL   C37622034   3.573   0.800   1.228 -0.7712  0.1065  0.8267
   50MOL   C37722035   3.490   0.903   1.148 -0.5256  0.4056  0.0872
   50MOL   C37822036   3.427   0.845   1.016  0.2817 -0.8844 -0.4786
   50MOL   C37922037   3.333   0.957   0.962 -0.3086  0.3204 -0.4431
   50MOL   C38022038   3.422   1.084   0.929  0.2788 -0.0981 -0.3307
   50MOL   C38122039   3.495   1.141   1.052 -0.7576  0.4899 -0.9692
   50MOL   C38222040   3.576   1.028   1.113  0.7006 -0.2343 -0.2102
   50MOL   C38322041   3.488   0.698   1.296  0.0833 -0.4480  0.2190
   50MOL   H38422042   3.630   0.865   1.294 -1.4874 -0.0443  1.6075
   50MOL   H38522043   3.410   0.938   1.213 -0.9039  0.5673 -0.4612
   50MOL   H38622044   3.513   0.833   0.950  1.0414  0.1314  0.2992
   50MOL   H38722045   3.365   0.755   1.026 -1.4365  0.2645 -0.6108
   50MOL   H38822046   3.247   0.978   1.026  1.0769 -0.3740  1.7090
   50MOL   H38922047   3.287   0.919   0.871  2.5932 -0.4366 -1.6685
   50MOL   H39022048   3.489   1.042   0.854 -1.9065 -2.3816 -1.0904
   50MOL   H39122049   3.370   1.168   0.882 -0.7652 -1.2910 -1.3372
   50MOL   H39222050   3.568   1.213   1.018 -0.1958  0.4056  0.0339
   50MOL   H39322051   3.421   1.184   1.120 -0.3759 -1.2823  0.6091
   50MOL   H39422052   3.653   0.989   1.047  0.2489 -1.0972 -0.2351
   50MOL   H39522053   3.608   1.065   1.210 -1.0174 -2.4978  1.2872
   50MOL   H39622054   3.503   0.601   1.249  1.4238  1.0159 -2.4571
   50MOL   H39722055   3.383   0.715   1.272  0.3020  1.0092  0.2372
   50MOL   C39822056   3.492   0.696   1.450 -0.2763 -0.1784  0.1342
   50MOL   C39922057   3.452   0.832   1.523  0.2654  0.0765 -0.5308
   50MOL   C40022058   3.302   0.868   1.496  0.1937 -0.4304 -0.4783
   50MOL   C40122059   3.257   1.006   1.553  0.1763  0.4942  0.0812
   50MOL   C40222060   3.303   1.019   1.704 -0.1738 -0.2174  0.2731
   50MOL   C40322061   3.449   0.994   1.715  0.2011 -0.2357 -0.1216
   50MOL   C40422062   3.486   0.849   1.671  0.1031  0.8745  0.2788
   50MOL   C40522063   3.418   0.573   1.511 -0.2972 -0.8102  1.5164
   50MOL   H40622064   3.596   0.681   1.480 -0.9800 -0.6326  2.5065
   50MOL   H40722065   3.500   0.907   1.460  4.4471  0.5476  2.9567
   50MOL   H40822066   3.232   0.797   1.537 -0.4839  0.7454  0.4363
   50MOL   H40922067   3.281   0.879   1.389  4.1265  0.3482 -1.2759
   50MOL   H41022068   3.148   1.012   1.551  0.0230 -0.8555  2.5541
   50MOL   H41122069   3.305   1.079   1.489  2.1309 -1.2143 -0.4710
   50MOL   H41222070   3.237   0.955   1.762 -1.5926  0.4507 -0.5522
   50MOL   H41322071   3.277   1.118   1.741  3.3519  1.0006 -0.3127
   50MOL   H41422072   3.506   1.062   1.651 -0.5657  0.5924  0.0716
   50MOL   H41522073   3.478   1.008   1.820 -0.6836  0.2570  0.0566
   50MOL   H41622074   3.594   0.845   1.683  0.4020 -0.6987 -2.5553
   50MOL   H41722075   3.446   0.770   1.735  0.7808 -1.2847 -1.8728
   50MOL   H41822076   3.417   0.579   1.620  1.6301  1.0339  1.4565
   50MOL   H41922077   3.314   0.579   1.479  0.5286 -0.4347 -1.1728
   50MOL   C42022078   3.484   0.435   1.483  0.0958  0.1497  0.0879
   50MOL   C42122079   3.388   0.322   1.512 -0.4663 -0.3114 -0.1241
   50MOL   C42222080   3.348   0.316   1.663  0.3327 -0.0036  0.4596
   50MOL   C42322081   3.233   0.218   1.678  0.4440 -1.1236  0.0762
   50MOL   C42422082   3.274   0.081   1.632 -0.8917 -0.7948 -0.1359
   50MOL   C42522083   3.328   0.079   1.485 -0.7548 -0.4601  0.3448
   50MOL   C42622084   3.439   0.183   1.466 -0.2118 -0.6480 -0.2536
   50MOL   C42722085   3.617   0.421   1.561  0.2678 -0.4528  0.5983
   50MOL   H42822086   3.503   0.431   1.376 -1.8992  1.3443 -0.3387
   50MOL   H42922087   3.296   0.338   1.455 -0.4380  0.8939  0.1516
   50MOL   H43022088   3.443   0.290   1.708  1.0154 -0.2059 -1.0514
   50MOL   H43122089   3.315   0.410   1.706  0.1401  1.3542 -2.4921
   50MOL   H43222090   3.208   0.206   1.784  1.0788 -0.9589  0.2463
   50MOL   H43322091   3.149   0.255   1.620 -0.2942  0.4307  2.0692
   50MOL   H43422092   3.189   0.015   1.643 -1.5223  0.3674  2.5400
   50MOL   H43522093   3.352   0.050   1.702 -0.2350  0.3384 -0.3457
   50MOL   H43622094   3.250   0.098   1.412 -1.1008 -0.9542  0.5825
   50MOL   H43722095   3.377   7.756   1.464 -2.0142 -0.8783 -0.7662
   50MOL   H43822096   3.521   0.148   1.529  1.2562  2.3834 -0.3999
   50MOL   H43922097   3.471   0.199   1.363 -1.4405  2.4773 -0.1968
   50MOL   H44022098   3.595   0.440   1.667 -1.5004 -1.1941  0.3748
   50MOL   H44122099   3.663   0.323   1.554  1.1468 -0.0379  0.4239
   50MOL   H44222100   3.678   0.507   1.532 -0.5809  0.6133  1.8742
   51MOL     C122101   5.745   1.371   2.405  0.5276  0.1732 -0.1297
   51MOL     C222102   5.699   1.340   2.551  0.1823  0.4750  0.4426
   51MOL     C322103   5.697   1.185   2.556 -0.0393 -0.0548  0.7919
   51MOL     C422104   5.664   1.137   2.696 -0.0546 -0.3195 -0.5105
   51MOL     C522105   5.543   1.204   2.755  0.5237 -0.2999  0.0779
   51MOL     C622106   5.542   1.351   2.757 -0.6696  0.5969 -0.2364
   51MOL     C722107   5.566   1.394   2.610 -0.2873 -1.0135 -0.1869
   51MOL     C822108   5.756   1.527   2.387  0.6945 -0.8079  0.0708
   51MOL     H922109   5.842   1.323   2.396  1.3489  1.2899  2.2607
   51MOL    H1022110   5.774   1.378   2.621  0.6272  0.4129  0.0006
   51MOL    H1122111   5.632   1.127   2.490  0.3589 -1.1159  1.3148
   51MOL    H1222112   5.797   1.142   2.546 -0.8205 -1.4821 -1.0879
   51MOL    H1322113   5.746   1.152   2.766 -1.3266 -2.5743  1.5417
   51MOL    H1422114   5.659   1.028   2.687 -0.7124 -0.5193  1.9960
   51MOL    H1522115   5.543   1.168   2.858 -1.5951  1.3742  0.6984
   51MOL    H1622116   5.462   1.162   2.696  2.5852 -1.8853 -1.7243
   51MOL    H1722117   5.444   1.384   2.792 -1.5938 -0.5112 -1.6750
   51MOL    H1822118   5.607   1.392   2.833  0.2129 -1.8623  0.3553
   51MOL    H1922119   5.568   1.502   2.603  1.6089 -1.1817 -3.0057
   51MOL    H2022120   5.482   1.372   2.544 -0.2401  3.1494 -1.7373
   51MOL    H2122121   5.838   1.562   2.450  0.8927 -0.2453 -0.4963
   51MOL    H2222122   5.675   1.583   2.434  0.2808 -1.5091  0.2066
   51MOL    H2322123   5.669   1.340   2.333  0.4662  1.4008 -0.6077
   51MOL    C2422124   5.781   1.576   2.246 -0.3449 -0.3994  0.0034
   51MOL    C2522125   5.730   1.731   2.229 -0.0751  0.8249 -0.1925
   51MOL    C2622126   5.787   1.814   2.339  0.0226  0.3945  0.2012
   51MOL    C2722127   5.750   1.962   2.316 -0.1395 -0.0269  0.1045
   51MOL    C2822128   5.601   1.982   2.309 -0.1951  0.1003 -0.1535
   51MOL    C2922129   5.537   1.882   2.207 -0.0761 -0.3556 -0.4407
   51MOL    C3022130   5.582   1.739   2.229 -0.1208  0.3777 -0.1276
   51MOL    C3122131   5.932   1.568   2.209 -0.6603 -0.1315 -0.1376
   51MOL    H3222132   5.731   1.517   2.170 -1.0911 -0.7737  0.7803
   51MOL    H3322133   5.762   1.769   2.132 -1.0248  0.4944 -0.6387
   51MOL    H3422134   5.895   1.819   2.347 -0.0667  0.3579  1.4744
   51MOL    H3522135   5.762   1.773   2.437  0.6161 -0.2786  0.0732
   51MOL    H3622136   5.799   2.029   2.386 -2.2197  1.0916  0.5232
   51MOL    H3722137   5.795   2.002   2.225 -1.8322  0.7759 -0.4005
   51MOL    H3822138   5.578   2.088   2.304 -1.2503 -0.0295  1.2567
   51MOL    H3922139   5.561   1.948   2.405 -3.0891  0.3853 -1.1971
   51MOL    H4022140   5.429   1.887   2.200 -0.0878  0.0583 -0.0384
   51MOL    H4122141   5.585   1.912   2.113 -0.5786  0.9905 -0.2795
   51MOL    H4222142   5.518   1.699   2.309 -2.5671 -0.2660 -2.3071
   51MOL    H4322143   5.546   1.676   2.147  0.6211 -0.6100  0.2938
   51MOL    H4422144   5.964   1.464   2.221  0.9447  0.1582 -1.6184
   51MOL    H4522145   5.998   1.615   2.282 -0.7856  0.5952 -0.4883
   51MOL    C4622146   5.984   1.620   2.067  0.0245 -0.2027 -0.3711
   51MOL    C4722147   5.884   1.567   1.952  0.0045 -0.0571  0.6120
   51MOL    C4822148   5.903   1.422   1.906 -0.0239 -0.8842 -0.1588
   51MOL    C4922149   5.793   1.380   1.805  0.7653  1.0214 -0.5048
   51MOL    C5022150   5.784   1.472   1.678  0.0632 -0.5217  0.4092
   51MOL    C5122151   5.787   1.624   1.712  0.1477  0.0177 -0.1407
   51MOL    C5222152   5.900   1.651   1.823  0.1050 -0.2259  0.8562
   51MOL    C5322153   6.134   1.593   2.030  0.3507  0.2268 -0.1028
   51MOL    H5422154   5.967   1.727   2.070 -1.9458 -0.5326  0.4673
   51MOL    H5522155   5.779   1.572   1.982  0.1727 -1.7807  1.5620
   51MOL    H5622156   5.997   1.412   1.851  1.0860 -0.6720  1.6652
   51MOL    H5722157   5.896   1.358   1.994  0.0864 -2.7775 -1.4800
   51MOL    H5822158   5.695   1.374   1.853  0.9986 -0.1474 -0.1623
   51MOL    H5922159   5.811   1.278   1.770  1.2151  0.6719  0.7466
   51MOL    H6022160   5.872   1.457   1.615 -2.2075 -1.8275 -2.6046
   51MOL    H6122161   5.695   1.442   1.623 -1.5115 -0.7409  3.0551
   51MOL    H6222162   5.692   1.671   1.737 -1.0163 -1.9634 -0.7076
   51MOL    H6322163   5.818   1.674   1.620  3.5928  0.3424  1.1528
   51MOL    H6422164   5.999   1.635   1.781 -0.0339 -0.8979  0.7788
   51MOL    H6522165   5.896   1.756   1.851 -1.5235 -0.3788  1.2575
   51MOL    H6622166   6.155   1.648   1.938  0.4204 -0.7781 -0.6979
   51MOL    H6722167   6.156   1.492   1.998  0.7646  0.4610 -0.5651
   51MOL    C6822168   6.257   1.650   2.114 -0.9613  0.1825  0.0045
   51MOL    C6922169   6.258   1.797   2.153  0.0323  0.1098 -0.6057
   51MOL    C7022170   6.240   1.888   2.030  0.3357 -0.1998  0.3200
   51MOL    C7122171   6.282   2.028   2.076 -0.8214 -0.0740  0.3377
   51MOL    C7222172   6.186   2.078   2.187 -0.2084 -0.4636 -0.1564
   51MOL    C7322173   6.194   1.981   2.306 -0.0123  0.2387 -0.2350
   51MOL    C7422174   6.164   1.840   2.269  0.0555  0.4292 -0.6577
   51MOL    C7522175   6.303   1.541   2.222 -0.2575 -0.4348 -1.1235
   51MOL    H7622176   6.340   1.642   2.045  0.7939 -0.0497  2.0827
   51MOL    H7722177   6.356   1.822   2.194 -0.1969  1.9576 -1.1679
   51MOL    H7822178   6.136   1.895   1.997  1.2284  1.5907 -2.3684
   51MOL    H7922179   6.297   1.853   1.944 -0.2980 -1.8961  0.5653
   51MOL    H8022180   6.386   2.025   2.109 -0.4910  1.0517 -0.5692
   51MOL    H8122181   6.297   2.099   1.994 -1.4502 -1.3959 -0.9538
   51MOL    H8222182   6.087   2.079   2.140 -0.2793  1.3921 -0.0172
   51MOL    H8322183   6.211   2.182   2.205  1.1023 -1.0477  1.4560
   51MOL    H8422184   6.120   2.008   2.382  0.6887  0.1883  0.4657
   51MOL    H8522185   6.288   1.990   2.361 -0.2715 -0.1872  0.2800
   51MOL    H8622186   6.058   1.830   2.248 -0.0722 -2.6450  1.1918
   51MOL    H8722187   6.175   1.784   2.361 -0.3828 -0.6354 -1.2401
   51MOL    H8822188   6.221   1.532   2.293  2.3046 -0.2477  1.9785
   51MOL    H8922189   6.316   1.450   2.163 -0.5460 -1.2064  0.0079
   51MOL    C9022190   6.433   1.577   2.305  0.9014 -0.4931  0.8363
   51MOL    C9122191   6.455   1.456   2.406 -0.4824 -0.3313 -0.7220
   51MOL    C9222192   6.327   1.405   2.480  0.0706  0.2364  0.5304
   51MOL    C9322193   6.368   1.297   2.592 -0.5472 -0.6346 -0.6422
   51MOL    C9422194   6.431   1.168   2.531  0.7349 -0.4612  1.1243
   51MOL    C9522195   6.554   1.219   2.451  0.7909  0.5380  0.4924
   51MOL    C9622196   6.519   1.326   2.341 -0.2588 -0.2287  0.5182
   51MOL    C9722197   6.554   1.620   2.225  0.1601 -0.0241  0.1057
   51MOL    H9822198   6.400   1.664   2.361 -1.8778 -0.0659 -1.3724
   51MOL    H9922199   6.529   1.488   2.479  0.5344  0.5416 -2.1119
   51MOL   H10022200   6.272   1.339   2.413  0.5651  1.7697 -1.4444
   51MOL   H10122201   6.268   1.489   2.517  0.4038  1.1336 -0.9203
   51MOL   H10222202   6.280   1.262   2.646 -1.0071 -0.7082 -1.4212
   51MOL   H10322203   6.429   1.353   2.663  0.0006  0.7260 -2.1386
   51MOL   H10422204   6.356   1.117   2.471 -0.3368 -1.7603  3.4977
   51MOL   H10522205   6.463   1.097   2.608 -2.5698 -0.3579  2.6617
   51MOL   H10622206   6.620   1.266   2.523  2.8243 -1.0109 -0.3278
   51MOL   H10722207   6.604   1.128   2.417 -2.9194 -1.1400 -0.7590
   51MOL   H10822208   6.617   1.342   2.295 -0.8385  0.4550 -0.5197
   51MOL   H10922209   6.461   1.284   2.258  0.5724 -1.8998  0.7691
   51MOL   H11022210   6.565   1.541   2.151 -1.5348  0.3630 -0.5929
   51MOL   H11122211   6.533   1.710   2.167  0.8882 -0.1638 -0.3768
   51MOL   C11222212   6.680   1.637   2.306  0.1783 -0.4601 -0.0670
   51MOL   C11322213   6.665   1.742   2.426  0.6978 -0.2619 -0.4007
   51MOL   C11422214   6.632   1.889   2.390 -0.2646 -0.0199 -0.6337
   51MOL   C11522215   6.605   1.968   2.528  0.0348  0.5917  0.2272
   51MOL   C11622216   6.725   1.957   2.620  0.1345 -0.3784  0.1367
   51MOL   C11722217   6.746   1.803   2.656  0.0313 -0.6799 -0.0996
   51MOL   C11822218   6.778   1.724   2.528  0.1717 -0.0601  0.4437
   51MOL   C11922219   6.809   1.671   2.222  0.8607 -0.3200 -0.4535
   51MOL   H12022220   6.698   1.537   2.343 -1.1607 -1.4424 -1.9649
   51MOL   H12122221   6.578   1.694   2.472  1.5735 -2.5310 -1.0451
   51MOL   H12222222   6.534   1.881   2.344  0.3048 -1.5060 -1.6228
   51MOL   H12322223   6.694   1.934   2.313  0.3591 -0.1749 -0.2364
   51MOL   H12422224   6.577   2.072   2.509 -0.7896  0.5041  0.9141
   51MOL   H12522225   6.517   1.929   2.579  0.4616 -1.3805 -0.4832
   51MOL   H12622226   6.811   2.009   2.577  2.1085 -3.4483  0.2118
   51MOL   H12722227   6.700   1.996   2.719 -0.0602  0.6158 -0.2988
   51MOL   H12822228   6.828   1.796   2.728  1.1692 -0.4080 -1.3604
   51MOL   H12922229   6.663   1.759   2.711 -1.6459 -0.0800 -2.1285
   51MOL   H13022230   6.786   1.622   2.566  0.3046 -0.6985 -1.2129
   51MOL   H13122231   6.878   1.743   2.488 -0.9133  4.2858 -0.5062
   51MOL   H13222232   6.865   1.755   2.265 -0.0047  0.2178 -0.3725
   51MOL   H13322233   6.782   1.717   2.127  3.3016 -0.0093 -1.0568
   51MOL   C13422234   6.909   1.549   2.204  0.5707 -0.3067  0.5229
   51MOL   C13522235   7.054   1.602   2.172 -0.0192 -0.4409  0.3602
   51MOL   C13622236   7.123   1.651   2.305  0.0755 -0.2478 -0.1174
   51MOL   C13722237   7.261   1.702   2.283  0.2894 -0.4039 -0.2449
   51MOL   C13822238   7.271   1.812   2.175  0.4173  0.5216  0.6333
   51MOL   C13922239   7.219   1.750   2.038 -0.4019 -0.1506 -0.1122
   51MOL   C14022240   7.071   1.698   2.049 -0.4735 -0.3573  0.4341
   51MOL   C14122241   6.861   1.447   2.093  0.1695  0.4310  0.0180
   51MOL   H14222242   6.905   1.501   2.302 -1.0245  1.7453  1.4880
   51MOL   H14322243   7.119   1.516   2.153  0.2119  0.0809 -1.3458
   51MOL   H14422244   7.068   1.733   2.349  1.5928  0.0682  1.2395
   51MOL   H14522245   7.124   1.570   2.379  1.0930  1.0297  1.3075
   51MOL   H14622246   7.334   1.627   2.252  1.2472  0.0830  0.7643
   51MOL   H14722247   7.296   1.745   2.377  0.0126 -0.4703 -0.1123
   51MOL   H14822248   7.225   1.910   2.189  0.0506  0.7163 -1.7371
   51MOL   H14922249   7.378   1.836   2.169 -0.2897  3.1937 -2.9632
   51MOL   H15022250   7.287   1.669   2.012 -1.0398  0.0297 -2.4990
   51MOL   H15122251   7.232   1.820   1.956 -2.8165  0.1967 -0.2323
   51MOL   H15222252   7.009   1.787   2.057 -1.0912 -0.6612 -0.7272
   51MOL   H15322253   7.028   1.656   1.957  1.2560 -0.5330 -0.3071
   51MOL   H15422254   6.842   1.492   1.995  0.0808 -1.1666 -0.7090
   51MOL   H15522255   6.755   1.434   2.115  0.4579  0.1126  1.2570
   51MOL   C15622256   6.925   1.302   2.078  0.0497  0.6544  0.4452
   51MOL   C15722257   6.851   1.218   1.971  0.2580 -0.1964 -0.0251
   51MOL   C15822258   6.693   1.214   1.993 -0.3784 -0.0569 -0.5664
   51MOL   C15922259   6.626   1.114   1.895 -0.1377  0.7636 -0.0360
   51MOL   C16022260   6.665   1.160   1.754  0.3773 -0.1184  0.3811
   51MOL   C16122261   6.816   1.165   1.718  0.2118 -0.0535 -0.5518
   51MOL   C16222262   6.887   1.261   1.823 -0.6737  0.0101  0.1590
   51MOL   C16322263   6.919   1.232   2.209  0.4427 -0.1013  0.1694
   51MOL   H16422264   7.028   1.315   2.043 -1.0490  0.1763 -3.2322
   51MOL   H16522265   6.897   1.120   1.985  3.2074  0.7969 -2.1964
   51MOL   H16622266   6.663   1.193   2.096  1.6373  2.7806  0.6645
   51MOL   H16722267   6.661   1.309   1.950  0.4338  0.7520  0.5888
   51MOL   H16822268   6.651   1.009   1.914 -3.0050  0.7731  4.4409
   51MOL   H16922269   6.518   1.131   1.896 -0.1666  0.8713 -2.1901
   51MOL   H17022270   6.617   1.254   1.724  0.6573 -0.2107 -0.3815
   51MOL   H17122271   6.625   1.081   1.690 -0.6821  0.6401  0.0887
   51MOL   H17222272   6.822   1.207   1.618  0.7431  0.1181 -0.4479
   51MOL   H17322273   6.856   1.064   1.719  0.5250  0.0294 -2.6086
   51MOL   H17422274   6.995   1.257   1.811 -0.4297  0.5357  2.0450
   51MOL   H17522275   6.857   1.363   1.798  0.5175 -0.3269 -2.8572
   51MOL   H17622276   6.870   1.135   2.205  2.1181 -1.0678  2.4242
   51MOL   H17722277   6.857   1.280   2.285 -1.2883  2.0419 -2.4931
   51MOL   C17822278   7.055   1.223   2.290 -0.9001 -0.9938 -0.2241
   51MOL   C17922279   7.036   1.192   2.448 -0.1495 -0.2078 -0.1761
   51MOL   C18022280   6.938   1.078   2.476  0.4724  0.1919  0.0497
   51MOL   C18122281   6.939   1.046   2.623  0.1684 -0.3031 -0.5504
   51MOL   C18222282   6.888   1.168   2.707  0.2120 -0.0712  0.3001
   51MOL   C18322283   6.981   1.294   2.684  0.2794 -0.1853 -0.1660
   51MOL   C18422284   7.004   1.319   2.531 -0.0127 -0.3609  0.1328
   51MOL   C18522285   7.145   1.116   2.225 -0.2477 -0.0937  0.4550
   51MOL   H18622286   7.099   1.322   2.293  0.8804 -1.8071  1.3501
   51MOL   H18722287   7.127   1.151   2.494 -0.0924 -1.5352 -1.4524
   51MOL   H18822288   6.842   1.116   2.443  0.4422  0.4753  0.4662
   51MOL   H18922289   6.956   0.993   2.411 -1.3490 -0.7345  0.7290
   51MOL   H19022290   7.036   1.010   2.657  0.2461  0.3044 -0.1143
   51MOL   H19122291   6.863   0.971   2.645 -0.2724 -0.3909 -2.3007
   51MOL   H19222292   6.791   1.187   2.661 -0.5908 -1.1332  1.5441
   51MOL   H19322293   6.870   1.154   2.813 -0.9140 -1.0278 -0.0135
   51MOL   H19422294   7.074   1.280   2.738 -0.0036 -0.7138  0.1974
   51MOL   H19522295   6.928   1.382   2.722  0.4469  0.5843 -1.6902
   51MOL   H19622296   6.926   1.371   2.477 -0.8380  0.4688  2.0895
   51MOL   H19722297   7.093   1.380   2.524 -1.4137  1.9420  1.7636
   51MOL   H19822298   7.081   1.028   2.222  1.6345 -1.5140  0.9947
   51MOL   H19922299   7.151   1.133   2.117 -1.5409  0.9333  0.5363
   51MOL   C20022300   7.279   1.084   2.284  0.4985  0.3477 -0.1090
   51MOL   C20122301   7.348   0.967   2.204 -0.8455  0.0277 -0.2718
   51MOL   C20222302   7.259   0.843   2.203  0.5183  0.1686  0.3919
   51MOL   C20322303   7.338   0.722   2.137  0.0209  0.0483 -0.1795
   51MOL   C20422304   7.382   0.751   2.000  0.6575 -0.3057 -0.4425
   51MOL   C20522305   7.472   0.880   1.993  0.2979 -0.3581  0.4523
   51MOL   C20622306   7.405   1.003   2.060 -0.7258 -0.7741 -0.1114
   51MOL   C20722307   7.372   1.212   2.296  0.1226  0.0958  0.5071
   51MOL   H20822308   7.276   1.040   2.384 -0.6455  1.7835  0.5050
   51MOL   H20922309   7.432   0.941   2.268 -0.5219  1.5085 -0.0801
   51MOL   H21022310   7.169   0.861   2.145  0.0172 -1.9683  0.4478
   51MOL   H21122311   7.238   0.810   2.305 -1.3483  0.2364  0.0406
   51MOL   H21222312   7.424   0.686   2.193  1.0533  1.3140 -0.9322
   51MOL   H21322313   7.278   0.631   2.127 -0.0734  0.3112 -2.1636
   51MOL   H21422314   7.435   0.666   1.956  0.1360 -1.8261  1.8031
   51MOL   H21522315   7.290   0.781   1.949  2.5553  2.7896 -2.2169
   51MOL   H21622316   7.564   0.874   2.051  1.0856  0.8061 -0.6457
   51MOL   H21722317   7.511   0.907   1.894 -2.4318 -0.5836 -0.7205
   51MOL   H21822318   7.486   1.075   2.060 -0.4124 -1.0496 -3.1456
   51MOL   H21922319   7.314   1.032   2.008 -0.0590  1.4949 -0.0373
   51MOL   H22022320   7.403   1.250   2.198 -0.6767 -3.2080 -1.0944
   51MOL   H22122321   7.302   1.286   2.335  1.0098  0.9895  0.4279
   51MOL   C22222322   7.490   1.201   2.398 -0.1753 -0.7414 -0.1471
   51MOL   C22322323   7.600   1.308   2.366 -0.4815  0.3993 -0.0656
   51MOL   C22422324   7.544   1.453   2.334  0.5331 -0.4864  0.0753
   51MOL   C22522325   7.656   1.554   2.316 -0.2183 -0.5633 -0.0865
   51MOL   C22622326   7.736   1.508   2.198  0.3338 -1.0034  0.4428
   51MOL   C22722327   0.036   1.381   2.236 -0.3249  0.5998 -0.0390
   51MOL   C22822328   7.715   1.266   2.265 -0.4213  0.3904  0.4003
   51MOL   C22922329   7.425   1.221   2.532 -0.1834 -0.6544 -0.1670
   51MOL   H23022330   7.537   1.103   2.388 -1.3040 -1.3325  0.2826
   51MOL   H23122331   7.666   1.315   2.454 -1.1331 -0.6981  0.5298
   51MOL   H23222332   7.491   1.460   2.239  0.7735  1.2002  0.0468
   51MOL   H23322333   7.484   1.487   2.419 -1.0600 -0.3025 -1.1082
   51MOL   H23422334   7.727   1.547   2.398  0.4501  2.7290 -0.2843
   51MOL   H23522335   7.617   1.656   2.311  0.8467 -0.0927  1.0284
   51MOL   H23622336   7.678   1.481   2.110  1.4505 -1.5092 -0.1509
   51MOL   H23722337   0.038   1.580   2.162  0.5505  0.1779  3.1302
   51MOL   H23822338   0.090   1.386   2.330  0.0472  1.3433 -0.2933
   51MOL   H23922339   0.096   1.358   2.148 -0.3445 -0.1381  0.1341
   51MOL   H24022340   7.667   1.233   2.173  1.9160  0.4963 -0.8885
   51MOL   H24122341   7.767   1.175   2.293  2.4464  1.6322 -0.6357
   51MOL   H24222342   7.355   1.138   2.550 -1.2938 -0.3351 -2.7512
   51MOL   H24322343   7.379   1.319   2.542  0.3024 -0.6348  2.2018
   51MOL   C24422344   7.513   1.218   2.659  0.1639 -0.2285 -0.4419
   51MOL   C24522345   7.603   1.084   2.664  0.3920 -0.9035 -0.0040
   51MOL   C24622346   7.520   0.951   2.674 -0.1282  0.3564  0.2328
   51MOL   C24722347   7.629   0.843   2.659  0.0527 -0.5683 -0.7577
   51MOL   C24822348   7.739   0.850   2.767 -0.4360  0.9577  0.3103
   51MOL   C24922349   0.038   0.986   2.771  0.1343 -0.3277  0.1905
   51MOL   C25022350   7.701   1.091   2.782 -0.0356  0.4393  0.0399
   51MOL   C25122351   7.430   1.225   2.794  0.3444 -0.4011  0.5782
   51MOL   H25222352   7.578   1.305   2.646 -1.0163  1.0714  1.9080
   51MOL   H25322353   7.662   1.080   2.572 -0.3211  1.2290 -0.5970
   51MOL   H25422354   7.442   0.933   2.601  0.9596 -0.1086 -0.8321
   51MOL   H25522355   7.472   0.954   2.772  1.4380 -2.3374  1.1158
   51MOL   H25622356   7.582   0.745   2.663  0.1285 -0.6367 -1.6045
   51MOL   H25722357   7.664   0.875   2.561  0.2625  1.3137 -0.0887
   51MOL   H25822358   7.691   0.835   2.864  0.7422 -0.4061  0.7042
   51MOL   H25922359   0.048   0.780   2.747  0.0672  1.5981  0.0918
   51MOL   H26022360   0.105   0.983   2.685 -1.0058 -1.4871 -0.6893
   51MOL   H26122361   0.109   1.002   2.852 -0.3999  0.6444  0.4725
   51MOL   H26222362   7.655   1.071   2.879  1.6008 -0.6110  0.6232
   51MOL   H26322363   7.749   1.188   2.793 -0.4437  0.4612  1.8531
   51MOL   H26422364   7.450   1.139   2.857 -1.2967 -1.1630  0.0854
   51MOL   H26522365   7.328   1.199   2.766  0.3128  0.3821 -0.0801
   51MOL   C26622366   7.448   1.355   2.881  0.4618 -1.2715  0.4101
   51MOL   C26722367   7.416   1.481   2.798 -0.4244 -0.1416  0.6196
   51MOL   C26822368   7.467   1.605   2.874 -0.0678  0.2561 -0.3147
   51MOL   C26922369   7.468   1.715   2.770  0.1644 -0.0297  0.2846
   51MOL   C27022370   7.325   1.757   2.745 -0.1517 -0.1517 -0.5175
   51MOL   C27122371   7.256   1.633   2.682  0.3815 -0.1514  0.5971
   51MOL   C27222372   7.267   1.511   2.769 -0.1007 -0.4221 -0.6298
   51MOL   C27322373   7.366   1.352   3.009  0.4072 -0.5515  0.0998
   51MOL   H27422374   7.553   1.373   2.901  0.1428  0.7463  0.4778
   51MOL   H27522375   7.459   1.478   2.699 -2.3906 -0.4938 -0.2538
   51MOL   H27622376   7.402   1.633   2.957 -0.2758 -0.5369 -0.2105
   51MOL   H27722377   7.558   1.585   2.931  0.2682  0.7996 -0.6568
   51MOL   H27822378   7.506   1.685   2.672  1.3438  1.7677  0.1568
   51MOL   H27922379   7.531   1.802   2.790 -0.1075 -0.0248  1.1306
   51MOL   H28022380   7.271   1.789   2.834  1.8639 -0.0609  0.6854
   51MOL   H28122381   7.322   1.840   2.674  1.5902  2.2213  2.1056
   51MOL   H28222382   7.300   1.622   2.583 -1.4557  0.8233 -0.3513
   51MOL   H28322383   7.149   1.638   2.664 -0.1090 -2.3225  2.6948
   51MOL   H28422384   7.213   1.422   2.735 -0.8792  0.1222 -0.8206
   51MOL   H28522385   7.222   1.540   2.864  0.2989 -0.3442 -0.4621
   51MOL   H28622386   7.265   1.323   2.983 -0.0053  0.8740  0.0527
   51MOL   H28722387   7.349   1.450   3.054  0.0640  0.8890 -3.0477
   51MOL   C28822388   7.425   1.255   3.124  0.0092 -0.4292 -0.7239
   51MOL   C28922389   7.308   1.178   3.193 -0.2977  0.5008 -0.1533
   51MOL   C29022390   7.285   1.043   3.108 -0.8070 -0.1207 -0.3478
   51MOL   C29122391   7.164   0.969   3.165 -0.1850  0.1302 -0.1459
   51MOL   C29222392   7.184   0.924   3.304  0.3309 -0.1643  0.1892
   51MOL   C29322393   7.222   1.042   3.398 -0.1855 -0.0634  0.2213
   51MOL   C29422394   7.331   1.127   3.336 -0.0235 -0.1005 -0.4365
   51MOL   C29522395   7.513   1.354   3.212  0.5508  0.0220 -0.0069
   51MOL   H29622396   7.490   1.182   3.076 -0.6527 -1.0585 -0.6742
   51MOL   H29722397   7.223   1.246   3.196 -0.3895  0.4187 -0.7995
   51MOL   H29822398   7.262   1.078   3.007 -1.0658 -0.2844 -0.3460
   51MOL   H29922399   7.371   0.976   3.106  0.2800  1.2581 -1.9815
   51MOL   H30022400   7.076   1.035   3.167 -0.3664 -0.0786 -1.0491
   51MOL   H30122401   7.145   0.880   3.105  2.1066 -1.6213  1.6436
   51MOL   H30222402   7.268   0.855   3.308  1.5506  1.2457 -0.5482
   51MOL   H30322403   7.100   0.865   3.341 -0.3540  0.2842 -0.6326
   51MOL   H30422404   7.241   1.004   3.498 -2.7045  1.0974  1.1909
   51MOL   H30522405   7.137   1.110   3.405  0.4584  0.8225 -0.5106
   51MOL   H30622406   7.421   1.066   3.337 -0.0515 -0.1399  1.4566
   51MOL   H30722407   7.355   1.216   3.393  1.2045 -0.6215 -0.1361
   51MOL   H30822408   7.542   1.441   3.153  1.1082  1.4177  2.2238
   51MOL   H30922409   7.437   1.399   3.277 -0.2703 -1.6163  0.2006
   51MOL   C31022410   7.624   1.304   3.312 -0.2210 -0.1789 -0.3468
   51MOL   C31122411   7.746   1.235   3.236  0.5093 -0.1565 -0.6777
   51MOL   C31222412   0.060   1.342   3.160 -0.4938 -0.7935  0.3116
   51MOL   C31322413   0.154   1.267   3.066 -0.0827 -0.0073 -0.4746
   51MOL   C31422414   0.237   1.168   3.144  0.1854  0.1772 -0.6923
   51MOL   C31522415   0.160   1.074   3.243 -0.0035 -0.7342 -0.3658
   51MOL   C31622416   0.063   1.152   3.333 -0.0146  0.1410 -0.6254
   51MOL   C31722417   7.671   1.410   3.411 -0.4702 -0.1064  0.5119
   51MOL   H31822418   7.581   1.231   3.380 -0.0008  1.1018  1.1912
   51MOL   H31922419   7.693   1.172   3.165 -1.0959  0.8760 -0.4049
   51MOL   H32022420   7.768   1.407   3.099  0.2991 -1.0732 -0.8403
   51MOL   H32122421   0.119   1.405   3.227 -0.5755  1.8072 -1.9795
   51MOL   H32222422   0.218   1.343   3.020  1.1616 -0.4226  0.5212
   51MOL   H32322423   0.107   1.225   2.977  2.8900 -1.1504 -1.5653
   51MOL   H32422424   0.308   1.115   3.080  1.0995 -0.3327  0.7071
   51MOL   H32522425   0.307   1.228   3.202  0.2643  0.5051 -1.1222
   51MOL   H32622426   0.106   1.006   3.177 -0.9028  0.5497 -0.9928
   51MOL   H32722427   0.219   1.012   3.310 -0.5415 -0.2544  0.5566
   51MOL   H32822428   0.135   1.213   3.387 -1.4959  1.4121 -0.0519
   51MOL   H32922429   0.005   1.087   3.398  1.7364  0.4292  1.2620
   51MOL   H33022430   7.659   1.507   3.363 -0.2469 -0.7719 -0.8864
   51MOL   H33122431   0.007   1.407   3.415 -0.5107 -1.0287  0.9480
   51MOL   C33222432   7.612   1.400   3.553  0.3327  0.2060  0.4139
   51MOL   C33322433   7.622   1.536   3.632 -0.4491  0.3860 -0.6215
   51MOL   C33422434   7.504   1.629   3.593  0.6246 -0.2435 -0.1723
   51MOL   C33522435   7.508   1.764   3.664  0.2292  0.0417 -0.2395
   51MOL   C33622436   7.642   1.833   3.651  0.3443  0.9036  0.1920
   51MOL   C33722437   7.755   1.742   3.703  0.4256  0.2850  0.1253
   51MOL   C33822438   7.762   1.608   3.631  0.4077  0.8567  0.2321
   51MOL   C33922439   7.675   1.274   3.625 -0.4439 -0.0239 -0.2807
   51MOL   H34022440   7.506   1.384   3.533  0.5680  0.7150 -1.3063
   51MOL   H34122441   7.612   1.503   3.735  3.8498 -0.9779 -0.5226
   51MOL   H34222442   7.504   1.642   3.485  2.4547  1.9505  0.0455
   51MOL   H34322443   7.406   1.583   3.606  0.1393  0.4083 -1.4827
   51MOL   H34422444   7.441   1.830   3.608  2.9812  0.6872 -2.9533
   51MOL   H34522445   7.480   1.765   3.769 -1.1225  0.6832 -0.5929
   51MOL   H34622446   7.669   1.871   3.553 -0.8302  1.8022  0.2161
   51MOL   H34722447   7.644   1.929   3.703 -3.7778  1.7282 -0.9966
   51MOL   H34822448   7.750   1.744   3.812 -0.7456  0.6174  0.0684
   51MOL   H34922449   0.078   1.790   3.681 -0.4675  1.5615 -1.0533
   51MOL   H35022450   0.068   1.543   3.669 -1.0708  0.2883  2.3463
   51MOL   H35122451   0.015   1.630   3.527 -2.1406  0.6741 -0.4626
   51MOL   H35222452   0.005   1.303   3.649 -0.7132 -0.0264  0.9156
   51MOL   H35322453   7.696   1.194   3.555  1.5395 -1.5480  1.9762
   51MOL   C35422454   7.593   1.221   3.747  0.5198 -0.1525  0.4124
   51MOL   C35522455   7.675   1.118   3.827 -0.4720 -0.3521 -0.6466
   51MOL   C35622456   0.021   1.179   3.902  0.4594 -0.1958  0.4619
   51MOL   C35722457   0.085   1.079   4.001  0.4548 -0.3860 -0.4160
   51MOL   C35822458   0.129   0.946   3.925  0.7396 -0.6499 -0.0205
   51MOL   C35922459   0.013   0.889   3.847  0.4681 -0.3253 -0.5582
   51MOL   C36022460   7.735   1.001   3.750  0.2470 -0.8489  0.3039
   51MOL   C36122461   7.460   1.162   3.700  0.0185 -0.2159 -0.7234
   51MOL   H36222462   7.566   1.307   3.808  0.5853 -0.3675  0.7459
   51MOL   H36322463   7.604   1.071   3.895 -0.5926 -1.9892 -1.8605
   51MOL   H36422464   7.767   1.277   3.942  0.1084  0.1936 -0.6910
   51MOL   H36522465   0.093   1.200   3.822 -0.1898  0.4426  0.0379
   51MOL   H36622466   0.172   1.120   4.053 -0.3140 -1.6407  1.9001
   51MOL   H36722467   0.015   1.064   4.083 -0.5471  1.6716 -0.8516
   51MOL   H36822468   0.211   0.963   3.855 -0.0512  1.2979 -0.5171
   51MOL   H36922469   0.169   0.867   3.988 -0.9696 -1.8077 -0.3444
   51MOL   H37022470   0.054   0.799   3.800 -1.4139 -0.3949 -2.1400
   51MOL   H37122471   7.702   0.863   3.913 -0.7440  1.5820 -1.2970
   51MOL   H37222472   7.661   0.968   3.678 -0.6442  0.2339  0.7093
   51MOL   H37322473   0.056   1.028   3.701  0.4436 -0.6471  0.7797
   51MOL   H37422474   7.481   1.066   3.653  2.2160 -0.6849  1.1216
   51MOL   H37522475   7.414   1.216   3.617  0.4961 -0.0322 -0.8695
   51MOL   C37622476   7.359   1.141   3.821 -0.4263  0.5614  0.0291
   51MOL   C37722477   7.257   1.258   3.844 -0.1144  0.7240 -0.1733
   51MOL   C37822478   7.162   1.274   3.727 -0.1603 -0.0714 -0.0904
   51MOL   C37922479   7.063   1.388   3.745 -0.6279  1.4011  0.3626
   51MOL   C38022480   7.129   1.515   3.782  0.0430  0.2505  0.3969
   51MOL   C38122481   7.214   1.502   3.906 -0.6862  0.7824 -0.8240
   51MOL   C38222482   7.317   1.395   3.881  0.0017 -0.6682  0.0571
   51MOL   C38322483   7.287   1.000   3.805 -0.0812 -1.0317 -0.0105
   51MOL   H38422484   7.409   1.130   3.917 -0.3768 -1.7526 -0.2252
   51MOL   H38522485   7.206   1.224   3.934  2.3543 -2.5823  0.0550
   51MOL   H38622486   7.208   1.290   3.629  0.1426 -1.7036 -0.2263
   51MOL   H38722487   7.112   1.177   3.727  2.3311 -1.3946 -0.8853
   51MOL   H38822488   6.993   1.362   3.824 -0.5885 -0.7705 -0.2754
   51MOL   H38922489   7.016   1.396   3.647  0.3654 -0.8496 -0.3401
   51MOL   H39022490   7.187   1.543   3.694  1.1624  0.9906  1.3510
   51MOL   H39122491   7.049   1.587   3.800 -1.0050 -0.9159  0.4600
   51MOL   H39222492   7.259   1.595   3.941  1.3591 -1.2372  2.1789
   51MOL   H39322493   7.152   1.473   3.990 -1.7426 -0.4190 -1.9968
   51MOL   H39422494   7.378   1.428   3.798 -1.0139 -0.2623 -0.5332
   51MOL   H39522495   7.384   1.379   3.966  0.7362  1.3596 -0.1157
   51MOL   H39622496   7.233   0.997   3.711  1.4132 -0.7455 -0.9078
   51MOL   H39722497   7.210   0.979   3.879  0.7664 -1.5799  0.7347
   51MOL   C39822498   7.383   0.878   3.814  0.5947  0.0408  0.0381
   51MOL   C39922499   7.356   0.787   3.935 -0.6569  0.4747 -1.0621
   51MOL   C40022500   7.371   0.848   4.078  0.1878 -0.8857  0.4955
   51MOL   C40122501   7.340   0.754   4.191 -0.3855 -0.0711  0.4638
   51MOL   C40222502   7.192   0.707   4.179  0.1921 -0.1501 -0.2547
   51MOL   C40322503   7.184   0.631   4.047 -0.1108  0.1637 -0.2089
   51MOL   C40422504   7.218   0.719   3.926  0.5100 -1.1422  0.2859
   51MOL   C40522505   7.378   0.801   3.677 -0.7798  0.0909  0.1958
   51MOL   H40622506   7.485   0.916   3.823  0.5862  0.0807 -0.0293
   51MOL   H40722507   7.421   0.700   3.938 -3.4002 -1.6699 -1.4557
   51MOL   H40822508   7.309   0.937   4.086  1.7763  0.5685 -2.4057
   51MOL   H40922509   7.473   0.885   4.078 -0.5918  1.4195 -1.2636
   51MOL   H41022510   7.355   0.807   4.285  3.1439  0.0150 -0.1168
   51MOL   H41122511   7.396   0.661   4.190 -0.6944 -0.2623  0.6354
   51MOL   H41222512   7.126   0.793   4.189  1.5124  0.6964  1.5984
   51MOL   H41322513   7.157   0.651   4.266  0.5463 -1.2189 -0.7822
   51MOL   H41422514   7.244   0.542   4.069  1.5111  0.9992 -1.1798
   51MOL   H41522515   7.083   0.594   4.032 -0.8068  1.9956 -0.1495
   51MOL   H41622516   7.198   0.657   3.839 -1.0590  1.1772 -1.0561
   51MOL   H41722517   7.134   0.788   3.932 -1.1574 -3.2511  2.1644
   51MOL   H41822518   7.281   0.755   3.659  0.0469 -1.7179  0.1823
   51MOL   H41922519   7.395   0.875   3.599  1.5978 -2.4134 -1.7653
   51MOL   C42022520   7.498   0.699   3.637 -0.3249 -0.0267  0.3208
   51MOL   C42122521   7.527   0.698   3.486  0.7597  0.6312 -0.1833
   51MOL   C42222522   7.595   0.566   3.431  0.1790  0.4926  0.0434
   51MOL   C42322523   7.639   0.572   3.282  0.3117 -0.0497 -0.2339
   51MOL   C42422524   7.693   0.705   3.234 -0.0456  0.0327  0.0714
   51MOL   C42522525   7.607   0.817   3.285  0.3968  0.0269  0.5796
   51MOL   C42622526   7.608   0.820   3.438  0.0178 -0.0805 -0.6949
   51MOL   C42722527   7.487   0.557   3.701 -0.1800 -0.0864  0.4327
   51MOL   H42822528   7.591   0.747   3.668 -0.7939  1.0100  0.1289
   51MOL   H42922529   7.430   0.703   3.436  0.2983  0.7668  0.7172
   51MOL   H43022530   7.687   0.529   3.476  0.8656  1.7804 -0.2699
   51MOL   H43122531   7.519   0.489   3.440  0.2198  0.5405  0.8152
   51MOL   H43222532   7.712   0.492   3.268  1.3822  1.0804 -1.1863
   51MOL   H43322533   7.555   0.551   3.215  1.5591 -1.3909 -1.4062
   51MOL   H43422534   7.692   0.704   3.125 -0.4769 -0.2931  0.0792
   51MOL   H43522535   0.021   0.728   3.270  0.4145 -1.6129 -0.1010
   51MOL   H43622536   7.513   0.798   3.234  0.7229 -1.5700  0.5439
   51MOL   H43722537   7.642   0.916   3.254  1.0694 -0.5956 -0.6602
   51MOL   H43822538   7.707   0.837   3.480 -2.0609  1.9461  3.7254
   51MOL   H43922539   7.551   0.907   3.473  2.5704  2.3715 -2.4926
   51MOL   H44022540   7.388   0.513   3.689 -0.3575  0.6329 -0.7652
   51MOL   H44122541   7.563   0.483   3.678  1.6244  1.4508  1.3379
   51MOL   H44222542   7.499   0.563   3.809  2.7836  2.0793  0.0338
   52MOL     C122543   2.757   5.207   4.420  0.4218 -0.8812  0.0890
   52MOL     C222544   2.626   5.184   4.497  0.1127  0.0169  0.0867
   52MOL     C322545   2.543   5.058   4.457  0.4537  0.2624  0.0974
   52MOL     C422546   2.467   5.073   4.328  1.1783  0.2863  0.1897
   52MOL     C522547   2.368   5.188   4.342  0.4768 -0.2335 -0.2820
   52MOL     C622548   2.449   5.317   4.363 -0.4854 -0.3174 -0.5724
   52MOL     C722549   2.527   5.304   4.498  0.2096  0.1477 -0.3030
   52MOL     C822550   2.864   5.101   4.438 -0.1316 -0.4762  0.4787
   52MOL     H922551   2.731   5.226   4.316 -0.0837  1.1908  0.5772
   52MOL    H1022552   2.646   5.163   4.602 -0.7234  2.6766  0.8290
   52MOL    H1122553   2.604   4.968   4.460  0.0778  0.0343  0.8016
   52MOL    H1222554   2.465   5.046   4.532 -1.8273  1.7856 -1.9523
   52MOL    H1322555   2.431   4.973   4.308  0.2129  0.6483  0.1171
   52MOL    H1422556   2.539   5.094   4.248 -1.0017 -2.0280 -2.4493
   52MOL    H1522557   2.285   5.177   4.412  0.8874 -0.8572  0.1117
   52MOL    H1622558   2.328   5.196   4.241 -0.6019  0.9988  0.2349
   52MOL    H1722559   2.524   5.322   4.285  1.8912  2.1578  1.7723
   52MOL    H1822560   2.395   5.410   4.343 -1.2857 -0.8251 -0.8378
   52MOL    H1922561   2.465   5.296   4.587 -1.2589 -1.7495 -1.4719
   52MOL    H2022562   2.583   5.395   4.522 -1.0391  0.2459  2.3998
   52MOL    H2122563   2.810   5.016   4.398  0.8715 -1.0377  0.3014
   52MOL    H2222564   2.896   5.084   4.540 -0.1407  1.1569  0.7751
   52MOL    H2322565   2.797   5.301   4.456 -0.2131 -0.0587 -1.3211
   52MOL    C2422566   2.984   5.137   4.355  0.2446 -0.1125  0.4341
   52MOL    C2522567   3.103   5.198   4.445 -0.2977 -0.0109  0.0922
   52MOL    C2622568   3.166   5.100   4.537  1.1003 -0.1267 -1.0174
   52MOL    C2722569   3.288   5.154   4.606 -0.0401 -0.4564 -0.2228
   52MOL    C2822570   3.254   5.288   4.677  0.2693  0.1203 -0.5147
   52MOL    C2922571   3.174   5.388   4.587 -0.7868  0.4171  0.6162
   52MOL    C3022572   3.059   5.321   4.517  0.3290  0.3836  0.0606
   52MOL    C3122573   3.032   5.015   4.271 -0.2619 -0.2502 -0.1239
   52MOL    H3222574   2.956   5.214   4.283 -1.8293 -2.0562 -0.9075
   52MOL    H3322575   3.175   5.239   4.374  0.5490 -0.9247  0.4221
   52MOL    H3422576   3.189   5.009   4.482  0.7260 -0.7319 -0.1746
   52MOL    H3522577   3.095   5.077   4.616 -1.1869  3.5623 -1.8728
   52MOL    H3622578   3.324   5.077   4.674 -1.2735 -0.0024  0.9684
   52MOL    H3722579   3.368   5.166   4.533  1.8436 -1.5104  1.6212
   52MOL    H3822580   3.352   5.328   4.703 -0.6018  0.7754  2.0128
   52MOL    H3922581   3.193   5.266   4.765  2.0368 -2.1349  0.1855
   52MOL    H4022582   3.141   5.467   4.655 -1.5615  0.3342  0.3398
   52MOL    H4122583   3.242   5.439   4.519 -0.6602 -1.6118 -0.8079
   52MOL    H4222584   2.979   5.293   4.585 -1.1561  0.0112 -1.7874
   52MOL    H4322585   3.018   5.393   4.446 -0.3101 -0.0859 -0.0474
   52MOL    H4422586   3.017   4.923   4.329  0.3202  0.4689  1.2007
   52MOL    H4522587   3.136   5.015   4.241  0.0466 -2.6201  0.8009
   52MOL    C4622588   2.940   5.010   4.147  0.1658 -0.3283  1.1542
   52MOL    C4722589   2.893   4.859   4.112  0.2017 -0.1599  0.4209
   52MOL    C4822590   2.804   4.793   4.227  0.4846  0.3813 -0.3364
   52MOL    C4922591   2.758   4.648   4.201  0.0619 -0.4597 -0.6394
   52MOL    C5022592   2.876   4.558   4.147  0.5790  0.9095  0.3354
   52MOL    C5122593   2.946   4.621   4.035  0.4819  0.0701  0.1297
   52MOL    C5222594   3.007   4.759   4.070  0.2170  0.0323  0.1930
   52MOL    C5322595   3.013   5.061   4.018 -0.6558 -0.2254  0.4616
   52MOL    H5422596   2.850   5.068   4.166 -1.0211 -1.4861 -0.7017
   52MOL    H5522597   2.822   4.863   4.030 -2.0016 -0.7688  2.2198
   52MOL    H5622598   2.844   4.804   4.327  1.2800 -3.4941 -0.1612
   52MOL    H5722599   2.719   4.859   4.239  1.9818  2.1385  0.8105
   52MOL    H5822600   2.679   4.652   4.126 -1.2287  0.7337  0.7450
   52MOL    H5922601   2.721   4.609   4.295 -2.7566  0.6290 -1.2371
   52MOL    H6022602   2.938   4.519   4.227  1.1298  2.7114  0.8228
   52MOL    H6122603   2.836   4.463   4.112  0.3180  1.8235 -1.9660
   52MOL    H6222604   2.869   4.624   3.958 -0.5586  0.9149  1.1935
   52MOL    H6322605   3.027   4.555   4.003  0.6085  0.8306 -1.1782
   52MOL    H6422606   3.082   4.761   4.149  0.0238 -0.3182  0.3877
   52MOL    H6522607   3.062   4.794   3.983 -2.0757  0.8982 -0.9511
   52MOL    H6622608   2.970   5.017   3.928 -1.0516 -0.0791  0.5788
   52MOL    H6722609   3.110   5.012   4.026 -0.4572  0.0202 -0.4101
   52MOL    C6822610   3.035   5.211   4.000 -0.2760  0.1042 -0.3481
   52MOL    C6922611   3.153   5.247   3.905 -0.8643  0.1523  0.5647
   52MOL    C7022612   3.290   5.188   3.949  0.7287 -0.2731  0.6562
   52MOL    C7122613   3.395   5.250   3.858 -0.1150  0.0128 -0.6345
   52MOL    C7222614   3.370   5.226   3.713 -0.9135  0.2359 -0.5955
   52MOL    C7322615   3.228   5.268   3.669 -0.2608  0.3006 -0.6448
   52MOL    C7422616   3.114   5.221   3.756 -0.7908 -0.2607  0.4778
   52MOL    C7522617   2.904   5.284   3.967  0.4932  0.5989  0.0807
   52MOL    H7622618   3.076   5.233   4.099  1.8291  0.6809 -1.3240
   52MOL    H7722619   3.177   5.353   3.914 -0.0010  0.1265 -1.2484
   52MOL    H7822620   3.294   5.079   3.949 -0.4947 -0.3199  0.7484
   52MOL    H7922621   3.307   5.208   4.055  0.7297  0.3958  0.5324
   52MOL    H8022622   3.388   5.355   3.886  1.0857  0.2305 -1.1267
   52MOL    H8122623   3.496   5.221   3.886 -1.0525 -2.6877  0.1310
   52MOL    H8222624   3.378   5.119   3.693  0.0344  0.1053  0.4680
   52MOL    H8322625   3.455   5.278   3.670 -0.2009 -1.0449 -0.7618
   52MOL    H8422626   3.209   5.252   3.562 -1.5205  1.3846 -0.6057
   52MOL    H8522627   3.233   5.376   3.683 -1.1774  0.4384 -1.2708
   52MOL    H8622628   3.087   5.116   3.744 -1.4062  0.1814 -2.6309
   52MOL    H8722629   3.024   5.270   3.718 -0.3395  0.2800  0.0872
   52MOL    H8822630   2.883   5.259   3.863  2.5867  2.4413 -0.8317
   52MOL    H8922631   2.817   5.253   4.024  0.0344  1.3034 -0.2241
   52MOL    C9022632   2.898   5.439   3.981  0.0397  0.3547  0.0626
   52MOL    C9122633   2.778   5.511   3.911 -0.3032  0.6426  0.2656
   52MOL    C9222634   2.786   5.515   3.757 -0.3006  1.3790 -0.1505
   52MOL    C9322635   2.678   5.589   3.685  0.5252 -0.2295  0.3445
   52MOL    C9422636   2.534   5.545   3.732  0.1314 -0.2076  0.2290
   52MOL    C9522637   2.527   5.542   3.887 -0.1814  0.3801 -0.7694
   52MOL    C9622638   2.640   5.467   3.956  0.5053  1.0728 -0.1375
   52MOL    C9722639   2.917   5.472   4.133 -0.4546  0.1611 -0.0151
   52MOL    H9822640   2.985   5.487   3.937 -0.3006  0.4767 -0.4718
   52MOL    H9922641   2.779   5.617   3.936  1.5318  0.5666  0.5744
   52MOL   H10022642   2.786   5.410   3.727  1.7909  1.0300  0.9697
   52MOL   H10122643   2.884   5.556   3.731 -1.9943  4.8486 -1.3793
   52MOL   H10222644   2.696   5.568   3.580 -0.9994  1.2047 -0.2341
   52MOL   H10322645   2.701   5.694   3.705  2.4478 -0.9233  2.0190
   52MOL   H10422646   2.536   5.444   3.692  0.6822  1.7633 -5.2257
   52MOL   H10522647   2.451   5.601   3.688 -1.6301 -4.1329 -1.6521
   52MOL   H10622648   2.537   5.632   3.948  1.5450 -0.8332  0.7806
   52MOL   H10722649   2.433   5.496   3.917  0.0044  1.0352  0.8441
   52MOL   H10822650   2.629   5.472   4.065 -0.1367 -1.1544 -0.0622
   52MOL   H10922651   2.622   5.363   3.929 -2.0237  1.5668 -0.5182
   52MOL   H11022652   2.838   5.419   4.187  1.1480 -1.7942  0.4425
   52MOL   H11122653   3.009   5.426   4.167 -0.4196  0.4792  0.3327
   52MOL   C11222654   2.910   5.617   4.177 -0.1884 -0.2354  0.5997
   52MOL   C11322655   3.033   5.692   4.114  0.9334 -0.6052  0.3176
   52MOL   C11422656   3.170   5.649   4.153 -0.4204 -0.2120 -0.0867
   52MOL   C11522657   3.278   5.723   4.066 -0.1086  0.0687 -0.1618
   52MOL   C11622658   3.268   5.874   4.082  0.5211 -0.9022  0.1070
   52MOL   C11722659   3.126   5.920   4.053  0.0551  0.1809 -0.8878
   52MOL   C11822660   3.023   5.846   4.139  0.6577  0.0050  0.9455
   52MOL   C11922661   2.903   5.636   4.331 -0.1104 -0.2869 -0.0041
   52MOL   H12022662   2.811   5.650   4.146 -0.2311 -1.1839 -0.3101
   52MOL   H12122663   3.031   5.673   4.007 -1.5469  2.0877 -0.1950
   52MOL   H12222664   3.188   5.542   4.148  2.0001  0.0991  1.3045
   52MOL   H12322665   3.187   5.681   4.256  1.5205  0.5172 -0.5942
   52MOL   H12422666   3.378   5.690   4.092 -0.5087 -1.2989 -0.3280
   52MOL   H12522667   3.277   5.683   3.964  0.6146 -1.0815  0.2770
   52MOL   H12622668   3.296   5.908   4.182  1.6873 -0.8000 -0.2490
   52MOL   H12722669   3.339   5.934   4.025 -0.8423  0.9796  0.3184
   52MOL   H12822670   3.107   6.026   4.070 -3.3289 -0.4754 -0.2106
   52MOL   H12922671   3.095   5.918   3.948 -1.1161  0.0838 -0.5473
   52MOL   H13022672   2.924   5.886   4.116  1.6080  1.0174 -1.5982
   52MOL   H13122673   3.048   5.869   4.243  0.1832 -0.6524  1.2087
   52MOL   H13222674   3.004   5.639   4.373  1.1543  0.0377 -2.9065
   52MOL   H13322675   2.872   5.539   4.371  1.8088 -1.4538 -1.2331
   52MOL   C13422676   2.801   5.734   4.389 -1.0446 -0.1845 -0.2514
   52MOL   C13522677   2.822   5.783   4.531 -0.2671  0.5345  0.3701
   52MOL   C13622678   2.937   5.882   4.536 -0.1982 -0.4129 -0.5236
   52MOL   C13722679   2.975   5.924   4.679 -0.1341 -0.2708 -0.2027
   52MOL   C13822680   3.000   5.798   4.769  0.7008  0.0306  0.6615
   52MOL   C13922681   2.879   5.709   4.772 -0.3679  0.8501 -0.0459
   52MOL   C14022682   2.849   5.668   4.627  0.1508 -0.8000  0.0476
   52MOL   C14122683   2.654   5.701   4.369 -0.0738 -0.0923  0.0874
   52MOL   H14222684   2.812   5.817   4.319 -0.5494  0.6117  0.7438
   52MOL   H14322685   2.743   5.846   4.572  0.9991  2.7473 -0.5295
   52MOL   H14422686   3.024   5.840   4.486 -0.9876 -0.9859 -1.4388
   52MOL   H14522687   2.911   5.969   4.476  0.8777  0.7779  0.7199
   52MOL   H14622688   2.888   5.973   4.723 -0.4407 -0.5488 -0.4994
   52MOL   H14722689   3.057   5.996   4.682  1.1159 -1.5984 -1.8129
   52MOL   H14822690   3.078   5.748   4.712 -0.5705  0.7948 -1.8180
   52MOL   H14922691   3.038   5.820   4.868  1.8617  1.9971 -0.1866
   52MOL   H15022692   2.799   5.770   4.814  1.2575  2.6091  0.5811
   52MOL   H15122693   2.897   5.624   4.838  2.0762  0.3654 -1.2663
   52MOL   H15222694   2.937   5.614   4.593  1.1489  1.6496 -1.3097
   52MOL   H15322695   2.757   5.609   4.629 -0.3919  0.0280 -0.6624
   52MOL   H15422696   2.613   5.656   4.460 -1.1754  0.2926 -0.2150
   52MOL   H15522697   2.640   5.622   4.294 -0.6550  2.6648 -2.8034
   52MOL   C15622698   2.575   5.835   4.322  0.3768  0.2213  0.0041
   52MOL   C15722699   2.423   5.823   4.344  0.3278 -0.1550 -0.3439
   52MOL   C15822700   2.353   5.711   4.259  0.4937  0.0515 -0.7832
   52MOL   C15922701   2.195   5.686   4.299 -0.0310 -0.0825  0.0439
   52MOL   C16022702   2.174   5.671   4.457  0.0183 -0.5017  0.0934
   52MOL   C16122703   2.233   5.797   4.523 -0.6711 -0.3558  0.0525
   52MOL   C16222704   2.390   5.811   4.499  0.7942  0.1816 -0.0359
   52MOL   C16322705   2.607   5.876   4.177  0.1978 -0.2509  0.2280
   52MOL   H16422706   2.605   5.908   4.397  0.4865  0.7585 -0.5700
   52MOL   H16522707   2.376   5.918   4.320 -1.5129 -0.2250  2.7900
   52MOL   H16622708   2.356   5.743   4.155  1.1618  1.7340 -0.2478
   52MOL   H16722709   2.392   5.610   4.272  1.2229  0.5562  1.2162
   52MOL   H16822710   2.150   5.776   4.258  2.8326 -0.0507 -3.2526
   52MOL   H16922711   2.137   5.612   4.243  2.2909 -0.7081 -1.5821
   52MOL   H17022712   2.231   5.581   4.479  1.4609  0.4360  0.2559
   52MOL   H17122713   2.067   5.659   4.477  0.3194  0.3710  2.3545
   52MOL   H17222714   2.212   5.786   4.629 -0.0370 -0.3911  0.1765
   52MOL   H17322715   2.176   5.872   4.467 -0.2432 -0.2319 -0.2185
   52MOL   H17422716   2.419   5.908   4.540 -0.0790  0.3637  0.1410
   52MOL   H17522717   2.451   5.735   4.547  1.4233  0.6442 -0.0840
   52MOL   H17622718   2.568   5.797   4.113 -0.5654  1.0000 -0.8630
   52MOL   H17722719   2.712   5.879   4.147  1.1290  1.2928  3.3791
   52MOL   C17822720   2.551   6.012   4.125 -0.4810 -0.8702  0.1773
   52MOL   C17922721   2.594   6.129   4.222 -0.1996 -0.6906 -0.4787
   52MOL   C18022722   2.543   6.272   4.173  0.1840  0.2139 -0.2894
   52MOL   C18122723   2.571   6.379   4.277 -0.0231 -0.3142 -0.1793
   52MOL   C18222724   2.722   6.393   4.316 -0.1711 -0.0968  0.4648
   52MOL   C18322725   2.763   6.248   4.367 -0.4888  0.3815  0.5471
   52MOL   C18422726   2.745   6.146   4.255 -0.6807  0.8701 -0.4626
   52MOL   C18522727   2.602   6.032   3.978 -0.0826 -0.2676 -0.3524
   52MOL   H18622728   2.442   6.009   4.129 -0.5536  2.1641  2.6828
   52MOL   H18722729   2.539   6.115   4.315  1.5067 -0.1109  0.6474
   52MOL   H18822730   2.597   6.296   4.082  0.2652 -2.1912 -0.9045
   52MOL   H18922731   2.436   6.287   4.154  0.0483  0.4003  0.5808
   52MOL   H19022732   2.509   6.361   4.364  1.0875  0.1029  0.7086
   52MOL   H19122733   2.549   6.480   4.243  0.4006 -0.0715  0.2625
   52MOL   H19222734   2.779   6.424   4.228 -0.1333  1.5460  1.0436
   52MOL   H19322735   2.757   6.470   4.385 -0.8380  2.0469 -1.5093
   52MOL   H19422736   2.698   6.229   4.452 -1.3915  2.1660  0.2596
   52MOL   H19522737   2.859   6.234   4.418 -0.5046 -1.9613  0.0017
   52MOL   H19622738   2.796   6.169   4.161  1.3527  0.0300  0.4192
   52MOL   H19722739   2.789   6.051   4.283 -2.6310 -0.3706 -1.4687
   52MOL   H19822740   2.703   6.073   3.987 -0.8209  1.3610  0.7740
   52MOL   H19922741   2.626   5.937   3.930  2.5097  0.8154 -1.3287
   52MOL   C20022742   2.507   6.104   3.873  0.3288 -0.4157 -0.3946
   52MOL   C20122743   2.581   6.152   3.745  0.5864  0.3946  1.1429
   52MOL   C20222744   2.658   6.282   3.750  0.1749  0.3527  0.2428
   52MOL   C20322745   2.720   6.329   3.615  0.6473 -0.6701 -0.5469
   52MOL   C20422746   2.808   6.224   3.555 -0.4974 -0.3133  0.2984
   52MOL   C20522747   2.727   6.091   3.543 -0.1413 -0.3011 -0.7818
   52MOL   C20622748   2.667   6.044   3.680 -0.2657 -0.4959  0.0176
   52MOL   C20722749   2.379   6.028   3.841  1.1880  0.4493  0.4397
   52MOL   H20822750   2.478   6.201   3.913  2.2623  1.1131 -2.5940
   52MOL   H20922751   2.502   6.176   3.673  0.5468 -1.6710  0.4558
   52MOL   H21022752   2.735   6.281   3.827  0.2922  1.5996  0.1473
   52MOL   H21122753   2.588   6.355   3.790 -0.0407  0.1157  0.3065
   52MOL   H21222754   2.645   6.367   3.546  1.1482  0.7601 -0.3112
   52MOL   H21322755   2.781   6.416   3.638 -2.0143  1.3541 -0.9253
   52MOL   H21422756   2.847   6.251   3.457 -0.3560  1.9629  0.9588
   52MOL   H21522757   2.892   6.222   3.624 -0.4637 -1.0324  0.2467
   52MOL   H21622758   2.643   6.108   3.476 -1.7326 -1.5646  0.8324
   52MOL   H21722759   2.776   6.003   3.501 -0.2949 -1.2844  1.0382
   52MOL   H21822760   2.602   5.957   3.669 -0.1254 -0.6973  0.7751
   52MOL   H21922761   2.756   6.020   3.739 -0.0717 -0.3474 -0.2101
   52MOL   H22022762   2.389   5.980   3.744  0.4603  0.0017  0.5811
   52MOL   H22122763   2.374   5.943   3.909  1.1156 -2.2250 -2.7746
   52MOL   C22222764   2.245   6.118   3.835 -0.2877 -0.7031  0.1050
   52MOL   C22322765   2.131   6.053   3.769  0.6227 -0.3517 -0.0092
   52MOL   C22422766   2.087   5.915   3.832  0.0715  0.5684 -0.7477
   52MOL   C22522767   1.970   5.846   3.753 -0.2791  0.4879 -0.3187
   52MOL   C22622768   1.988   5.845   3.603 -0.9229  0.3432  0.3000
   52MOL   C22722769   2.021   5.984   3.557  0.6458  0.0497 -0.1854
   52MOL   C22822770   2.150   6.036   3.615 -0.4102 -0.3284  0.3298
   52MOL   C22922771   2.199   6.184   3.967  0.3272  0.4209  0.2246
   52MOL   H23022772   2.275   6.197   3.767  0.6979 -2.0988 -1.1246
   52MOL   H23122773   2.041   6.114   3.780  1.0324 -0.1382  2.5247
   52MOL   H23222774   2.166   5.843   3.810 -1.0600  0.1309 -3.7123
   52MOL   H23322775   2.077   5.915   3.940  0.9478 -0.1401 -0.6601
   52MOL   H23422776   1.885   5.910   3.775  0.4204  1.8007 -1.3644
   52MOL   H23522777   1.953   5.741   3.779  0.5063  0.1361 -1.1694
   52MOL   H23622778   2.079   5.792   3.575 -0.1335  2.4957 -1.3442
   52MOL   H23722779   1.904   5.814   3.541  0.1124  0.9404 -1.4285
   52MOL   H23822780   1.942   6.055   3.582 -1.6049 -2.1640 -0.8276
   52MOL   H23922781   2.027   5.991   3.449  0.3332 -0.0903 -0.2111
   52MOL   H24022782   2.230   5.967   3.587 -0.8032 -0.2011 -1.1646
   52MOL   H24122783   2.181   6.130   3.569  1.8254 -2.4253 -2.7175
   52MOL   H24222784   2.285   6.235   4.010  0.0437  1.5496 -0.5285
   52MOL   H24322785   2.175   6.105   4.039 -1.1964 -0.0397 -0.7560
   52MOL   C24422786   2.085   6.295   3.962  0.3453  0.5644 -0.1799
   52MOL   C24522787   2.112   6.398   3.850  1.0811  0.0429 -0.8003
   52MOL   C24622788   2.244   6.473   3.864 -0.5635  0.4054 -0.0297
   52MOL   C24722789   2.265   6.556   3.739 -0.0574 -0.1510  0.2786
   52MOL   C24822790   2.153   6.650   3.710 -0.1216  0.4368 -0.0804
   52MOL   C24922791   2.023   6.580   3.693  0.2098  0.2511  0.0285
   52MOL   C25022792   1.998   6.499   3.820 -0.6332  0.6197  0.3638
   52MOL   C25122793   2.078   6.365   4.104 -0.3989 -0.3895 -0.1477
   52MOL   H25222794   1.991   6.243   3.944  1.6071 -1.4145 -1.1946
   52MOL   H25322795   2.110   6.342   3.757  0.1676  1.5020 -1.6818
   52MOL   H25422796   2.331   6.413   3.887 -1.5406 -0.4113  1.6228
   52MOL   H25522797   2.228   6.547   3.943  0.0338 -1.0169  1.4570
   52MOL   H25622798   2.352   6.621   3.746  0.9699 -1.7419  3.6020
   52MOL   H25722799   2.292   6.486   3.660  1.2964  1.6497 -0.8715
   52MOL   H25822800   2.144   6.726   3.788  2.3954  0.8249 -0.1240
   52MOL   H25922801   2.170   6.711   3.621  0.9633 -0.0830 -0.2302
   52MOL   H26022802   2.020   6.517   3.605  2.6847 -1.7924  1.3458
   52MOL   H26122803   1.939   6.648   3.676 -1.7004 -2.4205 -1.6388
   52MOL   H26222804   1.994   6.572   3.901  0.2728  0.0070  0.9712
   52MOL   H26322805   1.900   6.457   3.845 -0.9787  1.2129  0.0231
   52MOL   H26422806   2.045   6.468   4.096  2.2450  0.6814  2.2069
   52MOL   H26522807   2.179   6.377   4.142 -0.9979 -1.5604  1.8462
   52MOL   C26622808   1.985   6.278   4.194 -0.1699  1.0566 -0.3315
   52MOL   C26722809   2.044   6.260   4.339 -0.0821 -0.7349  0.1000
   52MOL   C26822810   2.028   6.391   4.420  0.3285  0.2470  0.4033
   52MOL   C26922811   2.089   6.381   4.559 -0.0296  0.6612 -0.1620
   52MOL   C27022812   2.230   6.317   4.557 -0.5916  0.4233 -0.7341
   52MOL   C27122813   2.222   6.189   4.485  0.6427 -0.2202  1.2014
   52MOL   C27222814   2.189   6.202   4.336 -0.2122  0.3435  0.1563
   52MOL   C27322815   1.844   6.334   4.182 -0.3412 -0.0795  0.3832
   52MOL   H27422816   1.978   6.179   4.147 -2.9365  0.4395  1.3066
   52MOL   H27522817   1.984   6.181   4.384 -1.0320  0.0206  0.1742
   52MOL   H27622818   2.073   6.474   4.366 -0.2068 -0.6174 -1.4054
   52MOL   H27722819   1.922   6.413   4.434  0.0950 -1.7207  1.9347
   52MOL   H27822820   2.025   6.325   4.628  0.8638 -0.2501 -0.0584
   52MOL   H27922821   2.094   6.480   4.604  0.5583  0.8726 -0.6935
   52MOL   H28022822   2.304   6.384   4.513  0.0509  0.5271  0.4761
   52MOL   H28122823   2.265   6.297   4.659  0.1585 -0.6660 -1.1958
   52MOL   H28222824   2.153   6.127   4.542 -1.6115  0.0595 -1.1448
   52MOL   H28322825   2.310   6.124   4.489  1.0229  0.3108  1.6242
   52MOL   H28422826   2.176   6.104   4.291  0.4795  1.9302 -3.7117
   52MOL   H28522827   2.264   6.255   4.277  0.0082 -1.1647 -0.9313
   52MOL   H28622828   1.805   6.354   4.082 -0.3170 -0.2399  0.3408
   52MOL   H28722829   1.836   6.431   4.230  1.4961 -0.4160  1.3934
   52MOL   C28822830   1.736   6.242   4.248 -0.7318 -0.3975  0.4069
   52MOL   C28922831   1.733   6.088   4.208  0.4460  0.3001 -0.1714
   52MOL   C29022832   1.651   5.992   4.293  0.0873  0.0711 -0.1107
   52MOL   C29122833   1.652   5.847   4.242 -0.7872  0.5611  1.3097
   52MOL   C29222834   1.605   5.843   4.103 -0.4451  0.0441  0.4190
   52MOL   C29322835   1.685   5.924   4.004 -0.1236 -0.0850  1.1314
   52MOL   C29422836   1.689   6.073   4.058 -0.0644  0.5597  0.0099
   52MOL   C29522837   1.596   6.308   4.247  0.6159 -0.0578 -1.2790
   52MOL   H29622838   1.757   6.229   4.354 -1.0826 -0.4122  0.4781
   52MOL   H29722839   1.831   6.041   4.208 -0.4156 -1.5996 -2.8840
   52MOL   H29822840   1.684   5.996   4.397  0.7605  1.3856 -0.3605
   52MOL   H29922841   1.549   6.029   4.296  0.0674 -0.0765  1.4328
   52MOL   H30022842   1.747   5.796   4.254 -0.2956  1.1479 -0.0170
   52MOL   H30122843   1.578   5.784   4.291 -2.6812  0.3329 -1.7381
   52MOL   H30222844   1.500   5.872   4.102  0.0478  2.0053 -1.9616
   52MOL   H30322845   1.620   5.742   4.065 -1.2233 -0.1801  0.6884
   52MOL   H30422846   1.645   5.913   3.903 -1.2951 -1.6374  1.7566
   52MOL   H30522847   1.786   5.883   3.996  0.6056  1.8739 -0.4337
   52MOL   H30622848   1.590   6.116   4.043 -0.4574 -0.8113 -1.6142
   52MOL   H30722849   1.761   6.129   3.998  0.2279 -0.5852 -0.7271
   52MOL   H30822850   1.602   6.398   4.186 -0.3827  0.7082 -0.2766
   52MOL   H30922851   1.522   6.244   4.200  1.1031 -1.8598  0.3681
   52MOL   C31022852   1.532   6.344   4.385  0.6304  0.0847 -0.5003
   52MOL   C31122853   1.611   6.457   4.448 -0.4747 -0.0608  0.1275
   52MOL   C31222854   1.580   6.597   4.390 -0.1499  0.2546 -0.0956
   52MOL   C31322855   1.680   6.706   4.429  0.6251 -0.7552 -0.3804
   52MOL   C31422856   1.681   6.725   4.585  0.4511  0.3167  0.1581
   52MOL   C31522857   1.711   6.588   4.659 -0.3150 -0.4767  0.4261
   52MOL   C31622858   1.615   6.477   4.599 -1.1430  0.4956 -0.0348
   52MOL   C31722859   1.388   6.380   4.382  1.0069 -0.2059 -0.4792
   52MOL   H31822860   1.534   6.254   4.447  1.8000  1.0879  0.9545
   52MOL   H31922861   1.714   6.427   4.425 -0.2282  0.6327  0.3183
   52MOL   H32022862   1.571   6.601   4.282 -0.9350 -0.0909 -0.0493
   52MOL   H32122863   1.485   6.631   4.432  0.2293  0.7556  0.3530
   52MOL   H32222864   1.645   6.799   4.385  0.8458  0.1895  1.3797
   52MOL   H32322865   1.781   6.691   4.389  1.7076 -2.0018  2.6440
   52MOL   H32422866   1.746   6.805   4.620  2.1814 -1.5347  1.2689
   52MOL   H32522867   1.582   6.749   4.623  0.9055 -0.2452  1.6996
   52MOL   H32622868   1.817   6.567   4.643 -0.0371 -0.4631  2.2101
   52MOL   H32722869   1.694   6.603   4.765  2.0264  1.4315  0.5633
   52MOL   H32822870   1.517   6.507   4.636 -1.1790 -0.0455  0.3115
   52MOL   H32922871   1.623   6.382   4.652 -2.2829  1.7314  2.4392
   52MOL   H33022872   1.363   6.459   4.310  0.4802  0.5232  0.4857
   52MOL   H33122873   1.366   6.437   4.473 -3.1646  2.2431 -2.8362
   52MOL   C33222874   1.291   6.254   4.373 -0.0648 -0.2899  0.4277
   52MOL   C33322875   1.183   6.264   4.259 -0.4282  0.0070  0.5175
   52MOL   C33422876   1.248   6.273   4.117 -0.0497 -0.6197  0.4687
   52MOL   C33522877   1.140   6.218   4.020  0.5384  0.3437 -0.3644
   52MOL   C33622878   1.038   6.329   4.031 -0.4345 -0.1388 -1.2243
   52MOL   C33722879   0.973   6.352   4.168 -0.3921  0.1125 -0.0417
   52MOL   C33822880   1.074   6.378   4.283  0.4587  0.0128 -0.1144
   52MOL   C33922881   1.231   6.221   4.516  0.1334  0.2677  0.3611
   52MOL   H34022882   1.344   6.164   4.342  0.3416 -0.4372  1.5345
   52MOL   H34122883   1.137   6.165   4.259  1.5178 -0.9169  0.6149
   52MOL   H34222884   1.288   6.372   4.091  0.1592 -1.5213 -2.9611
   52MOL   H34322885   1.330   6.204   4.101  0.8434  0.8453 -1.6895
   52MOL   H34422886   1.190   6.215   3.923 -1.9450 -0.9718 -1.6683
   52MOL   H34522887   1.098   6.119   4.039 -1.2371  0.5352 -3.0205
   52MOL   H34622888   1.086   6.418   3.990  1.6335 -0.3303  0.6511
   52MOL   H34722889   0.960   6.304   3.960 -2.2269  1.3978  0.1573
   52MOL   H34822890   0.897   6.275   4.182  1.0513 -1.6830 -1.7815
   52MOL   H34922891   0.918   6.444   4.152  1.3981  1.1115 -0.6266
   52MOL   H35022892   1.027   6.373   4.381  2.9770  0.7854  1.1625
   52MOL   H35122893   1.129   6.470   4.266  2.1383 -0.9796 -0.1392
   52MOL   H35222894   1.152   6.293   4.535  0.8478  0.9300  0.8654
   52MOL   H35322895   1.312   6.251   4.582  0.7097  1.1661 -0.7425
   52MOL   C35422896   1.187   6.067   4.541  0.4202  0.2859  0.4105
   52MOL   C35522897   1.067   6.047   4.646 -0.4295  1.3253 -0.4333
   52MOL   C35622898   0.939   6.106   4.595  0.1208 -0.6997 -0.5328
   52MOL   C35722899   0.824   6.087   4.694 -0.1499 -0.4128  0.2504
   52MOL   C35822900   0.857   6.142   4.835 -0.2288  0.1032  0.3070
   52MOL   C35922901   0.978   6.074   4.900 -0.4302  0.2389  0.9622
   52MOL   C36022902   1.096   6.080   4.795 -0.0993  0.4968 -0.2215
   52MOL   C36122903   1.306   5.976   4.565  0.9616  0.8003  0.2302
   52MOL   H36222904   1.150   6.035   4.444 -0.7143 -2.1703  1.5860
   52MOL   H36322905   1.039   5.942   4.631  1.6707  0.2568  2.6291
   52MOL   H36422906   0.917   6.065   4.496 -1.6356 -0.0325 -0.4336
   52MOL   H36522907   0.945   6.212   4.573 -2.3481 -0.6899 -1.2117
   52MOL   H36622908   0.733   6.127   4.648  0.6454 -1.0405 -1.9172
   52MOL   H36722909   0.796   5.982   4.698 -1.1897 -0.1444  0.0940
   52MOL   H36822910   0.878   6.249   4.832  0.6447 -0.0981 -0.9957
   52MOL   H36922911   0.767   6.116   4.891 -0.0512 -0.0220  0.5319
   52MOL   H37022912   0.997   6.125   4.994 -0.9758  1.6418  0.3373
   52MOL   H37122913   0.956   5.968   4.912  2.8646 -0.7227 -0.8917
   52MOL   H37222914   1.178   6.021   4.836  0.1102 -0.3206 -1.7650
   52MOL   H37322915   1.146   6.177   4.789  0.8757 -0.0424 -0.9863
   52MOL   H37422916   1.364   6.004   4.653  2.0635 -2.0742  0.4834
   52MOL   H37522917   1.374   6.010   4.487 -1.1105  0.0281 -1.9818
   52MOL   C37622918   1.281   5.821   4.572 -0.1366  1.1805 -0.1410
   52MOL   C37722919   1.198   5.760   4.454  0.9100  0.7388  0.5766
   52MOL   C37822920   1.146   5.619   4.483  0.1964 -0.2207  0.4027
   52MOL   C37922921   1.059   5.560   4.367  0.3015  0.0386  0.0680
   52MOL   C38022922   1.129   5.568   4.233 -0.1936  0.7269 -0.8553
   52MOL   C38122923   1.166   5.714   4.210  0.3861  0.1223 -0.0901
   52MOL   C38222924   1.265   5.763   4.317 -0.7283 -0.2557 -0.2336
   52MOL   C38322925   1.411   5.744   4.593  0.0756 -0.2721 -0.3008
   52MOL   H38422926   1.226   5.800   4.664 -0.9202  0.5326 -0.7443
   52MOL   H38522927   1.103   5.812   4.439 -0.1888 -1.6149 -1.0276
   52MOL   H38622928   1.228   5.548   4.489 -0.7328 -1.4239 -0.9376
   52MOL   H38722929   1.094   5.618   4.579  1.1939 -1.6399  0.9401
   52MOL   H38822930   0.961   5.608   4.360  0.1665 -0.0950  0.9845
   52MOL   H38922931   1.044   5.458   4.399  0.6105  0.2299  0.8225
   52MOL   H39022932   1.216   5.501   4.235  0.5818  1.7441 -0.2316
   52MOL   H39122933   1.061   5.525   4.159 -0.9430  0.7908 -0.2102
   52MOL   H39222934   1.221   5.715   4.116  1.3236  0.3865  0.4566
   52MOL   H39322935   1.082   5.781   4.193 -0.0179 -1.0796 -3.2002
   52MOL   H39422936   1.353   5.699   4.326 -0.8503 -0.4895 -0.6631
   52MOL   H39522937   1.301   5.864   4.297 -0.7162 -0.6610 -2.3684
   52MOL   H39622938   1.493   5.803   4.553 -1.2076 -0.0480 -2.7473
   52MOL   H39722939   1.405   5.659   4.525 -0.0314  1.1848 -2.1521
   52MOL   C39822940   1.448   5.697   4.730 -0.1590 -0.0338 -0.3222
   52MOL   C39922941   1.583   5.619   4.731 -0.7166  0.4847 -0.2753
   52MOL   C40022942   1.583   5.486   4.656  0.5292  1.0918  1.0236
   52MOL   C40122943   1.725   5.420   4.670 -0.2495  0.2487  0.4404
   52MOL   C40222944   1.833   5.514   4.620  0.8466  0.2484 -0.6291
   52MOL   C40322945   1.834   5.652   4.698 -0.4830 -0.1322  0.4904
   52MOL   C40422946   1.694   5.713   4.684  0.5873  0.0366  0.7820
   52MOL   C40522947   1.451   5.814   4.837 -0.2083  0.1206  0.4254
   52MOL   H40622948   1.373   5.624   4.762 -0.3849  0.7349  0.9641
   52MOL   H40722949   1.616   5.603   4.833 -1.8475  1.0307  0.1959
   52MOL   H40822950   1.566   5.500   4.549 -1.9434 -0.3149  1.2147
   52MOL   H40922951   1.514   5.410   4.693  0.5368  0.3471 -0.4495
   52MOL   H41022952   1.725   5.327   4.612 -2.1707  0.4743  0.0345
   52MOL   H41122953   1.749   5.394   4.773 -1.3971  1.0036  0.9059
   52MOL   H41222954   1.821   5.516   4.512 -0.1175 -0.9919 -0.5592
   52MOL   H41322955   1.926   5.463   4.644 -1.0567 -2.1480  1.9850
   52MOL   H41422956   1.867   5.645   4.802 -2.4954 -0.0790  1.1559
   52MOL   H41522957   1.902   5.724   4.652 -1.0145 -1.1449 -1.9433
   52MOL   H41622958   1.690   5.809   4.734  0.1767  0.6776 -0.4552
   52MOL   H41722959   1.684   5.726   4.576 -0.3200 -0.5933  0.7807
   52MOL   H41822960   1.505   5.904   4.809  0.1753  0.3277  1.7792
   52MOL   H41922961   1.350   5.855   4.833 -0.2255 -0.0473 -0.8113
   52MOL   C42022962   1.482   5.777   4.983 -0.8282  0.2262  0.5560
   52MOL   C42122963   1.375   5.833   5.076 -0.1375  0.2314  0.5282
   52MOL   C42222964   1.363   5.994   5.084 -0.2954 -0.2728 -0.0659
   52MOL   C42322965   1.241   6.029   5.165 -0.3656  0.2009  0.9753
   52MOL   C42422966   1.237   5.970   5.307 -0.1905 -0.1067  0.2848
   52MOL   C42522967   1.242   5.817   5.303 -0.0265  0.7772 -0.1203
   52MOL   C42622968   1.365   5.768   5.221 -0.0353 -0.3928 -0.0421
   52MOL   C42722969   1.620   5.835   5.021 -0.6612 -0.5437 -0.4372
   52MOL   H42822970   1.473   5.670   5.000 -0.1895 -0.0775 -0.9830
   52MOL   H42922971   1.286   5.796   5.027 -0.3381 -0.8988  1.7153
   52MOL   H43022972   1.447   6.051   5.123  1.7032  0.3206 -4.8662
   52MOL   H43122973   1.350   6.037   4.985 -0.3896 -0.2411 -0.0398
   52MOL   H43222974   1.244   6.138   5.163 -1.5875  0.2407  0.8160
   52MOL   H43322975   1.159   5.992   5.103  0.0280 -1.1975  1.2810
   52MOL   H43422976   1.152   6.006   5.365 -0.5523  1.9029 -1.4421
   52MOL   H43522977   1.321   6.004   5.367  1.6663 -3.0492 -0.5288
   52MOL   H43622978   1.154   5.772   5.259 -0.7835 -1.1114  3.1580
   52MOL   H43722979   1.253   5.782   5.406 -0.7348  1.6694  0.2648
   52MOL   H43822980   1.450   5.796   5.282 -0.4053  4.4051 -1.5127
   52MOL   H43922981   1.357   5.660   5.222  0.1888 -0.4094  0.0003
   52MOL   H44022982   1.645   5.830   5.127 -0.7344 -0.5892 -0.4222
   52MOL   H44122983   1.684   5.775   4.956 -1.0415 -1.6685  0.2109
   52MOL   H44222984   1.639   5.937   4.987 -0.9313 -0.8018 -1.3756
   53MOL     C122985   4.342   6.647   3.419  0.0328  0.7981  1.0680
   53MOL     C222986   4.283   6.541   3.512  0.2309  0.4115  0.0998
   53MOL     C322987   4.298   6.394   3.476  0.1375  0.3740  0.0117
   53MOL     C422988   4.238   6.296   3.574  0.8085  0.3230 -0.3096
   53MOL     C522989   4.093   6.327   3.599  0.2394  0.1934 -0.1961
   53MOL     C622990   4.081   6.471   3.651  0.3720 -0.1759  0.2568
   53MOL     C722991   4.130   6.569   3.538  0.1514 -0.7233  0.0926
   53MOL     C822992   4.373   6.781   3.493 -0.3654 -0.5244 -0.1643
   53MOL     H922993   4.428   6.597   3.373 -0.5586  0.2393  0.5697
   53MOL    H1022994   4.340   6.558   3.604 -1.2607  2.5532  0.6742
   53MOL    H1122995   4.251   6.380   3.379  1.7556 -2.0256 -0.4652
   53MOL    H1222996   4.404   6.369   3.466 -0.0559  0.0034 -1.1682
   53MOL    H1322997   4.303   6.292   3.662  0.4346 -0.6753 -0.0770
   53MOL    H1422998   4.241   6.193   3.539 -2.1531  0.1616 -0.2675
   53MOL    H1522999   4.059   6.248   3.666  0.7156 -0.3037 -0.5337
   53MOL    H1623000   4.032   6.311   3.511 -0.1051 -2.2296  0.4353
   53MOL    H1723001   3.977   6.483   3.682 -0.0930  1.0948 -1.6774
   53MOL    H1823002   4.135   6.488   3.743  0.6758 -0.4703  0.1338
   53MOL    H1923003   4.102   6.666   3.577  0.6205 -0.6101  0.1584
   53MOL    H2023004   4.069   6.562   3.448  0.1901  0.5694 -0.0339
   53MOL    H2123005   4.450   6.774   3.571 -2.7231 -0.0600  2.3043
   53MOL    H2223006   4.300   6.817   3.565 -1.3648  1.1660 -1.9719
   53MOL    H2323007   4.270   6.660   3.338  1.9493 -2.3579 -1.2850
   53MOL    C2423008   4.419   6.899   3.401  0.1964  0.0154  0.0164
   53MOL    C2523009   4.550   6.868   3.320 -0.1358 -0.1266 -0.1043
   53MOL    C2623010   4.653   6.797   3.405 -0.5672  0.1856 -0.8012
   53MOL    C2723011   4.774   6.754   3.322 -0.2198  1.2554  0.0369
   53MOL    C2823012   4.835   6.882   3.257 -0.4088 -0.1542 -0.1121
   53MOL    C2923013   4.733   6.968   3.178 -0.5850 -0.3530  0.4982
   53MOL    C3023014   4.607   6.996   3.265  0.1926 -0.0445  0.2862
   53MOL    C3123015   4.297   6.948   3.311  0.1943 -0.3328 -0.5692
   53MOL    H3223016   4.443   6.980   3.470 -0.1189 -0.5121  0.7490
   53MOL    H3323017   4.525   6.798   3.241 -1.6417 -0.4709  0.6625
   53MOL    H3423018   4.616   6.708   3.454  0.1626  0.6481  0.6125
   53MOL    H3523019   4.674   6.868   3.485  0.0386  0.0611 -0.8491
   53MOL    H3623020   4.849   6.696   3.376 -0.2456  0.8230 -0.3891
   53MOL    H3723021   4.726   6.699   3.241  0.4905  0.5993  0.0611
   53MOL    H3823022   4.912   6.846   3.189  0.4501 -0.8371  1.1842
   53MOL    H3923023   4.887   6.946   3.328  0.1040  1.9093 -2.2737
   53MOL    H4023024   4.777   7.063   3.148 -1.5128 -0.1965 -0.4310
   53MOL    H4123025   4.709   6.913   3.087  1.1063 -1.2885  0.6066
   53MOL    H4223026   4.632   7.065   3.346 -1.3131  2.3704 -1.2454
   53MOL    H4323027   4.542   7.053   3.199 -0.5703 -1.1377  0.0860
   53MOL    H4423028   4.231   6.866   3.282 -1.0452  0.1823  0.7359
   53MOL    H4523029   4.326   6.980   3.211  0.9530  2.0121  0.3771
   53MOL    C4623030   4.204   7.049   3.380  0.0502 -0.8208 -0.0701
   53MOL    C4723031   4.058   7.042   3.328 -0.3577  0.4559 -0.5527
   53MOL    C4823032   4.005   6.909   3.365  0.0812  0.0088 -0.4430
   53MOL    C4923033   3.852   6.898   3.344  0.0387 -0.2859 -0.0279
   53MOL    C5023034   3.830   6.911   3.194 -0.0640 -0.1991 -0.1134
   53MOL    C5123035   3.889   7.043   3.148  0.5200 -0.6954 -0.4711
   53MOL    C5223036   4.040   7.056   3.176  0.9826  0.1481  0.0257
   53MOL    C5323037   4.256   7.199   3.374 -0.5514 -0.6110 -0.2087
   53MOL    H5423038   4.208   7.025   3.486 -0.9651  2.2223  0.7044
   53MOL    H5523039   3.992   7.114   3.376 -0.6468 -0.6848  0.8052
   53MOL    H5623040   4.042   6.830   3.301 -2.2732  0.1182 -1.9973
   53MOL    H5723041   4.026   6.881   3.468 -1.6064 -0.0953 -0.1123
   53MOL    H5823042   3.794   6.970   3.402  0.8704 -0.0316  0.4937
   53MOL    H5923043   3.812   6.804   3.383 -0.3438 -0.7913 -1.6027
   53MOL    H6023044   3.869   6.823   3.143  0.1121 -2.1762  3.2274
   53MOL    H6123045   3.724   6.907   3.166 -0.1737  3.2323 -0.4080
   53MOL    H6223046   3.831   7.120   3.199  0.3605 -1.3027  0.2787
   53MOL    H6323047   3.876   7.059   3.041 -0.0855  0.8678 -0.1784
   53MOL    H6423048   4.098   6.990   3.111 -0.5304 -0.1563 -1.0433
   53MOL    H6523049   4.071   7.157   3.149 -2.9284  1.6714  0.8870
   53MOL    H6623050   4.175   7.273   3.369  0.2298  0.1292 -3.1183
   53MOL    H6723051   4.308   7.222   3.281  0.8183 -2.3858  0.0991
   53MOL    C6823052   4.357   7.245   3.488  0.6409 -0.1615  0.0612
   53MOL    C6923053   4.469   7.334   3.433 -0.4070  0.3265 -0.4635
   53MOL    C7023054   4.420   7.464   3.377  0.6129  0.9720  0.7655
   53MOL    C7123055   4.539   7.555   3.319  0.5219  0.2914  0.4559
   53MOL    C7223056   4.647   7.582   3.435  0.2323  0.2900 -0.3749
   53MOL    C7323057   4.703   7.447   3.496  0.3411 -0.5257  0.6339
   53MOL    C7423058   4.590   7.357   3.537  0.2077 -0.4038  0.2843
   53MOL    C7523059   4.275   7.315   3.598 -0.1199 -0.3437  0.3581
   53MOL    H7623060   4.416   7.164   3.530 -0.4273 -1.5071 -0.9764
   53MOL    H7723061   4.512   7.276   3.352 -1.2421 -0.6506 -0.2089
   53MOL    H7823062   4.372   7.518   3.459 -2.0279  0.9102 -0.6934
   53MOL    H7923063   4.345   7.456   3.299  2.1077 -1.6667 -0.4782
   53MOL    H8023064   4.578   7.510   3.228  1.7436  2.8444 -0.3168
   53MOL    H8123065   4.503   7.654   3.291 -1.4258 -0.0978  1.4862
   53MOL    H8223066   4.602   7.642   3.514  2.3716 -1.5404  2.3149
   53MOL    H8323067   4.732   7.633   3.390 -0.5271  0.7230 -1.3501
   53MOL    H8423068   4.782   7.462   3.570  1.6114 -0.9199 -0.6161
   53MOL    H8523069   4.761   7.397   3.418  1.6232  0.1628  1.1301
   53MOL    H8623070   4.546   7.398   3.627  0.3190  0.0470  0.1339
   53MOL    H8723071   4.633   7.262   3.571 -1.3489 -1.1778  0.1074
   53MOL    H8823072   4.353   7.360   3.660  1.0640 -0.8303 -0.7662
   53MOL    H8923073   4.218   7.396   3.553  1.2832  0.3477 -0.2065
   53MOL    C9023074   4.184   7.234   3.689 -0.1553  0.3806  0.4958
   53MOL    C9123075   4.253   7.122   3.764  0.1240  0.4767 -0.8992
   53MOL    C9223076   4.353   7.169   3.876  0.2944  0.4482  0.4477
   53MOL    C9323077   4.425   7.060   3.951 -0.2841 -0.6815 -0.0564
   53MOL    C9423078   4.321   6.967   4.021  0.1850 -0.1632  0.4796
   53MOL    C9523079   4.229   6.907   3.906  0.4293 -0.5480  0.5223
   53MOL    C9623080   4.158   7.024   3.837  0.3045  0.4623 -0.4359
   53MOL    C9723081   4.095   7.343   3.768  0.3662 -0.0634  0.1461
   53MOL    H9823082   4.132   7.177   3.612  2.0318  0.2203 -0.8800
   53MOL    H9923083   4.312   7.065   3.694  1.2260 -1.0205  1.2037
   53MOL   H10023084   4.300   7.233   3.947 -0.4989  0.8186 -0.4654
   53MOL   H10123085   4.424   7.243   3.838  2.0219 -0.8499  1.0664
   53MOL   H10223086   4.488   7.093   4.034  2.5508  0.5618 -2.5782
   53MOL   H10323087   4.497   7.011   3.885  1.6871  1.0984  0.7263
   53MOL   H10423088   4.265   7.024   4.096 -1.1235 -1.9899  0.9156
   53MOL   H10523089   4.378   6.888   4.070  0.3163 -0.4187 -0.0788
   53MOL   H10623090   4.293   6.839   3.850  2.5129  1.1926  0.7338
   53MOL   H10723091   4.146   6.854   3.953  0.9103 -1.8559 -0.0758
   53MOL   H10823092   4.085   6.998   3.761 -1.2239 -3.8790  2.3499
   53MOL   H10923093   4.109   7.087   3.911 -1.4897 -0.7320 -0.5810
   53MOL   H11023094   4.162   7.394   3.838  0.0633 -0.3923  0.6763
   53MOL   H11123095   4.069   7.428   3.705 -0.4904  0.0058  0.5930
   53MOL   C11223096   3.953   7.308   3.828  0.3764  0.2358  0.5893
   53MOL   C11323097   3.856   7.273   3.714  0.0444  0.0072  0.1730
   53MOL   C11423098   3.852   7.362   3.585 -0.2452 -0.3715 -1.1989
   53MOL   C11523099   3.760   7.294   3.480  0.2020 -0.0597 -0.2352
   53MOL   C11623100   3.614   7.280   3.531  0.4580 -0.1771 -0.4010
   53MOL   C11723101   3.617   7.199   3.660 -0.1052  0.0132  0.2911
   53MOL   C11823102   3.710   7.269   3.766 -0.1363  0.1594 -0.1850
   53MOL   C11923103   3.898   7.429   3.913  0.2141  0.0345  0.8603
   53MOL   H12023104   3.958   7.219   3.890 -0.0020 -1.8169 -2.2120
   53MOL   H12123105   3.887   7.171   3.689  2.0542  0.9477 -1.2907
   53MOL   H12223106   3.952   7.365   3.544  1.0010 -1.3758  1.6455
   53MOL   H12323107   3.832   7.466   3.614 -0.2407 -0.0452 -2.3487
   53MOL   H12423108   3.766   7.349   3.386 -0.0795  3.1960  1.5680
   53MOL   H12523109   3.803   7.197   3.455  0.3563 -1.0708  3.6039
   53MOL   H12623110   3.580   7.382   3.548  1.4238  0.1176 -0.2333
   53MOL   H12723111   3.554   7.242   3.448  2.5610 -1.0258 -1.5764
   53MOL   H12823112   3.514   7.187   3.693 -0.3133 -2.0471 -1.0126
   53MOL   H12923113   3.650   7.098   3.638  0.1501 -0.4624  2.6985
   53MOL   H13023114   3.709   7.212   3.859  1.5829 -0.4177 -0.5141
   53MOL   H13123115   3.665   7.366   3.787  2.8613  1.6714 -0.4894
   53MOL   H13223116   3.806   7.396   3.961 -0.6534  0.3327 -0.5604
   53MOL   H13323117   3.882   7.505   3.836  0.5638  0.1571  0.9093
   53MOL   C13423118   3.997   7.486   4.017  0.5415 -1.0202  0.0892
   53MOL   C13523119   4.051   7.390   4.134  0.5916  0.2935  0.7699
   53MOL   C13623120   3.941   7.339   4.229  0.4284 -0.1145  0.4289
   53MOL   C13723121   3.997   7.236   4.334 -0.0174  0.0165 -0.2524
   53MOL   C13823122   4.113   7.297   4.411 -0.3565  0.1476 -0.2900
   53MOL   C13923123   4.225   7.357   4.328 -0.2651 -0.2958 -0.6653
   53MOL   C14023124   4.161   7.449   4.223  0.2577 -0.0769 -0.3366
   53MOL   C14123125   3.938   7.615   4.075  0.0948  1.0120  0.1638
   53MOL   H14223126   4.088   7.521   3.967  1.1803 -3.3627 -0.4639
   53MOL   H14323127   4.094   7.298   4.095  1.5697  0.3621  1.6546
   53MOL   H14423128   3.897   7.426   4.277  0.9888 -0.1026  0.9193
   53MOL   H14523129   3.856   7.297   4.175  0.7253 -0.8412  0.5236
   53MOL   H14623130   4.028   7.151   4.274  1.1353  0.3419 -0.1313
   53MOL   H14723131   3.916   7.201   4.398  0.9024  1.1580  1.5747
   53MOL   H14823132   4.089   7.377   4.482 -0.5007 -0.9456  0.9095
   53MOL   H14923133   4.147   7.215   4.474 -0.1249  0.6288  0.2160
   53MOL   H15023134   4.276   7.276   4.276 -0.4913  1.2641 -3.3941
   53MOL   H15123135   4.304   7.411   4.382 -2.1391  1.1748  0.6620
   53MOL   H15223136   4.126   7.540   4.271  0.0657  0.8787 -2.2615
   53MOL   H15323137   4.242   7.489   4.164  0.5705 -1.0280 -0.5701
   53MOL   H15423138   3.985   7.640   4.169 -0.5001 -1.1349  1.0792
   53MOL   H15523139   3.841   7.579   4.110  0.4140  1.1443  1.1853
   53MOL   C15623140   3.931   7.742   3.982  0.0843  0.4782 -0.6774
   53MOL   C15723141   4.064   0.025   3.908  0.4694  0.4411 -0.4665
   53MOL   C15823142   4.193   0.025   3.996  0.0469  0.4278  0.1973
   53MOL   C15923143   4.317   0.074   3.923  0.2805 -0.2600  0.2770
   53MOL   C16023144   4.337   7.761   3.791 -0.6446 -0.0449  0.2650
   53MOL   C16123145   4.217   0.011   3.701  0.8859  0.1353  0.4209
   53MOL   C16223146   4.091   7.732   3.773  0.3038  0.4835 -1.0185
   53MOL   C16323147   3.851   0.083   4.062 -0.0601  0.4153 -0.2337
   53MOL   H16423148   3.870   7.709   3.898 -1.3135  3.3505 -0.8412
   53MOL   H16523149   4.041   0.128   3.882  1.1733  0.9130  0.7208
   53MOL   H16623150   4.167   0.088   4.080  0.1797  1.0883 -0.2529
   53MOL   H16723151   4.216   7.701   4.042 -0.5174  0.0309 -0.3380
   53MOL   H16823152   4.308   0.179   3.898  0.6955 -0.7199 -1.9352
   53MOL   H16923153   4.404   0.061   3.988  1.2032 -0.0453 -0.8979
   53MOL   H17023154   4.362   7.658   3.816  4.0821  0.8875 -0.0229
   53MOL   H17123155   4.433   0.025   3.754  0.5279 -0.7982  2.4882
   53MOL   H17223156   4.227   7.728   3.608 -0.5248  0.0372  0.3097
   53MOL   H17323157   4.202   0.118   3.686  1.3434  0.7585  3.9827
   53MOL   H17423158   4.017   7.744   3.694 -1.9034  3.6058  1.4442
   53MOL   H17523159   4.103   7.625   3.790 -0.5406  0.8064  1.8728
   53MOL   H17623160   3.927   0.141   4.113  0.2151  0.2880 -0.5017
   53MOL   H17723161   3.789   0.039   4.141  0.5221  0.0679  0.0336
   53MOL   C17823162   3.752   0.175   3.980 -0.2394  0.3318  0.0588
   53MOL   C17923163   3.611   0.113   3.974 -0.8695 -0.0851  0.1669
   53MOL   C18023164   3.608   7.740   3.917  0.0405 -0.1932  0.5316
   53MOL   C18123165   3.473   7.674   3.928  0.6580 -0.6502 -0.0204
   53MOL   C18223166   3.352   7.758   3.869  0.3993 -0.2784 -0.7295
   53MOL   C18323167   3.357   0.120   3.937  0.3626 -0.3640  0.2879
   53MOL   C18423168   3.486   0.195   3.913 -0.5150 -0.1231  0.8213
   53MOL   C18523169   3.764   0.321   4.028  0.7330  0.0310  0.0717
   53MOL   H18623170   3.781   0.177   3.876 -1.6831  0.4366 -0.3531
   53MOL   H18723171   3.582   0.100   4.079 -1.0587 -0.3241  0.0855
   53MOL   H18823172   3.625   7.747   3.810 -0.6556 -1.0870  0.3574
   53MOL   H18923173   3.683   7.671   3.957  1.3101  1.0760  0.4046
   53MOL   H19023174   3.453   7.659   4.034  0.7231  0.0684  0.0976
   53MOL   H19123175   3.475   7.584   3.866 -1.9293  0.9977 -2.6779
   53MOL   H19223176   3.362   7.766   3.761 -1.0627  1.0223 -0.7867
   53MOL   H19323177   3.268   7.694   3.896  0.2058 -0.0019 -0.6738
   53MOL   H19423178   3.329   0.117   4.043 -0.7487 -0.6782 -0.0100
   53MOL   H19523179   3.274   0.176   3.895  1.0820 -0.4620 -1.2787
   53MOL   H19623180   3.512   0.227   3.812  0.7532  0.8200  1.4386
   53MOL   H19723181   3.478   0.291   3.964  3.4669  0.3370  0.6809
   53MOL   H19823182   3.685   0.383   3.987  1.3158 -0.1601 -1.3741
   53MOL   H19923183   3.743   0.316   4.134  0.1041  0.1223 -0.0468
   53MOL   C20023184   3.898   0.398   4.006  0.3059  0.3030 -0.3520
   53MOL   C20123185   3.934   0.436   3.863  0.5339 -0.0481 -0.6163
   53MOL   C20223186   3.845   0.550   3.818 -0.1311 -0.2677 -0.6816
   53MOL   C20323187   3.860   0.578   3.675  0.3769  0.2495 -0.5834
   53MOL   C20423188   4.003   0.614   3.644  0.2337 -0.2842  0.4955
   53MOL   C20523189   4.105   0.503   3.670  0.0962  0.0612  0.4386
   53MOL   C20623190   4.082   0.450   3.819 -0.1301  0.0986 -0.3045
   53MOL   C20723191   3.915   0.518   4.105  0.3556 -0.4093 -0.1184
   53MOL   H20823192   3.981   0.329   4.024  1.4833  1.8415  0.3369
   53MOL   H20923193   3.920   0.345   3.805  0.8968  1.1121 -2.5697
   53MOL   H21023194   3.875   0.636   3.879  1.3952 -0.9620 -0.4371
   53MOL   H21123195   3.741   0.520   3.829 -0.1436  0.4511  1.4728
   53MOL   H21223196   3.828   0.497   3.610 -1.1876  0.0156  0.4575
   53MOL   H21323197   3.801   0.664   3.643  0.2330 -0.3715 -2.0043
   53MOL   H21423198   4.016   0.649   3.542 -0.7486  0.5474  0.6491
   53MOL   H21523199   4.037   0.700   3.703 -3.0796 -0.1224  2.2977
   53MOL   H21623200   4.089   0.434   3.588 -0.1818  1.4233 -0.6705
   53MOL   H21723201   4.206   0.544   3.664 -0.4042  1.0281 -2.1643
   53MOL   H21823202   4.139   0.357   3.828 -0.8548 -0.4133 -0.9881
   53MOL   H21923203   4.128   0.523   3.887 -0.6304  0.9184 -0.8406
   53MOL   H22023204   3.968   0.602   4.060 -1.3610  1.6305  1.5328
   53MOL   H22123205   3.818   0.561   4.128  0.8644 -0.4457  2.2570
   53MOL   C22223206   3.964   0.472   4.241  0.7101 -0.9819 -0.0986
   53MOL   C22323207   4.120   0.428   4.236 -0.0125 -0.2301 -0.4346
   53MOL   C22423208   4.144   0.305   4.324 -0.0433 -0.1055  0.2054
   53MOL   C22523209   4.286   0.250   4.308 -1.5212  0.2957 -0.0971
   53MOL   C22623210   4.394   0.361   4.333  0.2037  0.6344 -0.1073
   53MOL   C22723211   4.371   0.485   4.246 -0.3673  0.2845 -0.4033
   53MOL   C22823212   4.222   0.537   4.265 -0.2637  0.1150 -0.3685
   53MOL   C22923213   3.926   0.567   4.355  1.4558 -0.4238 -0.5130
   53MOL   H23023214   3.904   0.381   4.253 -1.3064 -0.0375 -2.4718
   53MOL   H23123215   4.138   0.404   4.131 -0.1706  1.6372 -0.9013
   53MOL   H23223216   4.130   0.329   4.430  0.9368 -1.7753  0.7411
   53MOL   H23323217   4.070   0.229   4.299  0.6105 -0.9573  0.8104
   53MOL   H23423218   4.310   0.201   4.213 -2.0358 -0.6902  0.2777
   53MOL   H23523219   4.298   0.169   4.380  0.5653 -0.5656 -1.3393
   53MOL   H23623220   4.401   0.383   4.439 -1.1896 -0.9140  0.3174
   53MOL   H23723221   4.492   0.315   4.320 -0.4501 -0.9530  0.4185
   53MOL   H23823222   4.379   0.465   4.139 -0.2962  1.0068 -0.5368
   53MOL   H23923223   4.451   0.555   4.270  1.6185 -2.6202  1.7828
   53MOL   H24023224   4.222   0.550   4.373  0.9500 -1.7481 -0.1142
   53MOL   H24123225   4.198   0.634   4.220  0.2618 -0.2200 -1.4015
   53MOL   H24223226   3.936   0.675   4.342  2.1452 -0.3124  0.8138
   53MOL   H24323227   4.011   0.568   4.423  0.5662 -1.6193  0.6368
   53MOL   C24423228   3.813   0.523   4.438 -0.0010 -0.4422  0.0169
   53MOL   C24523229   3.735   0.635   4.497  0.5096  0.1574 -0.5566
   53MOL   C24623230   3.673   0.730   4.387  0.1082 -0.4060  0.5264
   53MOL   C24723231   3.563   0.830   4.443  0.5324 -0.2954  0.1422
   53MOL   C24823232   3.614   0.902   4.564  0.5022 -0.2368  0.1950
   53MOL   C24923233   3.690   0.813   4.667 -0.5535  0.2971 -0.1170
   53MOL   C25023234   3.793   0.717   4.604 -1.0983  0.2323  0.1946
   53MOL   C25123235   3.859   0.408   4.530 -0.4170  0.0269  0.3516
   53MOL   H25223236   3.748   0.479   4.362 -0.9207  0.2740  0.3792
   53MOL   H25323237   3.653   0.579   4.543  0.0390  1.0788 -0.2544
   53MOL   H25423238   3.632   0.674   4.303 -0.7112 -1.0854  1.3677
   53MOL   H25523239   3.748   0.794   4.340 -0.2103 -0.7932 -0.5239
   53MOL   H25623240   3.544   0.894   4.357 -3.0721 -2.3839 -0.7478
   53MOL   H25723241   3.469   0.776   4.459 -0.1571  0.6599 -0.6490
   53MOL   H25823242   3.674   0.986   4.530  1.1258  1.0552  4.2111
   53MOL   H25923243   3.532   0.943   4.624 -0.9904 -1.0047 -1.2648
   53MOL   H26023244   3.623   0.739   4.711  1.2305 -2.1270 -1.3147
   53MOL   H26123245   3.738   0.871   4.746 -1.8709 -0.4621  1.2746
   53MOL   H26223246   3.868   0.785   4.563  0.1219 -1.4710 -0.4919
   53MOL   H26323247   3.847   0.661   4.681  1.9339  1.0431 -1.2656
   53MOL   H26423248   3.925   0.447   4.608 -0.0798  2.8273 -1.2805
   53MOL   H26523249   3.922   0.340   4.472  0.3892  0.4343  0.7388
   53MOL   C26623250   3.753   0.306   4.590  0.1399  0.1658  0.5213
   53MOL   C26723251   3.795   0.165   4.574 -0.4339 -0.3535 -0.3498
   53MOL   C26823252   3.931   0.124   4.620  0.0295 -0.0317 -0.4106
   53MOL   C26923253   3.958   7.754   4.639 -0.0259 -0.0508  0.5845
   53MOL   C27023254   3.933   7.673   4.509 -0.2492 -0.6895  0.2022
   53MOL   C27123255   3.794   7.715   4.453  0.1943 -0.2503 -0.1924
   53MOL   C27223256   3.780   0.099   4.434  0.0590 -0.5494 -0.3470
   53MOL   C27323257   3.691   0.348   4.727 -0.1462 -0.7573 -0.2834
   53MOL   H27423258   3.668   0.312   4.523 -0.9034  0.6471  1.8511
   53MOL   H27523259   3.728   0.102   4.632 -1.0917  1.0769  0.4723
   53MOL   H27623260   4.009   0.168   4.558 -0.4104  0.6254 -0.4953
   53MOL   H27723261   3.944   0.174   4.717  0.8109  1.8000 -1.4355
   53MOL   H27823262   3.905   7.711   4.725 -0.0330 -0.4003  0.4057
   53MOL   H27923263   4.065   7.741   4.651 -0.7141 -4.3690  3.1457
   53MOL   H28023264   4.010   7.698   4.435 -2.0049  1.0032 -1.0870
   53MOL   H28123265   3.937   7.566   4.529 -1.3283 -0.6400  0.6907
   53MOL   H28223266   3.714   7.681   4.519 -0.0165 -1.2739 -0.9769
   53MOL   H28323267   3.781   7.668   4.356  0.4837 -0.1468 -0.2829
   53MOL   H28423268   3.685   0.116   4.383  0.1805 -0.0296 -0.4024
   53MOL   H28523269   3.856   0.130   4.363  2.6504  0.4914  2.7360
   53MOL   H28623270   3.684   0.455   4.749 -0.7495 -0.7328 -0.5806
   53MOL   H28723271   3.776   0.325   4.792 -0.1280 -1.5501 -0.5870
   53MOL   C28823272   3.557   0.287   4.777  0.0031  0.8999  0.0812
   53MOL   C28923273   3.431   0.346   4.699  0.4134  0.0008  0.0763
   53MOL   C29023274   3.297   0.278   4.727 -0.6579  0.1644 -0.4543
   53MOL   C29123275   3.186   0.320   4.627 -0.3586  0.0543 -0.3885
   53MOL   C29223276   3.169   0.477   4.616 -0.5172  0.4897  0.4611
   53MOL   C29323277   3.307   0.549   4.613  0.0577 -0.1212 -0.4046
   53MOL   C29423278   3.409   0.495   4.715 -0.6729  0.1338 -0.4042
   53MOL   C29523279   3.532   0.297   4.929  0.0222  0.4744 -0.5560
   53MOL   H29623280   3.548   0.186   4.735 -1.8956 -0.2713  3.1775
   53MOL   H29723281   3.445   0.335   4.592  0.2793  0.1208  0.0474
   53MOL   H29823282   3.294   0.170   4.738 -3.2197  0.1781 -0.5756
   53MOL   H29923283   3.256   0.302   4.825  0.0339 -1.4902  0.2607
   53MOL   H30023284   3.220   0.282   4.530  1.0891  2.8012 -1.0123
   53MOL   H30123285   3.091   0.280   4.662  0.1648  0.0125  0.9973
   53MOL   H30223286   3.116   0.516   4.703 -0.4496  1.7369 -0.0365
   53MOL   H30323287   3.119   0.502   4.523  0.9565 -0.1893 -0.5406
   53MOL   H30423288   3.293   0.657   4.617  2.6588  0.3735 -2.5960
   53MOL   H30523289   3.356   0.528   4.518  1.1593 -1.7243  0.4854
   53MOL   H30623290   3.402   0.530   4.818  2.7710 -3.0743  1.0653
   53MOL   H30723291   3.495   0.547   4.673  0.5273 -0.7418  0.9234
   53MOL   H30823292   3.511   0.401   4.952 -1.2864  0.1926 -0.4208
   53MOL   H30923293   3.440   0.240   4.945  1.2607 -1.3120  0.3912
   53MOL   C31023294   3.630   0.227   5.035  0.0208 -0.0197  0.0263
   53MOL   C31123295   3.667   0.085   4.984 -1.1495 -0.2812 -0.1132
   53MOL   C31223296   3.780   0.021   5.077  0.7228  0.0280 -0.2702
   53MOL   C31323297   3.817   7.645   5.047 -0.8188 -0.2683  0.5870
   53MOL   C31423298   3.695   7.552   5.020  0.2850  0.2431  0.3302
   53MOL   C31523299   3.605   7.613   4.919 -0.5408  0.1057 -0.0570
   53MOL   C31623300   3.557   7.758   4.943 -0.3654  0.4894  0.0754
   53MOL   C31723301   3.741   0.316   5.088 -0.7813 -0.1887 -0.5425
   53MOL   H31823302   3.570   0.209   5.124 -0.3593 -4.0028 -0.9399
   53MOL   H31923303   3.721   0.083   4.889  1.0098 -2.3137  1.1200
   53MOL   H32023304   3.874   0.075   5.079 -0.4703  2.1275  2.0881
   53MOL   H32123305   3.739   0.027   5.178  2.2127 -1.7814  0.4643
   53MOL   H32223306   3.873   7.615   5.136  1.0069  0.5190 -0.2598
   53MOL   H32323307   3.888   7.646   4.964 -0.8074 -0.1913  0.5984
   53MOL   H32423308   3.737   7.452   5.005  2.0129  0.9904  0.1562
   53MOL   H32523309   3.643   7.532   5.114  0.5972  1.6751  0.8108
   53MOL   H32623310   3.649   7.612   4.819 -2.5890 -1.5444 -1.0054
   53MOL   H32723311   3.517   7.550   4.902 -0.7731  0.9223 -2.0880
   53MOL   H32823312   3.481   7.772   5.020 -2.1754  0.1253 -1.6145
   53MOL   H32923313   3.498   0.005   4.854 -1.7144  1.5277  1.1545
   53MOL   H33023314   3.740   0.412   5.037  3.6067  1.3680  2.0459
   53MOL   H33123315   3.835   0.265   5.065  0.0443  1.2568 -0.4783
   53MOL   C33223316   3.741   0.338   5.244  0.0276  0.6167 -0.5863
   53MOL   C33323317   3.617   0.423   5.278 -0.2136 -0.0483  0.4209
   53MOL   C33423318   3.645   0.568   5.237 -0.1185 -0.3464  1.3075
   53MOL   C33523319   3.523   0.650   5.248  0.2953 -0.2235  0.8018
   53MOL   C33623320   3.469   0.648   5.394 -0.0331 -0.3755 -0.3958
   53MOL   C33723321   3.450   0.509   5.461 -0.4528 -0.3942  0.5424
   53MOL   C33823322   3.574   0.421   5.424 -0.2267 -0.0637  0.4270
   53MOL   C33923323   3.874   0.401   5.307 -0.4864 -0.3470 -0.3815
   53MOL   H34023324   3.728   0.242   5.294 -1.8635  0.8014 -0.6794
   53MOL   H34123325   3.533   0.388   5.218  1.3174  0.7322 -2.2626
   53MOL   H34223326   3.726   0.613   5.296  1.9660 -0.7304 -1.1653
   53MOL   H34323327   3.678   0.570   5.133  0.2492  0.5978  1.4395
   53MOL   H34423328   3.557   0.753   5.249 -0.7995  0.1664 -0.9083
   53MOL   H34523329   3.451   0.641   5.167  2.2114 -0.1392 -0.9693
   53MOL   H34623330   3.545   0.702   5.451  0.3389 -2.2376  0.9184
   53MOL   H34723331   3.381   0.712   5.394 -0.4630 -0.9474  1.0528
   53MOL   H34823332   3.354   0.468   5.429  1.0014 -1.8856 -2.1374
   53MOL   H34923333   3.448   0.543   5.564 -1.6487 -0.3522  0.5144
   53MOL   H35023334   3.542   0.320   5.451  0.5134 -0.1138  1.1281
   53MOL   H35123335   3.653   0.437   5.497 -1.2054  2.0310  1.0568
   53MOL   H35223336   3.848   0.446   5.403 -0.0831 -0.3079 -0.2918
   53MOL   H35323337   3.897   0.487   5.245  0.5897 -0.5747 -0.3137
   53MOL   C35423338   3.994   0.300   5.324 -0.7492  0.1709 -0.0989
   53MOL   C35523339   3.975   0.189   5.437 -0.1345  0.7826  0.0143
   53MOL   C35623340   3.931   0.239   5.582 -0.2935 -0.1675  0.2292
   53MOL   C35723341   3.909   0.123   5.685  0.0754 -0.5739 -0.6551
   53MOL   C35823342   4.032   0.027   5.683  0.4507 -0.0581  0.3201
   53MOL   C35923343   4.054   7.744   5.538 -0.1563 -0.4635 -0.1597
   53MOL   C36023344   4.091   0.090   5.444 -0.3259 -0.3713 -0.4480
   53MOL   C36123345   4.131   0.368   5.331  0.4949  0.3089  0.1563
   53MOL   H36223346   3.994   0.236   5.236  0.7296  1.8617 -1.3534
   53MOL   H36323347   3.887   0.127   5.419  1.0167 -0.7225 -0.5132
   53MOL   H36423348   3.836   0.292   5.573 -0.0134  0.2649 -0.2122
   53MOL   H36523349   3.997   0.321   5.611 -1.0188  0.8427 -0.9308
   53MOL   H36623350   3.896   0.161   5.786 -0.9597 -0.7695 -0.7066
   53MOL   H36723351   3.817   0.066   5.676 -0.8728  1.3822 -4.0867
   53MOL   H36823352   4.128   0.065   5.718 -0.0554  1.1948  0.3459
   53MOL   H36923353   4.019   7.715   5.752  1.1859  1.1604  1.9788
   53MOL   H37023354   4.139   7.676   5.546  1.3838  1.4267 -0.0936
   53MOL   H37123355   3.970   7.683   5.505 -0.5966 -0.8065  1.5122
   53MOL   H37223356   4.102   0.048   5.344  2.1745  1.3645 -0.9411
   53MOL   H37323357   4.187   0.135   5.468 -1.2956  0.3094  2.2834
   53MOL   H37423358   4.204   0.305   5.382  0.7660  0.3395 -0.1898
   53MOL   H37523359   4.116   0.468   5.371  0.9529  0.6830 -0.6026
   53MOL   C37623360   4.195   0.382   5.197  0.1586  0.0763  0.1518
   53MOL   C37723361   4.286   0.507   5.174  0.3433 -0.2111 -0.7185
   53MOL   C37823362   4.414   0.522   5.263  0.5418 -0.4569 -0.0029
   53MOL   C37923363   4.491   0.655   5.232  0.4236 -0.1382  0.3440
   53MOL   C38023364   4.400   0.777   5.234 -0.1901  0.1648  0.7550
   53MOL   C38123365   4.289   0.768   5.124  0.6601  0.8063 -0.4838
   53MOL   C38223366   4.204   0.641   5.165  0.3500 -0.8480 -0.3620
   53MOL   C38323367   4.246   0.243   5.145 -0.0127  0.6581 -0.1163
   53MOL   H38423368   4.107   0.402   5.137  0.4089 -0.4081 -0.3740
   53MOL   H38523369   4.323   0.505   5.072  1.1888  1.9196 -0.4821
   53MOL   H38623370   4.377   0.515   5.366 -1.1037  0.6100 -0.4998
   53MOL   H38723371   4.486   0.441   5.250  1.3352 -0.1365  2.1137
   53MOL   H38823372   4.534   0.651   5.132 -0.5286 -1.8593 -0.0228
   53MOL   H38923373   4.568   0.675   5.306  2.4176 -1.8672 -1.2112
   53MOL   H39023374   4.349   0.803   5.327 -1.9468  1.2746 -0.4825
   53MOL   H39123375   4.458   0.866   5.210  0.3478 -0.4316 -0.2099
   53MOL   H39223376   4.234   0.862   5.124  0.2912  0.5918 -0.4090
   53MOL   H39323377   4.341   0.750   5.030 -2.4302 -1.1967 -1.9069
   53MOL   H39423378   4.147   0.655   5.256 -0.5830  0.4696 -1.1333
   53MOL   H39523379   4.128   0.621   5.090 -0.1790 -1.8489  0.4397
   53MOL   H39623380   4.225   0.173   5.226 -2.5518 -0.6953 -1.8732
   53MOL   H39723381   4.355   0.245   5.138  0.0411  0.0980  0.5112
   53MOL   C39823382   4.182   0.197   5.007  0.0357 -0.2520 -0.0909
   53MOL   C39923383   4.220   0.275   4.875 -0.7607  0.5237  0.0742
   53MOL   C40023384   4.146   0.406   4.849 -0.0429 -0.7162 -0.2311
   53MOL   C40123385   4.192   0.475   4.714  0.3038  0.0844  0.0698
   53MOL   C40223386   4.341   0.511   4.719  0.1503  0.7557  0.7233
   53MOL   C40323387   4.421   0.374   4.730 -0.1643 -0.9102  0.2340
   53MOL   C40423388   4.375   0.298   4.860 -0.3439 -0.3629 -0.2060
   53MOL   C40523389   4.173   0.040   4.993 -0.3265 -0.2515 -0.1205
   53MOL   H40623390   4.078   0.228   5.018 -0.5310 -2.5226  1.4634
   53MOL   H40723391   4.198   0.214   4.787  0.2198 -0.4769  0.5113
   53MOL   H40823392   4.153   0.464   4.941  0.1619 -1.3148  0.1313
   53MOL   H40923393   4.047   0.370   4.820  0.6039 -2.9669  0.2386
   53MOL   H41023394   4.132   0.565   4.702  0.1744  0.2184  1.5597
   53MOL   H41123395   4.181   0.398   4.638 -0.4289 -0.1781  0.4404
   53MOL   H41223396   4.364   0.579   4.801  0.2315  2.3072 -0.5662
   53MOL   H41323397   4.363   0.550   4.620 -1.7326  0.0662  0.0149
   53MOL   H41423398   4.410   0.314   4.640 -1.3648 -0.5102  0.1087
   53MOL   H41523399   4.527   0.397   4.741  0.6552 -1.4418 -5.1206
   53MOL   H41623400   4.415   0.196   4.862 -2.1015 -1.0537 -0.0519
   53MOL   H41723401   4.409   0.350   4.950  0.7109 -3.5411  1.2974
   53MOL   H41823402   4.101   0.004   5.067 -2.8431  1.7506 -1.5119
   53MOL   H41923403   4.120   0.022   4.899  1.6923 -1.1182 -1.1276
   53MOL   C42023404   4.302   7.721   5.009 -0.0049 -0.2827 -0.4175
   53MOL   C42123405   4.333   7.641   4.884  0.2297  0.1721  0.2918
   53MOL   C42223406   4.240   7.521   4.855 -0.7161 -0.3247  0.0172
   53MOL   C42323407   4.279   7.447   4.728  0.6971  0.2760 -0.1675
   53MOL   C42423408   4.419   7.387   4.740  0.4049 -0.0292 -0.1402
   53MOL   C42523409   4.520   7.504   4.763  1.3487 -0.0500  0.4741
   53MOL   C42623410   4.480   7.590   4.888 -0.0001  0.3093 -0.3996
   53MOL   C42723411   4.292   7.647   5.147 -0.1135 -0.9391 -0.0743
   53MOL   H42823412   4.386   0.018   5.012  0.2317 -0.5618 -0.5669
   53MOL   H42923413   4.326   7.717   4.806  0.5557 -0.5349 -0.4358
   53MOL   H43023414   4.246   7.456   4.943  1.7393 -0.5981 -0.3052
   53MOL   H43123415   4.137   7.555   4.861 -0.8758 -0.8368  0.1511
   53MOL   H43223416   4.205   7.369   4.711 -0.6826  1.4422  0.3678
   53MOL   H43323417   4.282   7.518   4.645  0.2390  1.0528  0.4760
   53MOL   H43423418   4.453   7.338   4.649  0.6195  2.7892 -1.6567
   53MOL   H43523419   4.419   7.309   4.816 -1.1137  1.2447  1.2048
   53MOL   H43623420   4.517   7.577   4.682 -0.5624 -2.1190 -1.4017
   53MOL   H43723421   4.623   7.470   4.766  2.0183  2.0332  1.9287
   53MOL   H43823422   4.488   7.532   4.980 -0.8093  0.5168 -0.1958
   53MOL   H43923423   4.544   7.677   4.901  0.1593  0.0231  0.7651
   53MOL   H44023424   4.228   7.559   5.145 -0.0591 -0.9858  0.1757
   53MOL   H44123425   4.383   7.613   5.196 -0.5949  0.8872  2.1967
   53MOL   H44223426   4.252   7.718   5.220  0.4109 -2.4804  1.7639
   54MOL     C123427   2.957   0.731   6.235  0.9039 -0.9491  0.3541
   54MOL     C223428   3.098   0.795   6.251 -0.0677  0.1873  0.1810
   54MOL     C323429   3.140   0.898   6.145 -0.3921 -0.1555  0.2869
   54MOL     C423430   3.279   0.954   6.171  0.1081  0.5592 -0.1526
   54MOL     C523431   3.385   0.846   6.192 -0.2294  0.0973  0.1733
   54MOL     C623432   3.336   0.736   6.281  0.0635  0.5334  0.4287
   54MOL     C723433   3.204   0.679   6.238  0.2544  0.1606 -0.1465
   54MOL     C823434   2.844   0.800   6.305 -0.0396 -0.8056 -0.4836
   54MOL     H923435   2.954   0.709   6.128  0.6237  1.5022 -0.1863
   54MOL    H1023436   3.108   0.841   6.349  3.0126  1.2178 -0.5909
   54MOL    H1123437   3.137   0.854   6.046 -0.0323 -0.3205  0.3494
   54MOL    H1223438   3.071   0.982   6.145 -1.4747 -1.0239 -1.0112
   54MOL    H1323439   3.267   1.011   6.263 -1.8607  0.7035 -0.4940
   54MOL    H1423440   3.309   1.021   6.091  0.1362  0.2389 -0.4112
   54MOL    H1523441   3.474   0.890   6.236  0.8721  0.7742 -2.5969
   54MOL    H1623442   3.421   0.818   6.093  2.1264  2.3935  0.3305
   54MOL    H1723443   3.409   0.655   6.274  0.8900  1.2405  0.7213
   54MOL    H1823444   3.331   0.776   6.382 -2.4307  2.3139 -0.3535
   54MOL    H1923445   3.181   0.593   6.301  3.6753 -0.6331  0.1228
   54MOL    H2023446   3.194   0.637   6.138  0.7120 -0.6413  0.1407
   54MOL    H2123447   2.869   0.787   6.411 -1.2891 -0.3269 -0.1189
   54MOL    H2223448   2.752   0.743   6.296 -0.4138 -0.3158  0.1332
   54MOL    H2323449   2.966   0.631   6.278  0.7391 -0.6537  1.0810
   54MOL    C2423450   2.801   0.950   6.275  0.1142  0.0588 -0.4292
   54MOL    C2523451   2.771   0.972   6.121 -0.2331  0.5524  0.0418
   54MOL    C2623452   2.742   1.116   6.083  0.5197 -0.0379  0.0059
   54MOL    C2723453   2.685   1.134   5.943 -0.6246  0.0551 -0.0706
   54MOL    C2823454   2.568   1.039   5.904 -0.1473 -0.0217  0.3832
   54MOL    C2923455   2.610   0.895   5.934  0.0889 -0.5598 -0.5163
   54MOL    C3023456   2.672   0.872   6.070  0.5844 -0.4233 -0.4312
   54MOL    C3123457   2.683   0.983   6.373 -0.1587  0.4462 -0.3039
   54MOL    H3223458   2.884   1.018   6.296 -0.0350  0.4664 -1.1276
   54MOL    H3323459   2.861   0.948   6.066  0.5428  0.5861  1.2846
   54MOL    H3423460   2.824   1.179   6.117  1.0433 -0.6760 -0.0657
   54MOL    H3523461   2.657   1.138   6.148 -0.4667  0.2573 -1.3648
   54MOL    H3623462   2.656   1.239   5.938  1.0877  0.5050 -1.1362
   54MOL    H3723463   2.766   1.137   5.870 -0.9319 -0.6613 -0.4479
   54MOL    H3823464   2.545   1.057   5.799 -1.0094 -0.9521  0.4134
   54MOL    H3923465   2.473   1.058   5.953 -1.2511 -1.1209 -1.2822
   54MOL    H4023466   2.523   0.830   5.932 -0.1473 -0.3173  0.8971
   54MOL    H4123467   2.683   0.861   5.861  0.8619  0.1505 -0.0892
   54MOL    H4223468   2.592   0.861   6.144  0.0466  2.7580 -0.5051
   54MOL    H4323469   2.714   0.772   6.057 -2.2208 -1.7024 -0.0717
   54MOL    H4423470   2.591   0.931   6.347 -0.8211  1.4476  0.0073
   54MOL    H4523471   2.652   1.087   6.363 -0.2041  0.5598  1.0532
   54MOL    C4623472   2.706   0.961   6.520  0.4864  1.0772  1.3885
   54MOL    C4723473   2.583   0.994   6.611  0.0175 -0.9563  0.2125
   54MOL    C4823474   2.455   0.908   6.588  0.4745  0.2592 -0.3401
   54MOL    C4923475   2.347   0.940   6.702  0.0983  0.0177 -0.8951
   54MOL    C5023476   2.316   1.089   6.701 -0.1680 -0.6509  0.0966
   54MOL    C5123477   2.443   1.178   6.713 -0.0097  0.0157  0.7349
   54MOL    C5223478   2.558   1.145   6.614  0.1603  0.3331  0.1563
   54MOL    C5323479   2.834   1.022   6.581  0.2616 -0.9145 -0.8616
   54MOL    H5423480   2.714   0.853   6.526 -0.8874  1.0368  2.7708
   54MOL    H5523481   2.620   0.964   6.709 -0.3015 -2.4790 -0.1171
   54MOL    H5623482   2.405   0.930   6.494  0.9530 -0.6732 -0.8269
   54MOL    H5723483   2.470   0.800   6.584  0.7967  0.2959 -0.1154
   54MOL    H5823484   2.386   0.906   6.798  2.0807  1.4528 -1.1401
   54MOL    H5923485   2.250   0.892   6.689 -0.2447 -0.0455  1.5609
   54MOL    H6023486   2.276   1.118   6.604  0.4159  0.3968  0.1675
   54MOL    H6123487   2.238   1.118   6.772  1.3473  1.0726  1.0804
   54MOL    H6223488   2.483   1.162   6.813  0.9399 -3.5214 -0.1246
   54MOL    H6323489   2.407   1.278   6.689  0.8676 -0.1508 -1.4149
   54MOL    H6423490   2.513   1.164   6.516  1.7701  0.1306 -0.6298
   54MOL    H6523491   2.653   1.196   6.629  0.4478 -0.0674 -0.2774
   54MOL    H6623492   2.838   1.130   6.566  1.6246 -1.0611 -1.6564
   54MOL    H6723493   2.917   1.003   6.513 -1.5677 -0.1460 -3.3929
   54MOL    C6823494   2.873   0.982   6.729  0.3948  0.0720 -0.2386
   54MOL    C6923495   2.873   0.831   6.768 -0.6283 -0.3669  0.4874
   54MOL    C7023496   2.983   0.744   6.710  1.1306  0.1376 -0.4210
   54MOL    C7123497   2.945   0.597   6.751  0.4517  0.0250 -0.5901
   54MOL    C7223498   2.947   0.568   6.901 -0.3704  0.0858  0.3760
   54MOL    C7323499   2.840   0.656   6.962  0.1253  0.2031  0.2969
   54MOL    C7423500   2.868   0.808   6.926 -1.0438  0.1537 -0.2185
   54MOL    C7523501   3.010   1.045   6.768 -0.0924 -0.3460  0.2278
   54MOL    H7623502   2.800   1.028   6.795 -1.0675  0.5778 -2.1531
   54MOL    H7723503   2.782   0.778   6.740 -0.0842 -0.4630 -1.1185
   54MOL    H7823504   3.080   0.764   6.754  1.8938 -1.1802 -1.4768
   54MOL    H7923505   2.976   0.744   6.601 -3.2184  0.7753 -0.2564
   54MOL    H8023506   2.846   0.570   6.713  1.0075 -2.2886 -0.4636
   54MOL    H8123507   3.017   0.526   6.710  0.1502  0.7385 -2.3733
   54MOL    H8223508   3.045   0.598   6.939 -0.3502 -0.2706  0.6112
   54MOL    H8323509   2.931   0.464   6.929 -0.7320  0.1107  0.2564
   54MOL    H8423510   2.839   0.656   7.071  0.4354 -0.1784  0.2994
   54MOL    H8523511   2.745   0.624   6.919 -0.1483  0.9101  0.3623
   54MOL    H8623512   2.964   0.840   6.965 -0.3078 -0.1669 -1.7366
   54MOL    H8723513   2.796   0.869   6.981  0.5514  0.6211  1.4206
   54MOL    H8823514   3.055   0.990   6.851  0.5282  0.3352  0.3442
   54MOL    H8923515   3.071   1.036   6.678 -2.3854 -0.2388 -1.3794
   54MOL    C9023516   3.002   1.196   6.809 -0.5816 -0.6594 -0.1818
   54MOL    C9123517   2.956   1.213   6.955  0.5804 -0.1053 -0.7359
   54MOL    C9223518   3.060   1.179   7.068 -0.3526  0.6742  0.0614
   54MOL    C9323519   2.984   1.173   7.202 -0.1977  0.0336 -0.3794
   54MOL    C9423520   2.921   1.311   7.232  0.1106 -0.1385 -0.1807
   54MOL    C9523521   2.821   1.341   7.121 -0.2578  0.6771 -0.2257
   54MOL    C9623522   2.880   1.334   6.981 -0.1699 -0.6393  0.2446
   54MOL    C9723523   3.132   1.269   6.790  0.2216 -0.2585 -0.0500
   54MOL    H9823524   2.932   1.241   6.740 -1.8392 -4.0726 -1.2317
   54MOL    H9923525   2.872   1.145   6.970 -0.6368  1.1207 -1.8297
   54MOL   H10023526   3.147   1.244   7.066  0.5167 -0.4602  0.8469
   54MOL   H10123527   3.102   1.081   7.049  0.5830  1.2722 -1.0205
   54MOL   H10223528   3.042   1.137   7.287 -1.0612 -0.9476 -0.1929
   54MOL   H10323529   2.906   1.098   7.196  0.1602 -0.4595  1.0387
   54MOL   H10423530   3.002   1.383   7.241  0.8115 -0.8576 -0.6897
   54MOL   H10523531   2.874   1.291   7.328  2.0545 -0.1190  0.7813
   54MOL   H10623532   2.740   1.269   7.136  0.5734 -0.3017 -0.4765
   54MOL   H10723533   2.774   1.436   7.147  0.9611  0.8084  1.5659
   54MOL   H10823534   2.797   1.324   6.912 -1.9485  0.8442  2.1224
   54MOL   H10923535   2.939   1.423   6.957 -0.8058 -0.3323 -0.1833
   54MOL   H11023536   3.138   1.358   6.853 -1.2599 -0.3363  0.2155
   54MOL   H11123537   3.210   1.197   6.816  0.9547  0.5868  0.1216
   54MOL   C11223538   3.161   1.313   6.642  0.6492 -0.4643 -0.2934
   54MOL   C11323539   3.303   1.259   6.605 -0.3246  0.2682  0.5391
   54MOL   C11423540   3.426   1.308   6.684 -0.0878 -0.2843 -0.1257
   54MOL   C11523541   3.551   1.238   6.648 -0.3292 -0.0197  0.3607
   54MOL   C11623542   3.584   1.228   6.497  0.5013 -0.2668 -1.5152
   54MOL   C11723543   3.451   1.171   6.437 -0.5167 -0.3616 -0.1354
   54MOL   C11823544   3.328   1.259   6.459 -0.4465  0.2648  0.1352
   54MOL   C11923545   3.143   1.462   6.615  0.3187 -0.0963 -0.1520
   54MOL   H12023546   3.091   1.250   6.588  1.9612 -0.9989 -1.4062
   54MOL   H12123547   3.307   1.157   6.642 -1.0641  0.1005  0.1734
   54MOL   H12223548   3.401   1.295   6.789  2.1171 -0.9414  0.3428
   54MOL   H12323549   3.437   1.415   6.669 -1.5076 -0.0695  0.3555
   54MOL   H12423550   3.629   1.295   6.698  1.2787 -0.9159 -1.0582
   54MOL   H12523551   3.549   1.143   6.700 -0.4707 -0.6079 -0.6969
   54MOL   H12623552   3.610   1.327   6.459  1.3063  0.2250  0.2150
   54MOL   H12723553   3.677   1.173   6.484  0.9540  0.6059 -2.0329
   54MOL   H12823554   3.468   1.152   6.331 -3.3063  0.1346 -0.6998
   54MOL   H12923555   3.439   1.069   6.473  0.0920 -0.7747 -1.0857
   54MOL   H13023556   3.245   1.214   6.405  0.0595 -1.1762  0.5453
   54MOL   H13123557   3.350   1.361   6.428 -0.1558  0.0656 -0.3134
   54MOL   H13223558   3.193   1.467   6.518  1.7630 -1.3688  0.4941
   54MOL   H13323559   3.220   1.510   6.675  2.1029 -2.8092 -0.1713
   54MOL   C13423560   3.003   1.529   6.612  0.3956 -0.3419  0.1415
   54MOL   C13523561   2.905   1.450   6.514  0.0690  0.5821  0.6823
   54MOL   C13623562   2.966   1.453   6.369  0.2957 -0.4246  0.8739
   54MOL   C13723563   2.865   1.387   6.278 -0.1775  0.3450 -0.2041
   54MOL   C13823564   2.723   1.449   6.278 -0.0782 -0.5502 -0.5732
   54MOL   C13923565   2.669   1.429   6.419  0.0356  0.1291  0.6821
   54MOL   C14023566   2.761   1.498   6.518 -0.1545  0.3608  0.2085
   54MOL   C14123567   2.997   1.685   6.577  0.1446  0.1156  0.3111
   54MOL   H14223568   2.952   1.520   6.708  2.5461 -2.5546  1.1214
   54MOL   H14323569   2.898   1.347   6.550  2.3237  0.0489 -0.3338
   54MOL   H14423570   2.974   1.552   6.326 -1.7241  0.1079  1.6460
   54MOL   H14523571   3.065   1.407   6.360 -0.2599 -1.8160  1.6221
   54MOL   H14623572   2.844   1.287   6.315 -2.1148  0.7156 -0.2578
   54MOL   H14723573   2.907   1.376   6.178  0.7753  0.3872  0.1877
   54MOL   H14823574   2.730   1.556   6.261 -3.3759 -0.1905  0.0117
   54MOL   H14923575   2.661   1.402   6.202 -0.4645  0.2463 -0.7481
   54MOL   H15023576   2.664   1.321   6.437  1.7284 -0.3214 -1.3266
   54MOL   H15123577   2.565   1.462   6.420 -0.2626 -0.7966  2.4751
   54MOL   H15223578   2.754   1.605   6.497  1.0867  0.5796  0.8302
   54MOL   H15323579   2.723   1.487   6.620  0.0655 -2.0231  0.0539
   54MOL   H15423580   2.900   1.728   6.600  0.2219  1.7604 -2.2156
   54MOL   H15523581   3.011   1.691   6.469  0.8939  0.2552  0.4155
   54MOL   C15623582   3.108   1.768   6.650 -0.4163 -0.1822  0.4342
   54MOL   C15723583   3.100   1.756   6.803  0.0232  0.5170 -0.0949
   54MOL   C15823584   3.227   1.802   6.875  0.1160 -0.5882 -0.0588
   54MOL   C15923585   3.226   1.777   7.030 -0.2491  0.0376 -0.0823
   54MOL   C16023586   3.100   1.839   7.087  0.5092  0.1537  0.4619
   54MOL   C16123587   2.976   1.770   7.015  0.1137  0.0329 -0.9460
   54MOL   C16223588   2.967   1.809   6.871  0.4078 -0.1901 -0.1772
   54MOL   C16323589   3.108   1.911   6.599  0.3777  0.0505  0.2475
   54MOL   H16423590   3.203   1.719   6.629  0.5430  1.6825  0.3427
   54MOL   H16523591   3.100   1.649   6.824 -1.3126  0.1207 -1.9452
   54MOL   H16623592   3.314   1.748   6.837  0.9827  0.1916  0.7956
   54MOL   H16723593   3.242   1.909   6.861 -0.5805 -0.5169 -0.2336
   54MOL   H16823594   3.231   1.674   7.062  1.3940 -0.1165 -0.7889
   54MOL   H16923595   3.306   1.831   7.081 -0.4188 -0.0439  0.2665
   54MOL   H17023596   3.098   1.947   7.076  0.5336 -0.0539 -1.7613
   54MOL   H17123597   3.112   1.808   7.191  0.4617 -0.9963  0.1372
   54MOL   H17223598   2.880   1.798   7.059  1.8219  1.4831  2.0759
   54MOL   H17323599   2.987   1.661   7.013 -0.4621 -0.0048 -2.4206
   54MOL   H17423600   2.882   1.759   6.823  0.6508 -2.6636  1.8382
   54MOL   H17523601   2.946   1.913   6.849 -0.7610 -0.6021 -1.0529
   54MOL   H17623602   3.193   1.967   6.641  0.8578 -0.0166 -0.6160
   54MOL   H17723603   3.025   1.966   6.643  0.6173  1.4859 -1.0392
   54MOL   C17823604   3.111   1.946   6.441  0.0260  0.4519  0.3673
   54MOL   C17923605   3.131   2.098   6.422  0.0532  0.0633 -0.1401
   54MOL   C18023606   3.066   2.156   6.294 -0.2135 -0.4930  0.3427
   54MOL   C18123607   3.084   2.309   6.285  0.2276 -0.3586  0.2716
   54MOL   C18223608   3.225   2.363   6.303 -0.0103  0.3366  0.3123
   54MOL   C18323609   3.289   2.308   6.427 -0.3956 -0.9084  0.6576
   54MOL   C18423610   3.281   2.158   6.432 -0.8435 -0.4812 -0.3526
   54MOL   C18523611   3.224   1.863   6.380  0.3185 -0.0337 -1.0144
   54MOL   H18623612   3.019   1.906   6.398 -0.5980  1.4051  0.7895
   54MOL   H18723613   3.081   2.149   6.504 -1.1876 -1.4915  0.1049
   54MOL   H18823614   3.100   2.117   6.198  1.4200  3.2205 -0.7031
   54MOL   H18923615   2.962   2.123   6.297 -0.8824  1.3045 -1.6068
   54MOL   H19023616   3.027   2.346   6.371 -1.8274  1.1145 -1.6733
   54MOL   H19123617   3.036   2.363   6.203  0.7907 -1.4036 -0.7509
   54MOL   H19223618   3.281   2.334   6.214 -0.7771 -0.6165  0.1354
   54MOL   H19323619   3.228   2.471   6.297 -1.6413  0.3300 -0.9715
   54MOL   H19423620   3.243   2.352   6.516 -2.1907  1.7455 -1.5233
   54MOL   H19523621   3.390   2.347   6.418 -0.7974  0.4677  1.9044
   54MOL   H19623622   3.342   2.128   6.348 -0.8340 -1.1593 -0.1042
   54MOL   H19723623   3.326   2.119   6.524 -0.5244  0.0023 -0.3021
   54MOL   H19823624   3.314   1.893   6.432 -1.1496 -0.1983  1.7414
   54MOL   H19923625   3.220   1.756   6.398  1.4686  0.3768  2.1563
   54MOL   C20023626   3.250   1.872   6.231 -0.4849 -0.1548 -0.0904
   54MOL   C20123627   3.376   1.791   6.192 -0.7096  0.7559  0.4132
   54MOL   C20223628   3.505   1.860   6.243 -0.1454  0.6347  0.3880
   54MOL   C20323629   3.630   1.786   6.185 -0.0300 -0.1105  0.1220
   54MOL   C20423630   3.624   1.628   6.188  0.5367 -0.1155 -0.1210
   54MOL   C20523631   3.485   1.576   6.132 -0.1955 -0.4102 -0.5693
   54MOL   C20623632   3.365   1.644   6.208 -0.2134  0.1549 -0.1330
   54MOL   C20723633   3.122   1.819   6.145  0.7626 -0.6553 -0.3393
   54MOL   H20823634   3.262   1.979   6.212 -1.1432  0.1948  1.4567
   54MOL   H20923635   3.389   1.810   6.085  1.8521 -0.8892  0.4145
   54MOL   H21023636   3.507   1.858   6.352  0.6045 -0.5367  0.3571
   54MOL   H21123637   3.509   1.967   6.221 -1.4538  0.5329 -0.4014
   54MOL   H21223638   3.633   1.810   6.078  2.6679  1.7123  0.5555
   54MOL   H21323639   3.720   1.827   6.231  0.3206  0.0901 -0.7281
   54MOL   H21423640   3.713   1.592   6.137  1.4860  1.4986  0.3554
   54MOL   H21523641   3.628   1.595   6.292 -0.7262  0.0862  0.0005
   54MOL   H21623642   3.479   1.597   6.026  0.2194 -0.0970 -0.5308
   54MOL   H21723643   3.478   1.467   6.141 -1.8637 -0.4482 -2.0883
   54MOL   H21823644   3.276   1.603   6.160 -0.5777 -0.6647  1.2074
   54MOL   H21923645   3.373   1.613   6.312  0.9655  0.4913 -0.1155
   54MOL   H22023646   3.093   1.719   6.176 -0.6702  0.0261  0.5295
   54MOL   H22123647   3.041   1.884   6.176  1.4538 -0.3092  0.7757
   54MOL   C22223648   3.123   1.823   5.992 -0.1701  0.5426  0.7337
   54MOL   C22323649   3.011   1.734   5.930 -0.7243 -0.6610 -0.1688
   54MOL   C22423650   2.865   1.745   5.987 -0.2454 -0.3636  0.3267
   54MOL   C22523651   2.767   1.656   5.915  0.7557  1.1856 -0.1608
   54MOL   C22623652   2.810   1.509   5.903 -0.1226  0.7433  0.2465
   54MOL   C22723653   2.954   1.500   5.852  0.8230 -0.7096 -0.0089
   54MOL   C22823654   3.047   1.583   5.934 -0.0252  0.7225 -0.5180
   54MOL   C22923655   3.111   1.975   5.949  0.5690  0.3794  0.0032
   54MOL   H23023656   3.220   1.793   5.952 -0.2811  2.2092 -0.8487
   54MOL   H23123657   3.011   1.757   5.823 -3.0199  0.7574  0.1004
   54MOL   H23223658   2.868   1.714   6.091 -1.1147 -1.2895  0.0797
   54MOL   H23323659   2.848   1.853   5.993  2.0602  0.0903 -0.9690
   54MOL   H23423660   2.748   1.697   5.816 -1.2279  1.1746  0.1996
   54MOL   H23523661   2.667   1.663   5.956  0.0661 -0.4910 -1.4773
   54MOL   H23623662   2.805   1.462   6.001 -2.7486  1.9500  0.7426
   54MOL   H23723663   2.735   1.462   5.840  0.7680  0.7851 -0.8636
   54MOL   H23823664   2.958   1.544   5.752 -1.4125 -1.6578 -0.5498
   54MOL   H23923665   2.983   1.396   5.832 -1.6893 -0.8253 -3.5436
   54MOL   H24023666   3.049   1.542   6.035 -4.0047 -1.1793 -1.1217
   54MOL   H24123667   3.152   1.569   5.907 -0.0269  1.1002 -0.7294
   54MOL   H24223668   3.173   2.040   6.010  0.5062  0.1349  0.3317
   54MOL   H24323669   3.008   2.006   5.968  1.1597  1.6001  1.3161
   54MOL   C24423670   3.140   2.012   5.797  0.8909  0.3635 -0.6358
   54MOL   C24523671   3.262   1.940   5.740 -0.3944  0.1831  0.7252
   54MOL   C24623672   3.401   1.994   5.789  0.1265  0.1253 -0.1739
   54MOL   C24723673   3.521   1.906   5.743 -0.3455  0.1358 -0.0909
   54MOL   C24823674   3.523   1.905   5.586  0.2023  0.0882 -0.5110
   54MOL   C24923675   3.387   1.859   5.518 -0.8440  0.0129  0.1579
   54MOL   C25023676   3.263   1.935   5.584 -0.4175 -0.2177  0.8809
   54MOL   C25123677   3.161   2.171   5.790  0.3920 -0.0792  0.6514
   54MOL   H25223678   3.051   1.983   5.741 -0.5818 -1.6239  2.5912
   54MOL   H25323679   3.252   1.835   5.766 -0.1998 -0.5147 -1.8196
   54MOL   H25423680   3.407   2.008   5.897  1.8537  0.0855 -0.2415
   54MOL   H25523681   3.422   2.093   5.748 -0.9057 -0.1880 -1.4940
   54MOL   H25623682   3.613   1.934   5.794 -1.4053  1.3866  1.1790
   54MOL   H25723683   3.497   1.808   5.784  1.0108 -0.1452  0.0385
   54MOL   H25823684   3.544   2.004   5.546 -4.5372  0.5491 -2.1007
   54MOL   H25923685   3.609   1.840   5.567  0.0684 -0.4686  0.7386
   54MOL   H26023686   3.368   1.754   5.537 -1.0850 -0.6778 -3.6823
   54MOL   H26123687   3.386   1.876   5.411  0.6386 -1.2292 -0.0816
   54MOL   H26223688   3.255   2.036   5.545  2.3739 -0.5648 -0.6935
   54MOL   H26323689   3.176   1.875   5.554  1.7967 -3.4373  0.6951
   54MOL   H26423690   3.222   2.202   5.706 -0.8210 -0.4386 -0.3788
   54MOL   H26523691   3.221   2.210   5.872  1.0155 -0.6938  0.4942
   54MOL   C26623692   3.029   2.251   5.776  0.1390  0.2533  0.4267
   54MOL   C26723693   3.049   2.405   5.806  0.1030  0.7309  0.1177
   54MOL   C26823694   3.171   2.461   5.732  0.5179 -0.7469 -0.5061
   54MOL   C26923695   3.181   2.611   5.763  0.1759 -1.0871  0.3704
   54MOL   C27023696   3.164   2.643   5.909 -0.1309 -0.5420 -0.5238
   54MOL   C27123697   3.043   2.582   5.979  0.4883 -0.4960  0.2870
   54MOL   C27223698   3.034   2.435   5.957  1.2009  0.5137  0.4678
   54MOL   C27323699   2.966   2.231   5.641 -0.0268  0.3143  0.2396
   54MOL   H27423700   2.960   2.203   5.846  2.1806 -2.3419  0.7539
   54MOL   H27523701   2.957   2.455   5.775  0.1277  1.0828  0.6108
   54MOL   H27623702   3.266   2.416   5.762 -0.3814 -1.2605  1.6444
   54MOL   H27723703   3.161   2.424   5.630  0.1615 -1.4433 -0.2254
   54MOL   H27823704   3.113   2.660   5.693  1.2035  1.9959  1.4573
   54MOL   H27923705   3.286   2.633   5.745  0.1821 -0.4415  1.1183
   54MOL   H28023706   3.248   2.600   5.964 -0.8783  0.2511  1.2742
   54MOL   H28123707   3.173   2.748   5.936  3.9056 -0.3550 -2.1455
   54MOL   H28223708   2.943   2.621   5.959  0.9031 -0.7869 -2.4669
   54MOL   H28323709   3.054   2.604   6.085  0.4248 -1.4553  0.4924
   54MOL   H28423710   2.934   2.401   5.986  0.7889  0.8388 -0.5470
   54MOL   H28523711   3.119   2.391   6.009  2.6766  0.6850 -1.7111
   54MOL   H28623712   2.956   2.125   5.621  0.2081  0.5045 -0.9016
   54MOL   H28723713   3.042   2.252   5.566 -0.1734  1.6074  0.4373
   54MOL   C28823714   2.837   2.300   5.600  0.0841 -0.1304  0.0022
   54MOL   C28923715   2.728   2.286   5.713 -0.2607 -0.2624  0.6390
   54MOL   C29023716   2.620   2.398   5.702  0.2229  0.0819  0.4220
   54MOL   C29123717   2.526   2.390   5.822  0.5258  0.2907 -0.5617
   54MOL   C29223718   2.457   2.253   5.839 -0.0395  0.5625 -0.0003
   54MOL   C29323719   2.562   2.138   5.853  0.2399 -0.0716 -0.3750
   54MOL   C29423720   2.665   2.147   5.739 -0.5435 -0.4056  0.2086
   54MOL   C29523721   2.785   2.243   5.460 -0.1879  0.2164  0.9773
   54MOL   H29623722   2.860   2.407   5.599  0.5791 -0.1831  1.9614
   54MOL   H29723723   2.781   2.309   5.805  2.2044 -2.5122 -0.1496
   54MOL   H29823724   2.656   2.500   5.690  1.3923 -0.5659 -2.0499
   54MOL   H29923725   2.556   2.379   5.616 -0.1670 -1.6508  1.0781
   54MOL   H30023726   2.577   2.412   5.916  2.9437 -1.5614 -1.4010
   54MOL   H30123727   2.442   2.460   5.815 -1.8806 -1.8699  4.0214
   54MOL   H30223728   2.390   2.241   5.753  1.5266  0.3711 -1.2122
   54MOL   H30323729   2.385   2.255   5.921  0.5229  1.2315  0.4802
   54MOL   H30423730   2.513   2.041   5.851 -0.0335  0.0722 -0.8523
   54MOL   H30523731   2.611   2.139   5.950 -0.7987  2.0416  0.1409
   54MOL   H30623732   2.626   2.116   5.642  0.3655 -0.1134 -0.2583
   54MOL   H30723733   2.749   2.081   5.758 -1.3095 -1.2830  0.5668
   54MOL   H30823734   2.774   2.135   5.469 -0.6283  0.1543 -0.2437
   54MOL   H30923735   2.682   2.277   5.451 -1.1644 -2.2684  2.4880
   54MOL   C31023736   2.858   2.283   5.328 -0.7096 -0.4623 -0.3061
   54MOL   C31123737   2.969   2.182   5.289 -0.2527  0.1782 -0.0284
   54MOL   C31223738   2.922   2.052   5.228 -0.4612  1.0742  0.2130
   54MOL   C31323739   3.035   1.953   5.214  0.1080 -0.1149 -0.6710
   54MOL   C31423740   3.148   2.018   5.125 -0.0670 -0.0463 -0.3000
   54MOL   C31523741   3.190   2.159   5.174  0.6290  0.4529 -0.0419
   54MOL   C31623742   3.073   2.257   5.195 -0.4325  0.0708  0.4785
   54MOL   C31723743   2.766   2.326   5.217 -0.3774  0.1187  0.4594
   54MOL   H31823744   2.912   2.372   5.363 -0.3068 -1.5440  1.9169
   54MOL   H31923745   3.021   2.151   5.379 -1.1513  0.7918  0.7062
   54MOL   H32023746   2.837   2.004   5.276  0.8162 -0.9535  0.5175
   54MOL   H32123747   2.889   2.078   5.128  1.6475  2.0633 -0.2640
   54MOL   H32223748   2.997   1.874   5.149  0.6688  0.4796 -1.7315
   54MOL   H32323749   3.066   1.914   5.310 -0.2938 -0.4617 -0.6802
   54MOL   H32423750   3.236   1.954   5.122  0.4606  0.7146 -1.4867
   54MOL   H32523751   3.119   2.043   5.023  0.4110  1.9507  0.0374
   54MOL   H32623752   3.239   2.152   5.272 -1.9779  1.2114  1.3562
   54MOL   H32723753   3.261   2.196   5.100  0.7396  1.3889  0.5231
   54MOL   H32823754   3.028   2.275   5.098 -0.6527 -1.0824  0.3649
   54MOL   H32923755   3.100   2.352   5.243 -2.4879  1.0709 -0.3002
   54MOL   H33023756   2.685   2.257   5.192 -2.4301  2.7904 -0.6207
   54MOL   H33123757   2.823   2.331   5.125  0.6153 -0.7585  1.0160
   54MOL   C33223758   2.706   2.464   5.244  0.1161  0.5962 -0.7834
   54MOL   C33323759   2.558   2.471   5.195  0.3234 -0.4205  0.0293
   54MOL   C33423760   2.457   2.385   5.276  0.2484 -0.4731  0.3952
   54MOL   C33523761   2.313   2.423   5.243  0.0936  0.0714 -0.3574
   54MOL   C33623762   2.297   2.402   5.091  0.2052  0.1700 -0.3022
   54MOL   C33723763   2.404   2.472   5.007 -0.0129  0.9103  0.0914
   54MOL   C33823764   2.551   2.444   5.048 -0.8592  0.1413  0.1770
   54MOL   C33923765   2.798   2.582   5.195 -0.1910 -0.3236 -0.5020
   54MOL   H34023766   2.698   2.480   5.351 -1.0543 -1.1146 -0.5862
   54MOL   H34123767   2.528   2.574   5.212 -0.3099 -0.8449  1.5592
   54MOL   H34223768   2.480   2.279   5.265 -1.5801 -0.8248 -0.1560
   54MOL   H34323769   2.476   2.407   5.382  1.9756 -0.7923  0.1705
   54MOL   H34423770   2.233   2.369   5.293 -1.0158  0.4205 -1.7406
   54MOL   H34523771   2.295   2.529   5.262  0.2397  0.0552 -0.1292
   54MOL   H34623772   2.314   2.297   5.066  1.4523  0.4962 -0.8558
   54MOL   H34723773   2.194   2.420   5.062  0.1955 -1.1046 -1.1247
   54MOL   H34823774   2.373   2.577   5.015  0.3947  1.1673 -1.6343
   54MOL   H34923775   2.386   2.444   4.904 -2.0862  2.1999  0.0787
   54MOL   H35023776   2.623   2.511   5.000  2.4982 -1.5723  2.6308
   54MOL   H35123777   2.569   2.338   5.031 -1.0899  0.4027 -1.7941
   54MOL   H35223778   2.815   2.567   5.088 -0.5828  1.1777 -0.7895
   54MOL   H35323779   2.896   2.588   5.241 -0.0502  1.3022 -0.9787
   54MOL   C35423780   2.742   2.730   5.202  0.3154  0.4516 -0.6217
   54MOL   C35523781   2.847   2.836   5.151 -0.3354 -0.4732 -0.3864
   54MOL   C35623782   2.913   2.813   5.010  0.9373 -0.1219 -0.5603
   54MOL   C35723783   2.989   2.945   4.972 -0.0845 -0.3990 -0.1977
   54MOL   C35823784   3.104   2.983   5.072 -0.5538 -0.7074 -0.2035
   54MOL   C35923785   3.059   2.979   5.227 -0.2921 -0.2928  0.5684
   54MOL   C36023786   2.968   2.856   5.250 -0.4319 -0.2977  0.0648
   54MOL   C36123787   2.685   2.765   5.337  0.4960  0.8381  0.0476
   54MOL   H36223788   2.665   2.721   5.125  0.2280  1.0828 -0.6171
   54MOL   H36323789   2.798   2.933   5.156  0.3944 -0.1583  0.8054
   54MOL   H36423790   2.831   2.801   4.939 -1.5577  1.8080  1.8876
   54MOL   H36523791   2.972   2.722   4.999  0.7470 -0.0478 -2.3790
   54MOL   H36623792   3.002   2.940   4.864 -1.1990  1.7243 -0.4729
   54MOL   H36723793   2.928   3.034   4.987  0.2297 -0.1564 -0.3339
   54MOL   H36823794   3.194   2.924   5.054  0.8883  1.8545 -1.7720
   54MOL   H36923795   3.145   3.084   5.063 -1.0266 -0.6092 -1.3156
   54MOL   H37023796   3.146   2.980   5.292 -0.4130 -2.3146  0.7952
   54MOL   H37123797   3.001   3.068   5.251  0.2309  0.4750 -0.9487
   54MOL   H37223798   2.930   2.865   5.352  1.8370 -0.2905  0.9587
   54MOL   H37323799   3.024   2.762   5.260 -1.0887 -0.7782 -0.7533
   54MOL   H37423800   2.758   2.755   5.417 -0.0903 -2.4493  0.2611
   54MOL   H37523801   2.615   2.688   5.371  0.5808  0.5890 -0.3366
   54MOL   C37623802   2.624   2.908   5.358 -0.2384  0.8258 -1.0195
   54MOL   C37723803   2.526   2.954   5.251  0.3399 -0.1739  0.3456
   54MOL   C37823804   2.496   3.102   5.259 -0.2393  0.3495  0.4425
   54MOL   C37923805   2.393   3.149   5.153  0.6967 -0.6946 -0.3441
   54MOL   C38023806   2.260   3.067   5.163  0.2904 -0.4143 -0.5238
   54MOL   C38123807   2.292   2.914   5.153  0.7890 -0.1393 -0.2637
   54MOL   C38223808   2.396   2.879   5.263  0.1665 -0.2823  0.4255
   54MOL   C38323809   2.571   2.935   5.508  0.2403 -0.2521  0.4567
   54MOL   H38423810   2.711   2.973   5.346  0.7751 -0.3203  0.0705
   54MOL   H38523811   2.575   2.938   5.155  1.0608 -0.4478  0.7524
   54MOL   H38623812   2.443   3.123   5.352 -0.9878 -0.6542  0.2537
   54MOL   H38723813   2.586   3.162   5.269 -0.1594  0.2715  0.2093
   54MOL   H38823814   2.444   3.144   5.057 -1.0934  0.9591 -1.4230
   54MOL   H38923815   2.375   3.254   5.175 -0.3929 -1.1991  1.2036
   54MOL   H39023816   2.208   3.101   5.252  1.0780  2.0389 -0.9527
   54MOL   H39123817   2.197   3.095   5.078  1.2441 -0.1839 -1.1699
   54MOL   H39223818   2.201   2.856   5.169  0.6939  0.7616  2.6413
   54MOL   H39323819   2.320   2.883   5.052 -1.6421 -2.7344 -0.2086
   54MOL   H39423820   2.345   2.893   5.359 -0.5736  0.8179 -0.1195
   54MOL   H39523821   2.419   2.773   5.253  0.5958 -0.0917 -0.6347
   54MOL   H39623822   2.486   2.868   5.518 -0.6891  0.7250 -0.6458
   54MOL   H39723823   2.532   3.037   5.504  3.7532  1.2446  2.3430
   54MOL   C39823824   2.648   2.911   5.637  0.1970  0.5164 -0.3573
   54MOL   C39923825   2.787   2.978   5.650  0.2612 -0.4274  0.3943
   54MOL   C40023826   2.781   3.135   5.668 -1.6007  0.2483 -0.2597
   54MOL   C40123827   2.924   3.195   5.668 -0.7818 -0.3287 -0.1930
   54MOL   C40223828   3.008   3.132   5.783  0.6439 -1.3747 -0.6412
   54MOL   C40323829   3.015   2.976   5.780 -0.1358  0.0647  0.2686
   54MOL   C40423830   2.871   2.914   5.767 -0.3706  0.7409 -0.6164
   54MOL   C40523831   2.547   2.946   5.753  0.2375  0.0906 -0.4183
   54MOL   H40623832   2.665   2.806   5.659 -0.9417  0.6352  1.2066
   54MOL   H40723833   2.827   2.959   5.551 -0.5364  1.2788 -0.2844
   54MOL   H40823834   2.739   3.174   5.760 -0.1684  0.7407  0.1984
   54MOL   H40923835   2.724   3.183   5.588 -0.8167 -0.5441 -1.3099
   54MOL   H41023836   2.934   3.302   5.649  1.5674 -0.8053 -1.6978
   54MOL   H41123837   2.969   3.164   5.574 -1.0324  0.8806 -0.7141
   54MOL   H41223838   2.977   3.166   5.882  2.9984 -0.7391 -0.0843
   54MOL   H41323839   3.106   3.178   5.778  0.6668 -1.0687  1.7753
   54MOL   H41423840   3.078   2.934   5.702  0.8429 -0.9218  1.5717
   54MOL   H41523841   3.050   2.934   5.874 -1.9028 -0.0234  0.9032
   54MOL   H41623842   2.887   2.807   5.751 -1.1131  0.3038  1.3774
   54MOL   H41723843   2.817   2.921   5.861  0.8702  1.3236  0.0697
   54MOL   H41823844   2.600   2.974   5.844  1.7744  0.3091 -1.3530
   54MOL   H41923845   2.491   3.037   5.728  1.1330  0.4097 -1.3231
   54MOL   C42023846   2.446   2.837   5.789 -0.8660  0.7112  0.1551
   54MOL   C42123847   2.312   2.900   5.823  0.6781  0.7297 -0.4932
   54MOL   C42223848   2.230   2.942   5.702  0.0247 -0.0240 -0.7565
   54MOL   C42323849   2.088   2.985   5.730  0.0334  0.5046  0.1643
   54MOL   C42423850   2.077   3.083   5.850 -0.1454 -0.3423 -0.4790
   54MOL   C42523851   2.161   3.034   5.973  0.7377  0.1495  0.1951
   54MOL   C42623852   2.310   2.996   5.940  0.2026 -0.3220  0.1837
   54MOL   C42723853   2.495   2.740   5.902  0.9070  0.2846  0.1738
   54MOL   H42823854   2.424   2.767   5.709  0.1878  0.1753  0.3275
   54MOL   H42923855   2.253   2.816   5.860  0.8624  0.8870  0.1665
   54MOL   H43023856   2.285   3.021   5.650  0.4507 -0.3366 -0.7755
   54MOL   H43123857   2.230   2.858   5.633 -0.3619  0.8403 -1.8196
   54MOL   H43223858   2.019   3.016   5.652  1.8672 -0.5649 -1.9058
   54MOL   H43323859   2.044   2.892   5.768  0.1536  0.6570  0.6861
   54MOL   H43423860   1.972   3.107   5.870  0.8902  4.7444 -0.3951
   54MOL   H43523861   2.117   3.176   5.809 -2.2476 -0.1045 -2.0995
   54MOL   H43623862   2.109   2.948   6.015 -1.6443  1.7721  0.6836
   54MOL   H43723863   2.150   3.109   6.052 -2.4487  0.8744 -0.8564
   54MOL   H43823864   2.373   3.081   5.917 -1.4599  0.8129 -0.3133
   54MOL   H43923865   2.350   2.947   6.029 -3.4729 -1.3580  1.3804
   54MOL   H44023866   2.594   2.697   5.885  0.6599 -0.0744 -0.3885
   54MOL   H44123867   2.503   2.793   5.997 -1.3346  0.0407  0.5169
   54MOL   H44223868   2.425   2.657   5.905 -0.1741  1.0881 -1.4587
   55MOL     C123869   4.099   0.353   2.119 -0.5933  0.3551 -0.4279
   55MOL     C223870   3.962   0.382   2.056  0.0585  0.0136  0.2242
   55MOL     C323871   3.844   0.360   2.151  0.0335 -0.0625 -0.3131
   55MOL     C423872   3.716   0.387   2.083 -0.3743  0.1102 -0.1642
   55MOL     C523873   3.697   0.296   1.966 -0.3814 -0.6298 -0.2971
   55MOL     C623874   3.803   0.327   1.857 -0.3921  0.7186 -0.0810
   55MOL     C723875   3.942   0.309   1.915  0.5200 -0.1049  0.2699
   55MOL     C823876   4.159   0.469   2.190 -0.1793  0.2063 -0.2054
   55MOL     H923877   4.081   0.278   2.196 -1.6985  1.0889  0.0336
   55MOL    H1023878   3.951   0.490   2.047  2.0531  0.3369  1.4876
   55MOL    H1123879   3.841   0.256   2.184 -1.6521  0.5926  1.6936
   55MOL    H1223880   3.851   0.422   2.240 -2.3839  0.5423 -0.5302
   55MOL    H1323881   3.710   0.482   2.029 -1.3863 -0.7408 -1.6088
   55MOL    H1423882   3.633   0.369   2.151 -1.5921  0.0712 -1.6314
   55MOL    H1523883   3.595   0.307   1.931 -0.3823  0.1024 -0.0734
   55MOL    H1623884   3.703   0.193   2.001 -0.9020 -0.1377  1.2618
   55MOL    H1723885   3.787   0.259   1.773 -0.7910  0.0144  0.5575
   55MOL    H1823886   3.777   0.428   1.828  0.4289  0.8786 -0.2738
   55MOL    H1923887   4.021   0.347   1.850 -0.1671  0.2764 -0.3520
   55MOL    H2023888   3.954   0.200   1.917 -1.2602 -0.3626 -1.8461
   55MOL    H2123889   4.088   0.532   2.244 -0.1648 -0.2941  0.4033
   55MOL    H2223890   4.211   0.531   2.117 -0.7187  0.3803 -0.4415
   55MOL    H2323891   4.173   0.325   2.044 -0.8069  1.9767 -1.2696
   55MOL    C2423892   4.270   0.421   2.290  0.2568  0.1298 -0.9771
   55MOL    C2523893   4.387   0.526   2.297 -0.3780 -0.8917 -0.3728
   55MOL    C2623894   4.343   0.673   2.320 -0.1820 -0.0951  0.3339
   55MOL    C2723895   4.450   0.772   2.325 -0.0902  0.1273  0.6377
   55MOL    C2823896   4.542   0.767   2.204 -0.2323 -0.1685  0.8845
   55MOL    C2923897   4.597   0.624   2.188 -0.1541  0.1209  0.3585
   55MOL    C3023898   4.474   0.524   2.178 -0.0014 -0.2634  0.2214
   55MOL    C3123899   4.209   0.373   2.432  0.2823  0.5423 -0.0549
   55MOL    H3223900   4.322   0.338   2.242 -0.0538  0.1074 -1.2749
   55MOL    H3323901   4.461   0.502   2.374 -1.1584  0.2537  0.7587
   55MOL    H3423902   4.282   0.662   2.409  1.9368 -2.7535  1.5397
   55MOL    H3523903   4.274   0.702   2.241  0.6691  0.5171 -0.1935
   55MOL    H3623904   4.420   0.876   2.338  0.6781  0.0577  3.1497
   55MOL    H3723905   4.519   0.755   2.407 -0.8604 -0.7169  1.1122
   55MOL    H3823906   4.621   0.842   2.215 -0.7337  0.4856  0.1010
   55MOL    H3923907   4.478   0.789   2.119  2.0145  1.9973 -0.3246
   55MOL    H4023908   4.654   0.594   2.100 -1.2878 -2.4345  0.4330
   55MOL    H4123909   4.659   0.600   2.274  1.1299  1.4585 -0.1834
   55MOL    H4223910   4.427   0.554   2.084 -0.0543  2.7097  1.1364
   55MOL    H4323911   4.520   0.427   2.162 -1.1041 -1.1557  2.3132
   55MOL    H4423912   4.131   0.306   2.396 -1.5718  1.0059  2.9461
   55MOL    H4523913   4.162   0.451   2.492  1.5450  2.1132 -1.0768
   55MOL    C4623914   4.303   0.301   2.530  0.0480  0.0296  0.6620
   55MOL    C4723915   4.229   0.171   2.597 -1.0645  0.1231 -0.0055
   55MOL    C4823916   4.248   0.057   2.497 -0.0710 -0.6566  0.3777
   55MOL    C4923917   4.189   7.691   2.546 -0.5800 -0.2061  0.8017
   55MOL    C5023918   4.043   7.697   2.600  0.0649 -0.2442 -0.3575
   55MOL    C5123919   4.019   0.052   2.695  0.1817  0.5222 -0.8396
   55MOL    C5223920   4.078   0.179   2.636  1.0226 -0.6622  0.0514
   55MOL    C5323921   4.353   0.391   2.646 -0.1017  0.9871  0.0218
   55MOL    H5423922   4.394   0.276   2.476  0.4029  1.9548  0.3244
   55MOL    H5523923   4.283   0.131   2.683  1.8133  1.2780 -1.2271
   55MOL    H5623924   4.194   0.083   2.405  2.1970 -0.0071 -0.7943
   55MOL    H5723925   4.351   0.044   2.466 -0.4390  2.2939 -2.3517
   55MOL    H5823926   4.245   7.641   2.625  1.3266  0.1756 -0.2600
   55MOL    H5923927   4.194   7.613   2.470 -1.2661  0.5130  0.0152
   55MOL    H6023928   3.982   7.701   2.510  0.7572 -1.0723 -0.8625
   55MOL    H6123929   4.029   7.604   2.655 -0.5656  0.8115  1.3256
   55MOL    H6223930   4.058   0.038   2.796 -2.0375  1.5003  0.1662
   55MOL    H6323931   3.913   0.067   2.716 -0.2082 -0.4958 -2.0626
   55MOL    H6423932   4.012   0.209   2.554  0.7108 -1.0738  0.1482
   55MOL    H6523933   4.056   0.259   2.706  0.5973 -0.0559 -0.7669
   55MOL    H6623934   4.411   0.470   2.597 -0.6405  0.6746 -1.1470
   55MOL    H6723935   4.434   0.336   2.694 -1.6919 -1.7763 -0.4161
   55MOL    C6823936   4.261   0.438   2.755 -0.2052  0.0107  0.2979
   55MOL    C6923937   4.267   0.348   2.887  0.1851  0.0409 -0.2461
   55MOL    C7023938   4.402   0.333   2.962  0.3714  0.0334 -1.0048
   55MOL    C7123939   4.378   0.229   3.077 -0.6624 -0.1995  0.4964
   55MOL    C7223940   4.264   0.262   3.172  0.0098  0.7167 -0.0551
   55MOL    C7323941   4.138   0.293   3.105 -0.8007  0.2127  0.2515
   55MOL    C7423942   4.155   0.394   2.989 -0.3792  0.2012 -0.4373
   55MOL    C7523943   4.277   0.586   2.796 -0.0932 -0.2182  0.3994
   55MOL    H7623944   4.161   0.426   2.713  0.2431 -0.8914 -0.5396
   55MOL    H7723945   4.236   0.249   2.855 -0.4556 -0.1551  0.9777
   55MOL    H7823946   4.455   0.423   2.995 -0.3589 -0.7811  2.5468
   55MOL    H7923947   4.476   0.287   2.897  1.0573 -0.0336 -0.1736
   55MOL    H8023948   4.350   0.138   3.024  0.8039 -0.2279 -0.2473
   55MOL    H8123949   4.473   0.203   3.124  0.9187  1.2326 -1.8033
   55MOL    H8223950   4.297   0.351   3.227 -0.8238  1.9790 -1.5620
   55MOL    H8323951   4.245   0.182   3.243  2.1625 -0.0954 -0.3593
   55MOL    H8423952   4.069   0.343   3.173  2.5632  2.6850  1.9177
   55MOL    H8523953   4.094   0.200   3.067  1.4990 -1.0156  0.4940
   55MOL    H8623954   4.166   0.498   3.021  0.4720 -0.1185  0.3080
   55MOL    H8723955   4.064   0.389   2.928 -0.7984  0.9813  0.1217
   55MOL    H8823956   4.328   0.591   2.892 -0.4688 -1.1098  0.6517
   55MOL    H8923957   4.341   0.649   2.735 -2.5681  0.5096 -1.5389
   55MOL    C9023958   4.141   0.662   2.798  0.1600  0.5969  0.3485
   55MOL    C9123959   4.137   0.794   2.888  0.2531  0.6758 -0.0978
   55MOL    C9223960   4.166   0.769   3.041  0.1565 -0.6120  1.1963
   55MOL    C9323961   4.157   0.896   3.126  0.0560 -0.3342 -0.7875
   55MOL    C9423962   4.258   1.006   3.081  0.1392  0.1878 -0.2918
   55MOL    C9523963   4.238   1.038   2.937 -0.3883  0.4479  0.0378
   55MOL    C9623964   4.244   0.904   2.853  0.6847  0.0662  0.6198
   55MOL    C9723965   4.087   0.696   2.657  0.4213  0.5981 -0.4152
   55MOL    H9823966   4.067   0.597   2.842  0.6227  0.1452  0.4625
   55MOL    H9923967   4.036   0.832   2.873 -0.3390 -0.1677  1.5454
   55MOL   H10023968   4.262   0.719   3.053  0.5944 -0.1322 -0.1759
   55MOL   H10123969   4.087   0.706   3.082  0.2579  0.3856  3.0310
   55MOL   H10223970   4.182   0.867   3.228  0.2853  1.4452 -0.3264
   55MOL   H10323971   4.056   0.936   3.119  0.5753  1.2284  0.2006
   55MOL   H10423972   4.361   0.974   3.100 -0.4311 -0.3088  2.2101
   55MOL   H10523973   4.246   1.098   3.139 -1.1881  1.0702 -1.9179
   55MOL   H10623974   4.147   1.092   2.912 -0.2325 -0.1649 -1.9287
   55MOL   H10723975   4.317   1.107   2.906  1.3523 -0.9818  1.1313
   55MOL   H10823976   4.225   0.944   2.753  0.8567 -0.6520  0.2941
   55MOL   H10923977   4.344   0.864   2.837  0.0182  0.3160 -5.3708
   55MOL   H11023978   4.161   0.763   2.613  1.9223 -0.3188  0.6713
   55MOL   H11123979   4.113   0.607   2.601  0.9129  0.2216  0.4083
   55MOL   C11223980   3.939   0.751   2.627  0.3722 -0.0014  0.5185
   55MOL   C11323981   3.830   0.637   2.621  0.8148 -0.4350 -0.2430
   55MOL   C11423982   3.759   0.633   2.759  1.1970  0.2704 -0.3992
   55MOL   C11523983   3.634   0.544   2.743  0.5939 -0.1799  0.0474
   55MOL   C11623984   3.661   0.398   2.696  0.0588  0.5412 -0.3329
   55MOL   C11723985   3.728   0.412   2.559 -0.0949 -0.0972  0.4867
   55MOL   C11823986   3.858   0.498   2.563 -0.6716 -0.4536 -0.2236
   55MOL   C11923987   3.941   0.797   2.472 -0.6151  0.0482 -0.2352
   55MOL   H12023988   3.922   0.839   2.689 -1.8498 -0.5485  0.7385
   55MOL   H12123989   3.745   0.673   2.563 -0.0894 -1.1670  0.6226
   55MOL   H12223990   3.738   0.734   2.792  2.0851  0.6412 -0.9711
   55MOL   H12323991   3.822   0.588   2.835  0.8446 -1.7400 -1.2537
   55MOL   H12423992   3.590   0.535   2.843  0.2095 -0.0142 -0.1039
   55MOL   H12523993   3.554   0.588   2.683  0.6246  1.5475  1.2416
   55MOL   H12623994   3.723   0.358   2.776 -1.8745  0.3921  1.1478
   55MOL   H12723995   3.563   0.350   2.691  1.0753 -1.5551 -0.4946
   55MOL   H12823996   3.763   0.317   2.521 -0.2589  0.6029 -1.4694
   55MOL   H12923997   3.660   0.451   2.483  1.2067  0.0332 -0.6146
   55MOL   H13023998   3.912   0.502   2.468  0.1292  1.0886  0.2802
   55MOL   H13123999   3.923   0.450   2.636 -1.9486  0.8568  1.8102
   55MOL   H13224000   3.940   0.711   2.405 -2.8421 -0.5958  0.5882
   55MOL   H13324001   4.038   0.842   2.451 -0.6770  0.0741 -0.4635
   55MOL   C13424002   3.833   0.901   2.455 -0.0641  0.7556 -0.1964
   55MOL   C13524003   3.759   0.878   2.320  1.0042  0.7131  0.1592
   55MOL   C13624004   3.691   0.739   2.310 -0.2773 -0.4222  0.2062
   55MOL   C13724005   3.608   0.727   2.193 -0.3944 -0.1214  0.4704
   55MOL   C13824006   3.682   0.751   2.055 -0.2285 -0.1153  0.2546
   55MOL   C13924007   3.760   0.894   2.060 -0.0787  0.7729  0.0603
   55MOL   C14024008   3.837   0.915   2.192 -0.3789  0.2809  0.1689
   55MOL   C14124009   3.881   1.047   2.473  0.7854  0.1574  0.1434
   55MOL   H14224010   3.766   0.883   2.538  0.2034  0.2255 -0.0911
   55MOL   H14324011   3.670   0.941   2.327  0.3498 -0.1023 -0.7257
   55MOL   H14424012   3.769   0.664   2.323  1.1352  1.2198  1.4085
   55MOL   H14524013   3.630   0.724   2.399  0.0256  0.8204  0.6395
   55MOL   H14624014   3.528   0.801   2.188  0.0592  0.3839  0.7635
   55MOL   H14724015   3.566   0.626   2.191 -1.9125  0.5115 -1.0823
   55MOL   H14824016   3.756   0.673   2.033 -0.2332  0.4134 -1.7447
   55MOL   H14924017   3.621   0.734   1.966 -1.9483 -0.1204  1.4121
   55MOL   H15024018   3.695   0.979   2.036 -2.3476 -2.3787 -6.1549
   55MOL   H15124019   3.835   0.900   1.981  0.3573  3.2073  0.6125
   55MOL   H15224020   3.933   0.866   2.204  0.2672  1.6750  0.7153
   55MOL   H15324021   3.872   1.018   2.198  0.6305 -0.1805  2.5085
   55MOL   H15424022   3.961   1.057   2.400  1.2661  0.3898  0.6942
   55MOL   H15524023   3.936   1.062   2.566 -1.5849  2.3060  1.2828
   55MOL   C15624024   3.777   1.170   2.467 -0.1862  0.2321  0.3110
   55MOL   C15724025   3.857   1.304   2.448 -0.1124 -0.0103 -0.1519
   55MOL   C15824026   3.760   1.418   2.400  0.1167  1.0281 -0.5411
   55MOL   C15924027   3.833   1.545   2.366  0.0391  0.4336  0.3530
   55MOL   C16024028   3.901   1.592   2.492 -0.0692 -0.0943  0.3809
   55MOL   C16124029   4.009   1.489   2.535  0.5642 -0.2021 -0.3700
   55MOL   C16224030   3.949   1.356   2.563  0.7372 -0.5062 -0.0871
   55MOL   C16324031   3.680   1.179   2.592 -0.0002  0.0842 -0.2401
   55MOL   H16424032   3.712   1.170   2.380 -0.5878  0.7465  0.6098
   55MOL   H16524033   3.919   1.297   2.358 -0.2134  2.6765 -0.4844
   55MOL   H16624034   3.705   1.389   2.310 -0.1740  1.1962 -0.4167
   55MOL   H16724035   3.686   1.435   2.478  1.0751  2.0779  0.1478
   55MOL   H16824036   3.903   1.538   2.283 -1.1419  1.6577 -0.7714
   55MOL   H16924037   3.764   1.624   2.335 -2.5679 -1.8980 -0.0409
   55MOL   H17024038   3.829   1.609   2.573  0.3591 -3.2207  1.4676
   55MOL   H17124039   3.948   1.690   2.485 -0.4089 -0.0641 -1.8699
   55MOL   H17224040   4.043   1.522   2.634 -1.0667 -0.3228  0.2529
   55MOL   H17324041   4.094   1.484   2.468  0.2498 -1.0649 -0.7092
   55MOL   H17424042   4.021   1.276   2.576  0.6665 -0.5361  0.1161
   55MOL   H17524043   3.901   1.350   2.661  1.2764  1.2764  0.3069
   55MOL   H17624044   3.657   1.281   2.622 -1.1237  0.0051 -0.7943
   55MOL   H17724045   3.733   1.145   2.681 -1.6417 -1.6811  0.1026
   55MOL   C17824046   3.544   1.097   2.570  0.3508  0.1028 -0.3442
   55MOL   C17924047   3.500   1.050   2.708 -0.3665 -0.0211  0.1987
   55MOL   C18024048   3.436   0.906   2.714  0.4611 -0.0973 -0.2387
   55MOL   C18124049   3.394   0.870   2.855 -0.1522 -0.0221  0.1132
   55MOL   C18224050   3.311   0.982   2.920  0.7890  0.3228 -0.6995
   55MOL   C18324051   3.387   1.112   2.923  0.7064  0.6992 -0.4986
   55MOL   C18424052   3.417   1.159   2.786 -0.6440 -0.5326  0.1222
   55MOL   C18524053   3.444   1.180   2.478  0.0083 -0.4099  0.3634
   55MOL   H18624054   3.557   1.005   2.512  0.1833 -0.3408  0.3141
   55MOL   H18724055   3.585   1.032   2.774 -0.8381 -0.0441  0.8066
   55MOL   H18824056   3.347   0.906   2.651 -0.2867 -0.3952  0.8042
   55MOL   H18924057   3.498   0.827   2.672 -0.5294 -0.7308 -0.5187
   55MOL   H19024058   3.486   0.869   2.914  0.2608  1.0084 -0.5106
   55MOL   H19124059   3.340   0.775   2.864 -1.6591  0.8585  0.4601
   55MOL   H19224060   3.213   0.981   2.872  1.6432  0.1126 -2.5139
   55MOL   H19324061   3.286   0.952   3.021 -0.5044  0.4397 -0.9720
   55MOL   H19424062   3.476   1.103   2.986  0.0456  1.0334  0.5057
   55MOL   H19524063   3.322   1.183   2.975 -1.2435 -1.5792  0.2750
   55MOL   H19624064   3.313   1.172   2.758 -0.8249  0.1051  1.0691
   55MOL   H19724065   3.467   1.255   2.796 -3.1813  0.8224  0.1081
   55MOL   H19824066   3.445   1.277   2.527 -1.4609  0.3473 -1.0647
   55MOL   H19924067   3.483   1.208   2.380 -0.8931 -0.1286  0.0800
   55MOL   C20024068   3.298   1.117   2.455  0.7324  0.6594 -0.2681
   55MOL   C20124069   3.184   1.221   2.423  0.1510 -0.1415 -0.2677
   55MOL   C20224070   3.151   1.317   2.534  0.1405 -0.7850 -0.8208
   55MOL   C20324071   3.044   1.427   2.496 -0.1020  0.1263 -0.4207
   55MOL   C20424072   3.059   1.485   2.346 -0.5431  1.1050 -0.6213
   55MOL   C20524073   3.095   1.379   2.246  0.1742 -0.4251  0.4887
   55MOL   C20624074   3.212   1.293   2.291 -0.3427  0.1649 -0.8235
   55MOL   C20724075   3.292   0.993   2.375  0.2046  0.4334  0.3201
   55MOL   H20824076   3.274   1.086   2.557  0.8751  1.5023  0.0321
   55MOL   H20924077   3.091   1.168   2.406  0.6508 -1.1015 -0.0652
   55MOL   H21024078   3.242   1.369   2.563 -0.0496 -0.8561 -0.0901
   55MOL   H21124079   3.116   1.280   2.630  0.3979  1.4498  0.1559
   55MOL   H21224080   2.940   1.396   2.503 -0.7206  2.2935  0.4344
   55MOL   H21324081   3.047   1.499   2.578  0.0603  0.1967 -0.4873
   55MOL   H21424082   2.972   1.543   2.313 -0.0258  2.8554  0.9488
   55MOL   H21524083   3.149   1.546   2.351  0.7924 -0.7562 -1.4105
   55MOL   H21624084   3.004   1.324   2.223 -0.1931  0.7906 -0.9795
   55MOL   H21724085   3.137   1.431   2.160 -0.5284  0.6423  0.7852
   55MOL   H21824086   3.238   1.217   2.217  1.0290  0.7915 -1.0062
   55MOL   H21924087   3.298   1.360   2.296  0.2221 -0.4862 -1.6523
   55MOL   H22024088   3.343   1.006   2.280 -1.1790 -0.3706 -0.5383
   55MOL   H22124089   3.349   0.914   2.425  0.1114  1.0411  1.4156
   55MOL   C22224090   3.158   0.928   2.344  1.0165 -0.3952  0.1399
   55MOL   C22324091   3.168   0.806   2.248  0.2837 -0.0620  0.9562
   55MOL   C22424092   3.250   0.692   2.306 -0.0912 -0.3805 -0.2019
   55MOL   C22524093   3.230   0.571   2.211  0.2135  0.2029  0.1528
   55MOL   C22624094   3.263   0.601   2.068 -0.1764 -0.6909 -0.0420
   55MOL   C22724095   3.200   0.725   2.010  0.6913 -0.3555  0.1042
   55MOL   C22824096   3.217   0.842   2.103 -0.0949  0.0052 -0.5405
   55MOL   C22924097   3.078   0.895   2.471 -0.5781  0.5572  0.4442
   55MOL   H23024098   3.093   0.993   2.285 -1.4040 -0.7589  2.2972
   55MOL   H23124099   3.068   0.768   2.231  0.0903  0.7362  0.3013
   55MOL   H23224100   3.356   0.719   2.311  0.4291 -1.9027 -2.0558
   55MOL   H23324101   3.211   0.670   2.405 -0.5484 -0.6729 -0.4456
   55MOL   H23424102   3.125   0.540   2.215  0.1509  0.5903  1.8537
   55MOL   H23524103   3.277   0.484   2.257 -1.8887 -0.0906  1.8162
   55MOL   H23624104   3.370   0.617   2.060 -0.4877  0.8305 -1.5310
   55MOL   H23724105   3.246   0.513   2.006  0.0747 -0.1234 -0.9201
   55MOL   H23824106   3.095   0.712   1.984  0.1646  2.0583  0.8725
   55MOL   H23924107   3.243   0.757   1.915 -1.0547 -0.9123 -0.8921
   55MOL   H24024108   3.322   0.870   2.102  0.4221 -1.8664 -0.0099
   55MOL   H24124109   3.172   0.931   2.059 -2.0157 -0.5565  0.2132
   55MOL   H24224110   3.067   0.983   2.534  0.3475  0.1066  1.2463
   55MOL   H24324111   3.148   0.843   2.535 -0.7031 -0.6662 -0.3999
   55MOL   C24424112   2.954   0.793   2.461  0.3242  0.1855  0.0784
   55MOL   C24524113   2.843   0.852   2.375 -0.3900  0.3946  0.1136
   55MOL   C24624114   2.779   0.975   2.439 -0.1266 -0.2883  0.2502
   55MOL   C24724115   2.660   1.023   2.361 -0.4125  0.5273  0.4797
   55MOL   C24824116   2.561   0.909   2.333 -0.1829 -0.2670 -0.4008
   55MOL   C24924117   2.630   0.807   2.242 -0.2965 -0.1799  0.5969
   55MOL   C25024118   2.748   0.749   2.319  0.4820  0.4409 -0.3684
   55MOL   C25124119   2.894   0.739   2.599  0.5509  0.0019  0.2177
   55MOL   H25224120   2.981   0.708   2.398  1.4933  0.2789  0.4446
   55MOL   H25324121   2.899   0.894   2.292  2.0129 -1.4138  0.7535
   55MOL   H25424122   2.850   1.057   2.432 -0.6755  0.4882  3.2879
   55MOL   H25524123   2.746   0.972   2.543  0.9952  1.7746  0.6750
   55MOL   H25624124   2.612   1.108   2.409 -0.8198  0.9816 -0.7143
   55MOL   H25724125   2.694   1.071   2.269 -3.1034  1.8833  0.1417
   55MOL   H25824126   2.530   0.863   2.427 -1.1640 -0.4424 -0.8023
   55MOL   H25924127   2.472   0.945   2.282  0.8668  0.2170 -1.9184
   55MOL   H26024128   2.667   0.859   2.154  2.2160  1.1553  2.3864
   55MOL   H26124129   2.559   0.729   2.214 -1.9315  1.4405  0.0862
   55MOL   H26224130   2.707   0.684   2.396 -0.4384  2.5803  0.9573
   55MOL   H26324131   2.804   0.680   2.255  1.7982  0.4165  0.7874
   55MOL   H26424132   2.793   0.775   2.618  0.1200 -1.0441 -0.0241
   55MOL   H26524133   2.954   0.775   2.683 -0.8827  0.4586  1.0645
   55MOL   C26624134   2.894   0.583   2.626 -0.1199 -1.2630  0.4108
   55MOL   C26724135   3.037   0.533   2.641 -0.5960 -0.1268 -0.3573
   55MOL   C26824136   3.038   0.381   2.601  0.0525 -0.1309  0.1397
   55MOL   C26924137   3.173   0.310   2.631 -0.2366 -0.4623  0.3022
   55MOL   C27024138   3.219   0.335   2.772  0.7041 -0.1152  0.2437
   55MOL   C27124139   3.240   0.483   2.788  0.2643  0.3618 -0.3287
   55MOL   C27224140   3.103   0.560   2.779  0.1361 -0.2795  0.2041
   55MOL   C27324141   2.793   0.538   2.733 -0.3412  0.0176 -0.8873
   55MOL   H27424142   2.858   0.531   2.537  0.2314  1.8238 -1.6437
   55MOL   H27524143   3.101   0.579   2.566 -0.5438  0.6668  0.1719
   55MOL   H27624144   2.956   0.331   2.652  1.3208 -1.2944  1.0615
   55MOL   H27724145   3.026   0.371   2.493 -0.9718 -0.2518  0.2571
   55MOL   H27824146   3.243   0.337   2.552 -0.8877 -2.4737 -1.0045
   55MOL   H27924147   3.168   0.203   2.612 -1.2397 -0.6789  1.6751
   55MOL   H28024148   3.146   0.299   2.844  1.0127  0.2742  0.7515
   55MOL   H28124149   3.309   0.277   2.792  0.1069 -1.1987 -0.1726
   55MOL   H28224150   3.305   0.514   2.707  0.2954  0.7276 -0.1616
   55MOL   H28324151   3.280   0.505   2.886 -0.4742 -1.0070  0.3076
   55MOL   H28424152   3.127   0.664   2.799 -1.0588 -0.2636  1.6424
   55MOL   H28524153   3.038   0.519   2.857 -1.9766 -0.4602 -1.5960
   55MOL   H28624154   2.803   0.614   2.810  1.2090 -0.0241 -1.0324
   55MOL   H28724155   2.816   0.447   2.789 -1.5979 -0.5064 -1.1876
   55MOL   C28824156   2.648   0.536   2.679  0.0637  0.2680  0.5675
   55MOL   C28924157   2.544   0.572   2.786 -0.1770  0.2880 -0.1417
   55MOL   C29024158   2.565   0.497   2.919  0.6813  0.2989 -0.5664
   55MOL   C29124159   2.460   0.550   3.022 -0.1030  0.4674  0.7169
   55MOL   C29224160   2.472   0.706   3.049 -0.0665 -0.3533  0.7261
   55MOL   C29324161   2.447   0.782   2.916 -0.2411  0.7915  1.1719
   55MOL   C29424162   2.539   0.731   2.802 -0.5779  0.2544  0.0097
   55MOL   C29524163   2.624   0.393   2.623  0.3234 -0.3536  0.3286
   55MOL   H29624164   2.641   0.608   2.598 -2.9478 -0.6354 -0.0227
   55MOL   H29724165   2.453   0.530   2.744  0.7398  0.0178 -1.9293
   55MOL   H29824166   2.570   0.388   2.912 -0.8613  0.1538  0.4220
   55MOL   H29924167   2.661   0.523   2.965 -0.5765  2.2205  1.0672
   55MOL   H30024168   2.358   0.536   2.984 -0.2593 -0.1447  1.3627
   55MOL   H30124169   2.458   0.495   3.116  1.6421  1.6479  1.4691
   55MOL   H30224170   2.577   0.724   3.070  0.3619 -2.7162  0.7467
   55MOL   H30324171   2.402   0.744   3.124 -1.6144 -1.2622 -0.2322
   55MOL   H30424172   2.455   0.890   2.932 -0.6147  1.4224 -2.4960
   55MOL   H30524173   2.341   0.769   2.896  0.0162  0.7186 -0.1644
   55MOL   H30624174   2.641   0.766   2.812 -0.2691 -0.9366  1.0962
   55MOL   H30724175   2.504   0.777   2.709 -2.4426 -0.9007  0.1027
   55MOL   H30824176   2.721   0.353   2.593  0.6406 -0.4079  1.4159
   55MOL   H30924177   2.599   0.324   2.704 -0.7690  1.6980  1.7797
   55MOL   C31024178   2.515   0.380   2.507  0.0656 -0.8202  0.1520
   55MOL   C31124179   2.559   0.292   2.384  0.2171 -0.1323  0.6013
   55MOL   C31224180   2.647   0.372   2.295  0.5019 -0.3272  0.3969
   55MOL   C31324181   2.679   0.292   2.164  1.0663  0.2350 -0.5072
   55MOL   C31424182   2.737   0.149   2.202 -0.2122 -0.4056  0.3249
   55MOL   C31524183   2.661   0.072   2.307  0.3497  0.0697 -0.2766
   55MOL   C31624184   2.625   0.155   2.426  0.6035 -0.4100 -0.2696
   55MOL   C31724185   2.371   0.344   2.557 -0.4429  0.0061  0.5008
   55MOL   H31824186   2.506   0.476   2.457 -4.1891 -1.8020 -1.1912
   55MOL   H31924187   2.469   0.260   2.332  0.7429  0.6503 -0.8189
   55MOL   H32024188   2.592   0.463   2.268  1.4215  1.1449  3.2565
   55MOL   H32124189   2.736   0.408   2.346 -0.0328  1.0253  0.4261
   55MOL   H32224190   2.746   0.346   2.097  0.5422 -1.3454 -2.3636
   55MOL   H32324191   2.581   0.282   2.117 -0.3662  0.7622  2.2460
   55MOL   H32424192   2.750   0.092   2.109  1.3295 -0.7986  0.7709
   55MOL   H32524193   2.836   0.159   2.246 -0.5884 -1.9469  1.5571
   55MOL   H32624194   2.572   0.034   2.258  0.2845  1.8242 -1.5681
   55MOL   H32724195   2.725   7.764   2.345  0.0963 -0.1345 -0.2845
   55MOL   H32824196   2.723   0.178   2.468  1.3491 -1.8761 -1.1618
   55MOL   H32924197   2.573   0.098   2.504 -0.4520 -0.4232 -0.9784
   55MOL   H33024198   2.348   0.386   2.654  0.0997 -1.1829  1.1558
   55MOL   H33124199   2.382   0.238   2.578  3.0089  0.4122  1.0216
   55MOL   C33224200   2.239   0.378   2.471  0.2081 -0.4168 -0.0541
   55MOL   C33324201   2.198   0.531   2.486 -0.2647 -0.3060  0.6866
   55MOL   C33424202   2.302   0.644   2.443 -0.0151  0.0973 -0.2544
   55MOL   C33524203   2.233   0.781   2.422 -0.1039  0.4585  0.1118
   55MOL   C33624204   2.197   0.821   2.559  0.0846  0.4418 -0.1161
   55MOL   C33724205   2.094   0.722   2.618  1.0795 -0.5889 -0.1182
   55MOL   C33824206   2.158   0.582   2.627  0.0631  0.1059  0.6373
   55MOL   C33924207   2.146   0.261   2.517  0.2350  0.1651 -0.3689
   55MOL   H34024208   2.262   0.370   2.364  0.4733 -3.5446  0.1743
   55MOL   H34124209   2.112   0.548   2.422 -1.1900 -2.0805  1.4240
   55MOL   H34224210   2.384   0.650   2.514 -0.8393 -0.0344  0.7110
   55MOL   H34324211   2.356   0.603   2.358  0.2398 -1.3808  0.6040
   55MOL   H34424212   2.304   0.856   2.386  1.3339 -1.6480 -1.5510
   55MOL   H34524213   2.155   0.781   2.346 -1.0307  3.1328  1.0066
   55MOL   H34624214   2.275   0.824   2.636  1.2840 -1.3710 -1.2303
   55MOL   H34724215   2.146   0.917   2.561  1.3818  1.1532 -0.5859
   55MOL   H34824216   2.009   0.728   2.550  0.6253  1.4451  0.5851
   55MOL   H34924217   2.064   0.763   2.715  3.1263 -1.3665  0.8785
   55MOL   H35024218   2.093   0.505   2.670  1.2300 -1.6605 -0.7089
   55MOL   H35124219   2.250   0.588   2.686  0.3311  1.1795  0.1155
   55MOL   H35224220   2.157   0.259   2.625 -2.2685 -2.0380 -0.1129
   55MOL   H35324221   2.178   0.164   2.479  1.5843  0.1682  0.7282
   55MOL   C35424222   1.991   0.276   2.488 -0.2875  0.3450  0.2460
   55MOL   C35524223   1.892   0.216   2.595 -0.7162  0.7699 -0.1794
   55MOL   C35624224   1.889   0.294   2.727 -1.2662 -0.0667  0.3433
   55MOL   C35724225   1.786   0.229   2.823 -0.0233  0.3258 -0.7100
   55MOL   C35824226   1.811   0.083   2.850 -0.0108  0.0310  0.1926
   55MOL   C35924227   1.787   0.009   2.719  0.1541  0.5158  0.0478
   55MOL   C36024228   1.896   0.058   2.624  0.3722 -0.4961 -0.0908
   55MOL   C36124229   1.951   0.219   2.352  0.4705 -0.1325  0.3783
   55MOL   H36224230   1.966   0.382   2.496 -4.0792 -0.5337  0.9021
   55MOL   H36324231   1.796   0.241   2.549  0.2976  1.7437 -1.8226
   55MOL   H36424232   1.874   0.402   2.727 -1.9124 -0.1356  2.2741
   55MOL   H36524233   1.982   0.287   2.783 -0.1389  3.0194 -0.9982
   55MOL   H36624234   1.779   0.286   2.915  0.4224 -0.3237 -0.2709
   55MOL   H36724235   1.697   0.246   2.763 -1.1797 -1.4574  0.4743
   55MOL   H36824236   1.908   0.063   2.896  0.9926  0.8975 -1.4797
   55MOL   H36924237   1.732   0.045   2.914 -1.0044  0.9615 -0.4686
   55MOL   H37024238   1.792   7.673   2.727 -0.7905  0.4241 -0.5961
   55MOL   H37124239   1.689   0.031   2.678 -0.2359 -0.0315  0.6708
   55MOL   H37224240   1.875   0.004   2.531  0.4416  0.2306 -0.5313
   55MOL   H37324241   1.997   0.030   2.652  1.5179  3.5551  0.1011
   55MOL   H37424242   1.893   0.126   2.352 -1.2158  0.8730  1.5798
   55MOL   H37524243   2.040   0.184   2.301 -0.5974 -0.1503 -1.5118
   55MOL   C37624244   1.866   0.311   2.254 -0.3211  0.5565 -0.5876
   55MOL   C37724245   1.967   0.408   2.182 -0.0091  0.0208  0.5411
   55MOL   C37824246   1.909   0.545   2.151 -0.4030  0.5525  1.2677
   55MOL   C37924247   2.017   0.644   2.105  0.0121 -0.0805  0.1570
   55MOL   C38024248   2.090   0.588   1.980  0.5832 -0.0279 -0.3816
   55MOL   C38124249   2.162   0.448   2.012  0.6773 -0.3922  0.0658
   55MOL   C38224250   2.051   0.359   2.061 -0.5619 -0.9055  0.1682
   55MOL   C38324251   1.772   0.234   2.154  1.0011  0.2810 -0.8754
   55MOL   H38424252   1.801   0.373   2.316 -1.6702 -2.2590  0.9414
   55MOL   H38524253   2.030   0.432   2.267 -0.9728  0.6481  1.0932
   55MOL   H38624254   1.842   0.524   2.067  1.4661  1.3503 -0.4572
   55MOL   H38724255   1.851   0.586   2.234 -1.5227  1.9149 -0.1575
   55MOL   H38824256   2.089   0.665   2.184  0.8923 -4.7895  0.7581
   55MOL   H38924257   1.978   0.741   2.077 -0.2800 -0.5895 -1.2456
   55MOL   H39024258   2.024   0.584   1.894 -0.0255  0.2253  0.0670
   55MOL   H39124259   2.162   0.666   1.959  0.2121  0.4090 -0.0376
   55MOL   H39224260   2.221   0.406   1.931 -0.5407 -2.1769  0.0728
   55MOL   H39324261   2.242   0.454   2.086  0.3571  1.4111  0.2916
   55MOL   H39424262   1.976   0.338   1.986 -1.0966  1.3031  0.0632
   55MOL   H39524263   2.091   0.259   2.081 -2.2681 -2.2023 -2.6158
   55MOL   H39624264   1.826   0.144   2.125  1.7719  0.4355  0.0494
   55MOL   H39724265   1.767   0.294   2.063  2.1687 -0.7061 -1.5968
   55MOL   C39824266   1.622   0.210   2.200  0.1321  0.0467  0.3908
   55MOL   C39924267   1.602   0.099   2.300  0.2087  0.1497  0.1906
   55MOL   C40024268   1.447   0.083   2.333  1.0552 -0.4897  0.3770
   55MOL   C40124269   1.417   7.739   2.417  0.0497 -0.2488  0.6907
   55MOL   C40224270   1.472   7.611   2.363  0.3823 -0.5613 -0.2595
   55MOL   C40324271   1.624   7.619   2.339 -0.8297 -0.5892  0.9453
   55MOL   C40424272   1.656   7.738   2.250 -0.1115  0.4115 -0.5769
   55MOL   C40524273   1.566   0.348   2.247 -0.3159  0.1699  0.4437
   55MOL   H40624274   1.568   0.183   2.109 -1.2498 -1.3090  1.5964
   55MOL   H40724275   1.647   0.142   2.389 -1.7187  1.1437  0.7043
   55MOL   H40824276   1.398   0.083   2.235 -0.4548  0.4872  1.1157
   55MOL   H40924277   1.405   0.171   2.381  0.9524 -0.0249 -0.5445
   55MOL   H41024278   1.309   7.727   2.422  0.1538 -1.7179 -0.2805
   55MOL   H41124279   1.463   7.763   2.513 -0.7341  2.6363  0.3857
   55MOL   H41224280   1.430   7.580   2.267  2.4561  4.3438 -2.9276
   55MOL   H41324281   1.447   7.528   2.429  0.3719  0.5510  1.1619
   55MOL   H41424282   1.670   7.639   2.435 -1.2225  3.0792  0.4245
   55MOL   H41524283   1.662   7.523   2.302 -1.6511 -0.7465  0.4988
   55MOL   H41624284   1.765   7.738   2.243 -0.0136  1.8592  0.6380
   55MOL   H41724285   1.626   7.721   2.147 -0.8983 -0.8208 -0.1533
   55MOL   H41824286   1.552   0.356   2.354  0.3421  1.5783  0.4326
   55MOL   H41924287   1.635   0.431   2.233 -1.6716  1.5067  1.6208
   55MOL   C42024288   1.436   0.400   2.191 -0.0217 -0.0791  0.4712
   55MOL   C42124289   1.464   0.470   2.047 -0.3519 -0.2442  0.3085
   55MOL   C42224290   1.526   0.613   2.045 -0.8842 -0.6036 -0.2199
   55MOL   C42324291   1.549   0.672   1.903 -0.0693 -0.8954 -0.5571
   55MOL   C42424292   1.417   0.681   1.819 -0.3174  0.3120 -0.1324
   55MOL   C42524293   1.348   0.545   1.816  0.2223  0.0919 -0.5318
   55MOL   C42624294   1.328   0.490   1.961 -0.4105 -0.2855 -0.0454
   55MOL   C42724295   1.363   0.488   2.300  0.3908 -0.9675  0.1096
   55MOL   H42824296   1.367   0.319   2.168  0.9846 -0.9782  0.5636
   55MOL   H42924297   1.521   0.403   1.983 -1.0079 -0.6487  0.1401
   55MOL   H43024298   1.470   0.686   2.103  1.3166  0.1723  1.0202
   55MOL   H43124299   1.619   0.618   2.102 -1.0082  3.1431 -0.2127
   55MOL   H43224300   1.586   0.771   1.928  0.9154 -0.8933 -1.9435
   55MOL   H43324301   1.617   0.611   1.843  0.5582  0.1412 -0.9109
   55MOL   H43424302   1.441   0.710   1.717 -0.7843 -0.7932 -0.5662
   55MOL   H43524303   1.352   0.761   1.852 -0.7796 -0.0454 -0.1690
   55MOL   H43624304   1.414   0.483   1.755 -0.1885 -0.3385 -0.5404
   55MOL   H43724305   1.253   0.553   1.762  0.2926 -2.0817 -1.0493
   55MOL   H43824306   1.262   0.560   2.011  1.6181  1.6310  0.0541
   55MOL   H43924307   1.270   0.398   1.953  0.4485 -0.6792 -2.0238
   55MOL   H44024308   1.260   0.496   2.265  0.9470  0.3770 -1.2971
   55MOL   H44124309   1.364   0.445   2.400  1.0392  0.9296  0.9360
   55MOL   H44224310   1.419   0.581   2.302 -0.8597 -0.2071 -0.1473
   56MOL     C124311   5.162   0.320   4.478  0.5666 -1.0739  1.5202
   56MOL     C224312   5.255   0.365   4.366  0.2174 -0.8232  0.5533
   56MOL     C324313   5.380   0.278   4.348 -0.3141  0.4630 -0.4697
   56MOL     C424314   5.464   0.341   4.233 -0.2253 -0.7598  0.2942
   56MOL     C524315   5.501   0.489   4.276  0.0394 -0.5233  0.2727
   56MOL     C624316   5.377   0.577   4.271 -0.9381 -0.2033  0.3476
   56MOL     C724317   5.283   0.524   4.370  0.2393 -0.4492  0.2623
   56MOL     C824318   5.055   0.219   4.427 -0.7159  0.4427 -0.4573
   56MOL     H924319   5.218   0.286   4.566 -0.5116 -1.4473  2.0756
   56MOL    H1024320   5.190   0.365   4.278  0.3329 -1.2030  0.4655
   56MOL    H1124321   5.445   0.270   4.435 -0.7136 -0.0889 -0.2181
   56MOL    H1224322   5.352   0.176   4.320 -0.9561  0.5920 -0.2997
   56MOL    H1324323   5.410   0.335   4.139  0.8961  2.1807 -0.5607
   56MOL    H1424324   5.559   0.286   4.234  1.4860  2.0725 -0.1370
   56MOL    H1524325   5.579   0.540   4.220 -1.2202  0.5279 -0.5579
   56MOL    H1624326   5.542   0.492   4.377 -0.0637  1.6488  0.2849
   56MOL    H1724327   5.394   0.684   4.283 -0.2495 -0.1142 -1.2371
   56MOL    H1824328   5.326   0.573   4.175  1.6722 -0.5009 -1.0946
   56MOL    H1924329   5.187   0.575   4.359  0.4890  0.5502  2.3908
   56MOL    H2024330   5.305   0.546   4.475  0.1456 -0.7114  0.3378
   56MOL    H2124331   5.101   0.144   4.363 -2.0732 -1.6267  0.9179
   56MOL    H2224332   4.989   0.267   4.355 -0.5540 -0.8387 -1.4713
   56MOL    H2324333   5.113   0.413   4.507  0.6752 -0.1450 -1.1740
   56MOL    C2424334   4.983   0.153   4.543 -0.3901  0.4529 -0.7943
   56MOL    C2524335   4.835   0.139   4.507 -0.2733  0.8419 -0.1233
   56MOL    C2624336   4.744   0.092   4.625 -0.4095 -0.0103  0.3821
   56MOL    C2724337   4.600   0.110   4.581  0.4545 -0.6889 -0.1250
   56MOL    C2824338   4.565   0.013   4.469  0.4566 -0.3965 -0.4555
   56MOL    C2924339   4.657   0.039   4.351  0.4923 -0.4881 -0.2759
   56MOL    C3024340   4.803   0.056   4.382  0.2987 -0.7768  0.2990
   56MOL    C3124341   5.045   0.012   4.562  0.1188  0.9984 -0.1217
   56MOL    H3224342   4.987   0.216   4.632 -3.3731  0.0491 -0.3337
   56MOL    H3324343   4.798   0.239   4.482  0.7222 -0.0467 -5.7130
   56MOL    H3424344   4.754   0.144   4.720 -0.8686  0.6778  0.0552
   56MOL    H3524345   4.757   7.758   4.648  1.5221  0.2909  0.7762
   56MOL    H3624346   4.545   0.090   4.673  1.3268  1.2578  0.8589
   56MOL    H3724347   4.581   0.210   4.542  1.3187 -1.0833 -1.6150
   56MOL    H3824348   4.460   0.010   4.440  0.4923  0.0545 -0.6345
   56MOL    H3924349   4.573   7.683   4.508 -0.9156 -0.6985 -0.9339
   56MOL    H4024350   4.648   7.735   4.273 -2.4572  1.4863 -1.9768
   56MOL    H4124351   4.627   0.132   4.302  0.5195  0.0108  0.6630
   56MOL    H4224352   4.852   7.731   4.381 -1.5925 -1.7783  1.8062
   56MOL    H4324353   4.852   0.112   4.302  1.6272 -0.7026  1.1391
   56MOL    H4424354   5.027   7.717   4.478 -0.5171 -0.1057  0.8938
   56MOL    H4524355   4.982   7.742   4.641  0.0378 -0.7939 -1.1142
   56MOL    C4624356   5.190   7.765   4.623 -0.5862  0.4503  0.2399
   56MOL    C4724357   5.223   7.615   4.605  0.1505  0.2909  0.2873
   56MOL    C4824358   5.278   7.586   4.461  0.3996 -0.1407 -0.2662
   56MOL    C4924359   5.329   7.442   4.439  0.4468 -0.3155 -0.0744
   56MOL    C5024360   5.223   7.347   4.476 -0.6622  0.3840 -1.2839
   56MOL    C5124361   5.197   7.363   4.626 -0.6205 -0.3392 -0.1071
   56MOL    C5224362   5.123   7.501   4.637 -0.0055  0.0960 -0.1796
   56MOL    C5324363   5.217   0.041   4.770 -0.2989 -0.1573  0.2012
   56MOL    H5424364   5.260   0.055   4.569  0.8661 -1.3360  0.0258
   56MOL    H5524365   5.304   7.597   4.674  0.2733  0.5658  0.2176
   56MOL    H5624366   5.205   7.607   4.383 -2.3679  0.6814  2.4499
   56MOL    H5724367   5.354   7.661   4.443 -2.6275  3.1104  0.0137
   56MOL    H5824368   5.427   7.412   4.475 -0.1912 -0.8461  1.2442
   56MOL    H5924369   5.355   7.431   4.334 -0.5851 -2.8391 -0.0986
   56MOL    H6024370   5.130   7.347   4.419 -0.6937 -0.9017 -1.2565
   56MOL    H6124371   5.275   7.252   4.463 -0.3121  0.4101 -0.1074
   56MOL    H6224372   5.296   7.365   4.673 -0.2686  1.0042 -0.8734
   56MOL    H6324373   5.139   7.282   4.671  2.0476 -1.6107  1.1681
   56MOL    H6424374   5.031   7.509   4.578  1.5005 -0.3596 -2.6928
   56MOL    H6524375   5.092   7.506   4.741  2.1530 -0.1693  0.4906
   56MOL    H6624376   5.165   7.754   4.845 -0.5271  1.7445  1.5838
   56MOL    H6724377   5.166   0.137   4.778 -2.2858 -1.0586 -1.3397
   56MOL    C6824378   5.363   0.055   4.823 -0.0320 -0.5991 -0.2007
   56MOL    C6924379   5.428   0.190   4.774 -0.0103  0.3164 -0.1178
   56MOL    C7024380   5.379   0.330   4.825 -0.1932 -0.3231  0.2559
   56MOL    C7124381   5.451   0.446   4.756  0.9918  0.4960  0.5607
   56MOL    C7224382   5.601   0.429   4.775  0.7266  0.2999  0.4292
   56MOL    C7324383   5.656   0.292   4.728 -0.2830 -0.0262  0.2922
   56MOL    C7424384   5.575   0.181   4.798 -0.0267 -0.2354  0.3779
   56MOL    C7524385   5.379   0.031   4.978  0.3944 -0.0872  0.1582
   56MOL    H7624386   5.409   7.742   4.772 -1.1284 -0.8629 -0.7560
   56MOL    H7724387   5.412   0.185   4.667 -0.2179 -0.7802 -0.0373
   56MOL    H7824388   5.379   0.340   4.934 -1.9756  2.2476  0.0805
   56MOL    H7924389   5.276   0.338   4.789  0.8608 -0.7799 -2.9546
   56MOL    H8024390   5.448   0.446   4.647  1.3964  1.2473  0.5468
   56MOL    H8124391   5.424   0.551   4.764  3.8564  1.3156  0.1463
   56MOL    H8224392   5.608   0.419   4.883 -1.3183  0.2760  0.5661
   56MOL    H8324393   5.653   0.516   4.735  1.4403 -0.4487 -0.3172
   56MOL    H8424394   5.763   0.277   4.742 -0.4548 -1.4657  0.1441
   56MOL    H8524395   5.642   0.288   4.620 -0.5669 -0.5260  0.3413
   56MOL    H8624396   5.592   0.188   4.905  0.3838  0.8540  0.2431
   56MOL    H8724397   5.620   0.085   4.771  0.4823 -0.2838  1.3918
   56MOL    H8824398   5.462   0.091   5.016  0.5760 -0.8954  1.0471
   56MOL    H8924399   5.293   0.077   5.027  1.1092  0.3929  0.9809
   56MOL    C9024400   5.397   7.648   5.015 -0.6086  0.9126 -0.2115
   56MOL    C9124401   5.536   7.591   4.985 -0.4393 -0.0880  0.5241
   56MOL    C9224402   5.647   7.653   5.076 -0.1973  0.3722 -0.2151
   56MOL    C9324403   5.785   7.596   5.039  0.1222  0.6913  0.8825
   56MOL    C9424404   5.794   7.441   5.042  0.1397  0.2391 -0.3188
   56MOL    C9524405   5.687   7.384   4.946  0.3009  0.0267 -0.0484
   56MOL    C9624406   5.548   7.439   4.982  0.1753  0.3512 -0.2688
   56MOL    C9724407   5.331   7.605   5.154 -0.5596 -0.2970 -0.1770
   56MOL    H9824408   5.325   7.600   4.949  1.0494 -3.2421  0.8421
   56MOL    H9924409   5.550   7.619   4.880  0.8226 -1.2839  0.3581
   56MOL   H10024410   5.626   7.621   5.178  4.2334  1.8426  1.2710
   56MOL   H10124411   5.649   7.762   5.080  0.3728  0.5098 -2.9396
   56MOL   H10224412   5.864   7.633   5.104 -0.4587  0.1156  1.9195
   56MOL   H10324413   5.805   7.620   4.934  1.3465  0.1149  0.9701
   56MOL   H10424414   5.774   7.412   5.145 -0.3222  1.1621 -0.1378
   56MOL   H10524415   5.892   7.408   5.008 -0.2572  0.8237 -2.1219
   56MOL   H10624416   5.691   7.401   4.838  0.5725  1.1951  0.1450
   56MOL   H10724417   5.690   7.275   4.953  0.0511  0.0042 -0.2493
   56MOL   H10824418   5.473   7.391   4.919  0.9943  0.7430 -1.5533
   56MOL   H10924419   5.528   7.400   5.082  3.2932 -0.3524  0.1371
   56MOL   H11024420   5.413   7.619   5.225 -1.5867  0.1102  0.9401
   56MOL   H11124421   5.258   7.678   5.189  1.8647  1.1117  2.1230
   56MOL   C11224422   5.253   7.480   5.179 -0.6824 -0.8386  0.4055
   56MOL   C11324423   5.122   7.481   5.097 -0.1061  0.0812  0.2748
   56MOL   C11424424   5.011   7.578   5.145 -0.4264 -1.0517  0.6471
   56MOL   C11524425   4.883   7.567   5.050 -0.0941 -0.1671 -0.1012
   56MOL   C11624426   4.839   7.428   5.028  0.0270 -0.5265 -0.2314
   56MOL   C11724427   4.952   7.328   4.981  0.7351  0.5792  0.5638
   56MOL   C11824428   5.062   7.336   5.081 -0.5849 -0.5414  0.1735
   56MOL   C11924429   5.237   7.461   5.337  0.3007 -0.5758  0.4656
   56MOL   H12024430   5.309   7.394   5.143 -0.0834  0.5544 -2.1036
   56MOL   H12124431   5.146   7.496   4.992  0.1801 -2.4039 -0.0530
   56MOL   H12224432   5.043   7.682   5.155 -3.8537  0.0944  0.5263
   56MOL   H12324433   4.980   7.540   5.242  1.0462 -3.1561  0.3164
   56MOL   H12424434   4.794   7.614   5.091  1.1252  1.5071  0.6974
   56MOL   H12524435   4.904   7.613   4.954 -0.6351 -2.3622 -1.2987
   56MOL   H12624436   4.794   7.394   5.121  0.6095 -0.3041  0.1362
   56MOL   H12724437   4.764   7.409   4.951  1.0223 -2.7224 -0.7166
   56MOL   H12824438   4.912   7.228   4.967 -0.0401  1.0364 -0.6398
   56MOL   H12924439   4.984   7.356   4.880 -0.1232 -0.9928 -0.1616
   56MOL   H13024440   5.140   7.267   5.050 -0.4604  0.3835 -1.6490
   56MOL   H13124441   5.020   7.305   5.177 -2.5141  0.4057 -0.3260
   56MOL   H13224442   5.158   7.390   5.362  1.1423 -2.2025 -1.3831
   56MOL   H13324443   5.181   7.552   5.362 -0.7729 -1.0339 -0.2130
   56MOL   C13424444   5.360   7.426   5.415  0.2446  0.5597  0.5381
   56MOL   C13524445   5.371   7.275   5.456  0.4120  0.7108  0.6383
   56MOL   C13624446   5.505   7.237   5.522  0.8001 -0.0837 -0.1598
   56MOL   C13724447   5.502   7.087   5.566 -0.7388  0.3228  0.6602
   56MOL   C13824448   5.494   7.010   5.439 -0.4143  0.1971  0.5065
   56MOL   C13924449   5.357   7.033   5.377 -0.6382  0.1465 -0.3143
   56MOL   C14024450   5.343   7.182   5.331 -0.3135  0.1662 -0.0300
   56MOL   C14124451   5.359   7.518   5.533 -0.3026  0.0029  0.2986
   56MOL   H14224452   5.452   7.448   5.360  0.0774  2.4163  0.9610
   56MOL   H14324453   5.293   7.245   5.526  1.0700 -1.5781  0.4251
   56MOL   H14424454   5.592   7.261   5.461 -0.2873  4.2182 -0.1419
   56MOL   H14524455   5.534   7.297   5.608 -0.9469  0.4832  0.0515
   56MOL   H14624456   5.427   7.072   5.644  0.6884 -3.0212  1.4647
   56MOL   H14724457   5.592   7.057   5.619 -2.0601 -0.5243  2.4826
   56MOL   H14824458   5.558   7.059   5.366 -0.8896 -0.4292 -0.3353
   56MOL   H14924459   5.522   6.906   5.453  0.9582  0.3382 -1.0886
   56MOL   H15024460   5.279   7.017   5.450  0.6636  0.0824  1.0812
   56MOL   H15124461   5.338   6.954   5.304  0.9083  0.4142 -1.0235
   56MOL   H15224462   5.423   7.202   5.259 -0.6100 -0.8269 -0.6518
   56MOL   H15324463   5.252   7.200   5.275  0.3201  0.9424 -0.8184
   56MOL   H15424464   5.411   7.464   5.613 -1.0285 -0.1694  0.6620
   56MOL   H15524465   5.263   7.512   5.583 -0.6922 -0.3826 -0.4887
   56MOL   C15624466   5.424   7.656   5.521 -0.3715 -0.7855  0.0505
   56MOL   C15724467   5.581   7.653   5.508  0.3460 -0.5858  0.5232
   56MOL   C15824468   5.633   0.007   5.445 -0.9647  0.2911  0.1993
   56MOL   C15924469   5.787   7.763   5.408 -0.6199 -0.1477  0.5429
   56MOL   C16024470   5.863   7.739   5.535  0.3933  0.9628 -0.4033
   56MOL   C16124471   5.813   7.619   5.617  0.2218  0.4895 -0.5181
   56MOL   C16224472   5.662   7.629   5.640 -0.6110  0.0745 -0.2472
   56MOL   C16324473   5.370   7.761   5.628  0.4320  0.0600  0.0680
   56MOL   H16424474   5.386   7.697   5.427  0.4098  0.7142  0.3720
   56MOL   H16524475   5.612   7.568   5.448  1.7239  0.3388 -0.1088
   56MOL   H16624476   5.574   0.024   5.355 -2.1981 -2.0142  0.5322
   56MOL   H16724477   5.614   0.089   5.514  2.6461 -1.6898  3.7243
   56MOL   H16824478   5.804   7.691   5.328  0.8417 -0.2723  0.9391
   56MOL   H16924479   5.818   0.092   5.381 -1.1976  0.2468  1.3443
   56MOL   H17024480   5.855   0.060   5.591 -0.6980  2.0763 -2.3497
   56MOL   H17124481   5.966   7.715   5.509  0.8795  2.0162  0.5003
   56MOL   H17224482   5.869   7.620   5.710 -0.6451  1.2169  0.0092
   56MOL   H17324483   5.838   7.527   5.564 -0.1414  0.6972 -1.0627
   56MOL   H17424484   5.637   7.538   5.694  1.7572 -1.6321 -1.9338
   56MOL   H17524485   5.644   7.712   5.708  1.8045  0.5096 -0.0871
   56MOL   H17624486   5.433   0.078   5.633  1.1688 -0.3845 -0.9018
   56MOL   H17724487   5.383   7.711   5.724 -0.2996  1.7506  1.0623
   56MOL   C17824488   5.225   0.042   5.605 -0.2384  0.1803  0.7325
   56MOL   C17924489   5.143   0.058   5.732 -0.8261  0.2551 -0.5900
   56MOL   C18024490   5.218   0.144   5.836 -1.1053 -0.0576  0.3985
   56MOL   C18124491   5.132   0.167   5.956  0.3616  0.3743  0.0212
   56MOL   C18224492   5.122   0.035   6.028  0.1547 -0.7051 -0.0244
   56MOL   C18324493   5.039   7.714   5.930  0.0472 -0.4371 -0.4988
   56MOL   C18424494   5.108   7.692   5.799 -0.3546  0.2129 -0.3668
   56MOL   C18524495   5.232   0.164   5.513 -0.0558 -0.4872 -0.0362
   56MOL   H18624496   5.175   7.738   5.546  0.1692 -0.0306  0.6576
   56MOL   H18724497   5.050   0.106   5.703 -1.6266 -0.4994  0.7113
   56MOL   H18824498   5.311   0.097   5.867 -0.9799  0.3866  0.6921
   56MOL   H18924499   5.250   0.238   5.791  1.2411 -1.1809 -0.4042
   56MOL   H19024500   5.035   0.212   5.932 -1.4255 -2.9659  0.5999
   56MOL   H19124501   5.171   0.250   6.015  0.8155 -0.6551  1.1678
   56MOL   H19224502   5.223   7.767   6.036  0.8820  0.6972 -1.9629
   56MOL   H19324503   5.087   0.045   6.131 -0.4764  0.1342 -0.3269
   56MOL   H19424504   4.942   7.764   5.923 -0.8903 -2.1538 -0.3323
   56MOL   H19524505   5.005   7.618   5.971 -1.7469  0.5544  0.3991
   56MOL   H19624506   5.199   7.636   5.820 -0.8481  0.0382  1.3604
   56MOL   H19724507   5.048   7.629   5.733  1.0115 -2.7886  1.1422
   56MOL   H19824508   5.295   0.232   5.571  1.6111 -0.3064 -1.9667
   56MOL   H19924509   5.296   0.145   5.426  0.1390 -0.1617  0.0347
   56MOL   C20024510   5.101   0.232   5.465 -0.3203  0.4603 -0.4385
   56MOL   C20124511   5.133   0.378   5.414 -0.0736  0.5964  0.4614
   56MOL   C20224512   5.169   0.480   5.515 -0.3469  0.0480 -0.5088
   56MOL   C20324513   5.164   0.618   5.446 -0.4728  0.4175  0.3470
   56MOL   C20424514   5.262   0.628   5.327 -0.4783  0.2593 -0.5012
   56MOL   C20524515   5.224   0.526   5.224  1.0027  0.2051 -0.0066
   56MOL   C20624516   5.230   0.386   5.291 -0.4345 -0.2423 -0.8182
   56MOL   C20724517   5.022   0.141   5.364  0.5835  0.2867 -0.1762
   56MOL   H20824518   5.038   0.240   5.554  0.3845 -2.6156  0.3912
   56MOL   H20924519   5.040   0.421   5.376 -0.2084 -1.0751 -1.1657
   56MOL   H21024520   5.265   0.469   5.564 -1.5267  0.6874  2.0255
   56MOL   H21124521   5.097   0.473   5.597 -1.0710  1.2208 -1.0203
   56MOL   H21224522   5.062   0.649   5.424 -0.3172  0.3420 -0.5225
   56MOL   H21324523   5.193   0.697   5.516  0.9776  1.7690 -1.7001
   56MOL   H21424524   5.251   0.722   5.273 -0.3978  0.1393 -0.7280
   56MOL   H21524525   5.369   0.631   5.344 -0.4202  1.9375 -1.0416
   56MOL   H21624526   5.124   0.547   5.186  0.9656  0.2169  0.0973
   56MOL   H21724527   5.300   0.520   5.146  1.4679  1.9999  0.2862
   56MOL   H21824528   5.198   0.309   5.221 -3.5670  0.4851 -0.2952
   56MOL   H21924529   5.332   0.366   5.325 -0.9872 -0.0718  1.0144
   56MOL   H22024530   5.098   0.133   5.286  1.2466 -0.6662  0.5551
   56MOL   H22124531   5.028   0.035   5.388 -1.8443 -0.2176 -1.6699
   56MOL   C22224532   4.882   0.190   5.320  0.0453 -0.2287  0.1340
   56MOL   C22324533   4.887   0.269   5.191  0.0693  0.1757 -0.3440
   56MOL   C22424534   4.757   0.351   5.169  0.7445  0.2281  0.0410
   56MOL   C22524535   4.740   0.427   5.037  0.0142 -0.3654  0.1354
   56MOL   C22624536   4.772   0.333   4.922 -0.3069 -0.3646  0.8591
   56MOL   C22724537   4.906   0.271   4.944  0.5434 -0.6924  0.0258
   56MOL   C22824538   4.905   0.175   5.064 -0.0157 -0.5681  0.0029
   56MOL   C22924539   4.769   0.083   5.341  0.3067  0.3778  0.3779
   56MOL   H23024540   4.864   0.269   5.393  1.4039  2.3035 -2.2030
   56MOL   H23124541   4.972   0.336   5.193  0.5744 -0.4097 -1.3919
   56MOL   H23224542   4.679   0.276   5.153  0.4589  0.6444 -0.5452
   56MOL   H23324543   4.750   0.422   5.252  1.4814 -0.1148  0.3972
   56MOL   H23424544   4.820   0.502   5.039 -1.1189  0.9768 -2.5683
   56MOL   H23524545   4.654   0.492   5.018  0.1976 -0.3218 -0.5451
   56MOL   H23624546   4.688   0.264   4.916 -2.0916  1.6504  1.5785
   56MOL   H23724547   4.773   0.388   4.828  0.4783  0.7050  1.4885
   56MOL   H23824548   4.970   0.356   4.967 -1.6002  0.8500  0.4691
   56MOL   H23924549   4.949   0.228   4.853  0.6791 -0.7991  0.1414
   56MOL   H24024550   4.829   0.098   5.049 -3.1566  2.7700 -1.8076
   56MOL   H24124551   4.997   0.119   5.079  0.7314  0.9770  1.2647
   56MOL   H24224552   4.809   7.763   5.299 -0.0760  0.6171 -0.5314
   56MOL   H24324553   4.686   0.117   5.280  0.9985  1.5039  0.0522
   56MOL   C24424554   4.731   0.064   5.492  0.3851 -0.6251 -0.3768
   56MOL   C24524555   4.678   7.697   5.532 -0.0601 -0.1594 -0.7440
   56MOL   C24624556   4.788   7.588   5.528 -0.2291 -0.0068  0.7113
   56MOL   C24724557   4.736   7.455   5.579 -0.8708 -0.5111 -0.0923
   56MOL   C24824558   4.615   7.410   5.496  0.8714 -0.4257 -0.0961
   56MOL   C24924559   4.501   7.512   5.504 -0.8548 -0.6417  0.3835
   56MOL   C25024560   4.556   7.649   5.455 -0.2974 -0.0872 -0.2060
   56MOL   C25124561   4.622   0.176   5.526 -0.6060  0.7641  0.2511
   56MOL   H25224562   4.820   0.082   5.552 -0.8173  0.5860  1.1157
   56MOL   H25324563   4.646   7.707   5.635  0.2457  0.2395 -0.6860
   56MOL   H25424564   4.871   7.621   5.592 -0.0693 -0.9011  0.9657
   56MOL   H25524565   4.825   7.571   5.427 -2.2566  0.5882 -0.1441
   56MOL   H25624566   4.807   7.377   5.607 -1.5638 -0.2983  2.3631
   56MOL   H25724567   4.705   7.470   5.682 -1.5631 -0.1686 -0.3452
   56MOL   H25824568   4.650   7.395   5.393 -0.6167 -3.0493 -0.2647
   56MOL   H25924569   4.574   7.312   5.522 -0.9197  0.6267  1.1164
   56MOL   H26024570   4.462   7.522   5.605 -0.8191 -2.1866  0.5689
   56MOL   H26124571   4.415   7.481   5.444 -2.0067  0.7109  1.3309
   56MOL   H26224572   4.587   7.634   5.351 -1.0491 -1.0032 -0.3015
   56MOL   H26324573   4.471   7.716   5.469  1.7806  2.2411  1.7332
   56MOL   H26424574   4.526   0.163   5.475 -0.2761  0.7291 -0.3652
   56MOL   H26524575   4.661   0.263   5.473  0.6685  0.3099  0.4400
   56MOL   C26624576   4.591   0.202   5.677 -0.6632  0.8815 -0.4877
   56MOL   C26724577   4.590   0.356   5.706  0.6526 -0.0369 -0.0871
   56MOL   C26824578   4.481   0.426   5.621  0.4606  0.6336  0.3216
   56MOL   C26924579   4.478   0.575   5.653 -0.0413 -0.2901  0.6413
   56MOL   C27024580   4.608   0.646   5.648 -0.2947 -0.2759 -0.1306
   56MOL   C27124581   4.725   0.573   5.719 -0.4724  0.2639  0.2279
   56MOL   C27224582   4.727   0.426   5.683 -0.2200 -0.2328 -0.5627
   56MOL   C27324583   4.460   0.130   5.722 -0.2073  0.4161  0.8258
   56MOL   H27424584   4.674   0.168   5.739  1.5724  2.2380 -2.6899
   56MOL   H27524585   4.564   0.373   5.810  2.1235 -1.6825  0.5826
   56MOL   H27624586   4.505   0.403   5.517  1.0269  3.5835 -0.2339
   56MOL   H27724587   4.377   0.394   5.632  1.0385 -1.4723 -0.0289
   56MOL   H27824588   4.442   0.581   5.756  2.1366 -0.0573  1.4086
   56MOL   H27924589   4.405   0.621   5.587 -0.2287  0.5742  1.4389
   56MOL   H28024590   4.628   0.664   5.543 -1.3292 -2.0094 -0.6287
   56MOL   H28124591   4.604   0.744   5.696  2.3854  0.4724 -1.3412
   56MOL   H28224592   4.713   0.579   5.827  1.7942  0.0527  0.5155
   56MOL   H28324593   4.824   0.610   5.692 -0.7641  0.3250 -0.7660
   56MOL   H28424594   4.800   0.368   5.740 -0.6684 -1.1226 -0.8820
   56MOL   H28524595   4.762   0.421   5.580  0.7427  2.4018 -0.3887
   56MOL   H28624596   4.460   0.029   5.679  0.2444  1.2342 -1.1549
   56MOL   H28724597   4.376   0.171   5.666  3.2166  3.0467 -2.6384
   56MOL   C28824598   4.441   0.120   5.878 -0.3800 -0.1177 -0.0996
   56MOL   C28924599   4.478   7.759   5.952 -0.4290  0.1225  0.3370
   56MOL   C29024600   4.402   7.634   5.896 -0.4064 -0.8081 -0.4826
   56MOL   C29124601   4.419   7.506   5.981  0.8731  0.5089  0.4534
   56MOL   C29224602   4.564   7.474   6.001 -0.0946  0.3824  0.3291
   56MOL   C29324603   4.653   7.595   6.042  0.5301  0.0177 -0.4509
   56MOL   C29424604   4.628   7.725   5.963 -0.9708 -0.1472 -0.1378
   56MOL   C29524605   4.302   0.170   5.923 -0.7268  0.7884 -0.2118
   56MOL   H29624606   4.511   0.194   5.915 -3.7056  1.9519  2.3642
   56MOL   H29724607   4.449   7.771   6.056 -3.4128  0.6531 -0.5174
   56MOL   H29824608   4.299   7.669   5.893 -0.8695 -1.6508  3.4094
   56MOL   H29924609   4.431   7.618   5.792 -1.8721 -0.5309 -0.9414
   56MOL   H30024610   4.371   7.526   6.077  0.3191  0.4174  0.1947
   56MOL   H30124611   4.371   7.419   5.936 -0.4029  1.7545 -0.6457
   56MOL   H30224612   4.590   7.425   5.907 -0.7099  0.1691  0.2708
   56MOL   H30324613   4.567   7.401   6.082 -1.2372  1.6923  1.5906
   56MOL   H30424614   4.755   7.555   6.035  0.0292 -1.3943  0.0759
   56MOL   H30524615   4.636   7.617   6.148 -2.9114  0.0053 -0.9441
   56MOL   H30624616   4.675   7.697   5.869 -0.9142 -4.6630  1.1363
   56MOL   H30724617   4.689   0.041   5.986 -0.7773 -0.0583 -0.9763
   56MOL   H30824618   4.242   0.191   5.834  1.5444  1.3610 -1.6725
   56MOL   H30924619   4.243   0.098   5.978  2.4715 -1.3297  0.5947
   56MOL   C31024620   4.308   0.305   6.000 -0.0842  0.1894  0.4797
   56MOL   C31124621   4.169   0.379   5.980 -0.0779 -0.2022  0.2837
   56MOL   C31224622   4.049   0.302   6.041  0.1558 -0.2041  0.4133
   56MOL   C31324623   3.911   0.364   6.029 -0.0866 -0.5559  0.2524
   56MOL   C31424624   3.915   0.507   6.079  0.5413 -0.6935 -0.6105
   56MOL   C31524625   4.034   0.592   6.028  0.4160  0.3473  0.2705
   56MOL   C31624626   4.171   0.524   6.036  0.0407 -0.6979 -0.0875
   56MOL   C31724627   4.352   0.280   6.148 -0.4240 -0.5272  0.8167
   56MOL   H31824628   4.381   0.365   5.945 -0.0269 -0.0624  0.2785
   56MOL   H31924629   4.131   0.392   5.879  0.5081  0.3960  0.1304
   56MOL   H32024630   4.031   0.203   6.000  1.1468 -0.2910  0.1792
   56MOL   H32124631   4.069   0.282   6.146  0.6427  0.3834  0.4350
   56MOL   H32224632   3.838   0.298   6.077 -1.8857  2.3047  1.5819
   56MOL   H32324633   3.876   0.373   5.927 -0.6415  0.8833  0.5617
   56MOL   H32424634   3.823   0.558   6.049  1.0552  0.3154 -0.4817
   56MOL   H32524635   3.912   0.506   6.188 -0.2396  1.0834 -0.6112
   56MOL   H32624636   4.010   0.615   5.924 -2.1369 -1.1889  0.4814
   56MOL   H32724637   4.036   0.687   6.082  0.9032  0.4284  0.1220
   56MOL   H32824638   4.199   0.537   6.141  0.2600  3.6682 -0.6061
   56MOL   H32924639   4.251   0.571   5.979 -1.2138  1.9793  0.2770
   56MOL   H33024640   4.418   0.194   6.148 -0.9176 -0.9243 -1.4223
   56MOL   H33124641   4.273   0.253   6.219 -0.6338 -1.5120  0.2172
   56MOL   C33224642   4.443   0.389   6.207  0.1969 -0.8550  0.1198
   56MOL   C33324643   4.590   0.368   6.162  0.2620 -0.9169  0.3262
   56MOL   C33424644   4.667   0.252   6.217 -0.1327  0.1863  0.4621
   56MOL   C33524645   4.811   0.244   6.157 -0.1068 -0.4503  0.2534
   56MOL   C33624646   4.892   0.376   6.164 -0.0212 -0.4521  0.0213
   56MOL   C33724647   4.811   0.496   6.111 -0.7556  0.3295 -0.5440
   56MOL   C33824648   4.672   0.501   6.175  0.6134 -0.1797  0.0179
   56MOL   C33924649   4.421   0.393   6.360  0.3851 -0.4686  0.5659
   56MOL   H34024650   4.415   0.489   6.176  1.0391  0.3205  2.9220
   56MOL   H34124651   4.590   0.362   6.053  3.1304  1.8681  0.0850
   56MOL   H34224652   4.672   0.258   6.326  2.0302 -2.2017  0.5448
   56MOL   H34324653   4.614   0.160   6.191  3.5705 -1.2171 -2.5181
   56MOL   H34424654   4.859   0.150   6.187 -0.0296  0.0201  1.6727
   56MOL   H34524655   4.802   0.239   6.049  0.7228 -0.3781  0.1806
   56MOL   H34624656   4.931   0.400   6.264  2.0932 -2.0651 -0.3787
   56MOL   H34724657   4.981   0.367   6.102  1.6648  1.0470  2.1141
   56MOL   H34824658   4.789   0.485   6.004 -0.8583 -2.4098 -0.2736
   56MOL   H34924659   4.861   0.593   6.116 -0.4855  0.2361 -1.2704
   56MOL   H35024660   4.612   0.579   6.128  1.5186  0.0970 -0.6915
   56MOL   H35124661   4.681   0.525   6.281 -0.0748 -0.1602  0.0766
   56MOL   H35224662   4.510   0.419   6.417  2.5497  1.3725 -3.4183
   56MOL   H35324663   4.412   0.289   6.392  0.4213 -1.0229 -1.1694
   56MOL   C35424664   4.296   0.472   6.407 -0.2486 -0.2370  0.2117
   56MOL   C35524665   4.312   0.633   6.392  0.2492  0.0047 -0.1036
   56MOL   C35624666   4.423   0.684   6.492  0.1998  0.3208  0.1326
   56MOL   C35724667   4.435   0.830   6.484  0.7274 -0.6928  0.1628
   56MOL   C35824668   4.307   0.905   6.511  0.5664  0.0014 -0.6543
   56MOL   C35924669   4.203   0.871   6.413 -0.5352  0.2117  0.1119
   56MOL   C36024670   4.178   0.715   6.411 -0.0548  0.7795  0.3527
   56MOL   C36124671   4.246   0.433   6.558 -0.2847 -0.2220  0.5764
   56MOL   H36224672   4.213   0.444   6.343 -1.3363  2.3614  0.4053
   56MOL   H36324673   4.346   0.656   6.291  0.2410 -1.0483 -0.3591
   56MOL   H36424674   4.520   0.640   6.472 -0.9822 -1.7581 -1.1717
   56MOL   H36524675   4.396   0.658   6.595  0.6597  1.9393  0.6769
   56MOL   H36624676   4.524   0.863   6.537  0.5979 -0.3889  0.1945
   56MOL   H36724677   4.459   0.850   6.380 -1.0117 -2.3709 -0.6033
   56MOL   H36824678   4.276   0.874   6.610 -0.5985  3.0918  0.0014
   56MOL   H36924679   4.330   1.012   6.518 -3.0917  0.7348  1.1602
   56MOL   H37024680   4.116   0.931   6.437 -1.1275 -1.1782  1.5259
   56MOL   H37124681   4.222   0.904   6.311 -1.9873 -0.3488 -0.3456
   56MOL   H37224682   4.096   0.703   6.340  0.6998  1.4344 -0.6474
   56MOL   H37324683   4.131   0.695   6.507  1.2406 -1.3706  0.5641
   56MOL   H37424684   4.177   0.507   6.597  0.7160  0.8053  0.4530
   56MOL   H37524685   4.334   0.434   6.623 -0.5029  4.3733  0.9581
   56MOL   C37624686   4.171   0.292   6.558  0.3607  0.3161 -0.1844
   56MOL   C37724687   4.211   0.211   6.682 -0.6121 -0.6560 -0.7716
   56MOL   C37824688   4.189   0.291   6.816  0.4766 -0.1867  0.2223
   56MOL   C37924689   4.211   0.210   6.948  0.5315 -0.7071  0.1710
   56MOL   C38024690   4.351   0.148   6.937 -0.3536  0.1640  0.0141
   56MOL   C38124691   4.381   0.069   6.809 -0.4792  0.5221 -0.6317
   56MOL   C38224692   4.354   0.147   6.680 -0.2197  0.4307  0.5191
   56MOL   C38324693   4.017   0.326   6.535  0.3865  0.2187 -0.6149
   56MOL   H38424694   4.208   0.233   6.474 -1.7210 -0.7823 -0.3569
   56MOL   H38524695   4.152   0.119   6.691  0.7865 -1.4219  0.7427
   56MOL   H38624696   4.257   0.377   6.817 -2.3504  2.1564 -1.1842
   56MOL   H38724697   4.093   0.342   6.826  1.2087  1.1662  0.5739
   56MOL   H38824698   4.129   0.139   6.961 -0.3839  0.4299  0.7270
   56MOL   H38924699   4.213   0.272   7.038 -0.3115 -1.5692  0.8009
   56MOL   H39024700   4.426   0.226   6.951  2.2277 -2.0948 -0.8029
   56MOL   H39124701   4.364   0.072   7.014 -1.9079 -0.4765 -0.3388
   56MOL   H39224702   4.481   0.026   6.802 -0.0899  0.6838  2.7581
   56MOL   H39324703   4.323   7.749   6.811 -0.4683  0.5106 -0.8772
   56MOL   H39424704   4.423   0.231   6.675 -1.6500  1.5278 -1.5650
   56MOL   H39524705   4.379   0.084   6.595  0.9497  1.0190  0.4118
   56MOL   H39624706   3.995   0.391   6.450  1.5319  0.1055 -1.0026
   56MOL   H39724707   3.984   0.371   6.628  2.0991 -0.5533  0.3933
   56MOL   C39824708   3.926   0.204   6.503 -0.0480 -0.2967  0.4681
   56MOL   C39924709   3.780   0.238   6.508 -0.0830 -0.9097  1.2536
   56MOL   C40024710   3.723   0.329   6.394  0.6458  0.1030 -0.4531
   56MOL   C40124711   3.573   0.375   6.407  0.0122 -0.1165 -0.1114
   56MOL   C40224712   3.478   0.267   6.456 -0.2892 -0.6450  0.1348
   56MOL   C40324713   3.543   0.185   6.567  0.6226 -0.5553  0.2327
   56MOL   C40424714   3.681   0.131   6.535  0.2334  0.1484 -0.3185
   56MOL   C40524715   3.964   0.123   6.377  0.3601 -0.2728 -0.8265
   56MOL   H40624716   3.940   0.143   6.593 -2.1891 -0.2412  0.8581
   56MOL   H40724717   3.775   0.303   6.594  1.8776  0.4453  0.3801
   56MOL   H40824718   3.739   0.273   6.302  1.3421  0.4025 -0.5184
   56MOL   H40924719   3.782   0.420   6.384 -0.6194  0.9697 -0.2331
   56MOL   H41024720   3.536   0.411   6.311 -1.2307 -1.3176 -0.0937
   56MOL   H41124721   3.578   0.452   6.485 -0.7938 -0.1139 -0.0653
   56MOL   H41224722   3.448   0.203   6.373  1.3854 -0.9482 -0.2471
   56MOL   H41324723   3.391   0.304   6.510 -1.1149 -1.4738 -0.6062
   56MOL   H41424724   3.543   0.236   6.664  0.7753  2.5020 -1.3167
   56MOL   H41524725   3.480   0.100   6.592 -0.1959 -0.1572 -0.4587
   56MOL   H41624726   3.723   0.075   6.619 -0.1147 -1.0131 -0.9000
   56MOL   H41724727   3.677   0.063   6.450 -1.1019  0.2583 -0.3611
   56MOL   H41824728   3.882   0.136   6.306  0.1121 -1.7512 -0.8132
   56MOL   H41924729   4.053   0.174   6.341  0.5492  0.4250  0.5931
   56MOL   C42024730   3.981   7.741   6.402  0.2297 -0.0910 -0.1797
   56MOL   C42124731   4.127   7.709   6.432 -0.1823  0.1126 -0.1047
   56MOL   C42224732   4.222   7.725   6.298  0.4785 -0.4768  0.0619
   56MOL   C42324733   4.368   7.698   6.328  0.5241 -0.5088  0.2427
   56MOL   C42424734   4.378   7.561   6.397 -0.8329 -0.2657 -0.0439
   56MOL   C42524735   4.286   7.543   6.527  0.5310 -0.1697  0.8850
   56MOL   C42624736   4.144   7.568   6.485 -0.4325  0.4521  0.4629
   56MOL   C42724737   3.914   7.656   6.290 -0.0493  0.7989  0.3798
   56MOL   H42824738   3.929   7.713   6.493 -0.0894 -0.0643 -0.3550
   56MOL   H42924739   4.151   0.001   6.516  0.0674 -2.4349  1.8251
   56MOL   H43024740   4.173   7.677   6.213 -0.8311 -0.2156  0.6657
   56MOL   H43124741   4.225   0.058   6.269  0.5574 -0.4230  0.2695
   56MOL   H43224742   4.418   7.686   6.232  1.1786  1.4687  0.3159
   56MOL   H43324743   4.413   0.009   6.383  1.9095 -0.7275 -0.5369
   56MOL   H43424744   4.480   7.531   6.421 -1.5034 -1.6212  1.1959
   56MOL   H43524745   4.356   7.482   6.326  1.8169 -1.1936  0.1142
   56MOL   H43624746   4.313   7.616   6.603  0.9874  0.2894  0.2851
   56MOL   H43724747   4.288   7.439   6.560  0.5877 -0.3220  0.4044
   56MOL   H43824748   4.123   7.510   6.395  0.9937 -0.3875  0.6555
   56MOL   H43924749   4.079   7.551   6.570 -1.2102 -1.5648 -0.5029
   56MOL   H44024750   3.932   7.550   6.310 -1.4535  0.5119  0.1554
   56MOL   H44124751   3.806   7.667   6.296 -0.0641  1.0492 -0.2945
   56MOL   H44224752   3.958   7.683   6.194 -0.3149  0.4896  0.1690
   57MOL     C124753   2.514   1.180   1.869  0.3689 -0.2168 -0.8174
   57MOL     C224754   2.664   1.213   1.880  0.3140  0.0339 -0.4233
   57MOL     C324755   2.730   1.147   1.759  0.0649  0.0127 -0.8392
   57MOL     C424756   2.881   1.153   1.760  0.2109  0.8415  0.2229
   57MOL     C524757   2.935   1.106   1.901  0.6821 -0.3603  0.2662
   57MOL     C624758   2.875   1.188   2.022 -0.1814 -0.9710  0.8756
   57MOL     C724759   2.727   1.166   2.017 -0.5408 -0.2998  1.0651
   57MOL     C824760   2.424   1.259   1.968 -0.6926  0.6109  0.0411
   57MOL     H924761   2.479   1.200   1.768  0.7158 -1.9903 -1.2949
   57MOL    H1024762   2.686   1.319   1.867  0.1825  0.1017 -0.1115
   57MOL    H1124763   2.697   1.044   1.765  1.1874 -0.3784 -1.2631
   57MOL    H1224764   2.685   1.181   1.665 -2.6555 -0.2240  0.3220
   57MOL    H1324765   2.907   1.256   1.739  0.0344  0.9732  0.6394
   57MOL    H1424766   2.921   1.095   1.677 -0.2625  3.1145 -1.6326
   57MOL    H1524767   3.043   1.106   1.911  0.8670  1.4441 -1.4619
   57MOL    H1624768   2.915   0.999   1.912 -0.9374 -0.0993  0.0741
   57MOL    H1724769   2.915   1.156   2.118 -1.7716 -0.2970  1.7765
   57MOL    H1824770   2.905   1.291   2.001 -1.1807 -0.8345  0.0692
   57MOL    H1924771   2.694   1.230   2.098 -1.6151  1.3852 -0.6578
   57MOL    H2024772   2.693   1.066   2.046 -1.8539  0.0793  0.8414
   57MOL    H2124773   2.446   1.364   1.956 -0.3657  0.8064  2.2229
   57MOL    H2224774   2.463   1.241   2.068 -0.7004 -0.6300 -0.1709
   57MOL    H2324775   2.496   1.074   1.887  0.2680  0.2380  1.9383
   57MOL    C2424776   2.272   1.226   1.977  0.0077  0.4769 -0.0611
   57MOL    C2524777   2.216   1.286   2.104  0.4272  0.8641 -0.1426
   57MOL    C2624778   2.233   1.438   2.135 -0.6172 -0.0352 -0.2453
   57MOL    C2724779   2.157   1.480   2.265  0.2507  0.4299  0.0336
   57MOL    C2824780   2.197   1.392   2.391  0.2043 -0.3180 -0.0276
   57MOL    C2924781   2.176   1.238   2.347  0.2688 -0.2700  0.0396
   57MOL    C3024782   2.265   1.204   2.224 -0.1214  0.0983 -0.4383
   57MOL    C3124783   2.212   1.283   1.847 -0.2905 -0.0629  0.9522
   57MOL    H3224784   2.266   1.118   1.979 -1.0127  0.5440  0.5482
   57MOL    H3324785   2.109   1.264   2.110  0.6612 -0.6191 -1.0520
   57MOL    H3424786   2.178   1.488   2.055  0.2848 -1.0383 -1.5145
   57MOL    H3524787   2.339   1.463   2.141 -0.6523 -0.0134  0.2766
   57MOL    H3624788   2.185   1.586   2.271  1.8757 -0.0449  1.3698
   57MOL    H3724789   2.050   1.471   2.246  0.5210 -1.3225 -0.7617
   57MOL    H3824790   2.141   1.430   2.476 -2.0843  0.0498 -1.6476
   57MOL    H3924791   2.304   1.411   2.399  0.5729 -2.3537  0.2337
   57MOL    H4024792   2.201   1.167   2.426  1.7414  0.5830  0.3570
   57MOL    H4124793   2.074   1.209   2.320 -1.2963  2.4759  2.7477
   57MOL    H4224794   2.370   1.224   2.245  0.1356 -0.5618 -1.0822
   57MOL    H4324795   2.261   1.099   2.194  1.4965  1.1581 -4.7357
   57MOL    H4424796   2.260   1.239   1.760  0.2811  1.7075  0.3626
   57MOL    H4524797   2.243   1.387   1.839  0.0638 -0.1997  0.5767
   57MOL    C4624798   2.060   1.271   1.837 -0.4245 -0.2179 -0.9616
   57MOL    C4724799   2.008   1.122   1.862 -0.3342  0.4555  0.1623
   57MOL    C4824800   2.042   1.017   1.756 -0.9983 -0.6317  0.2242
   57MOL    C4924801   2.010   0.870   1.806  0.1764  0.1630  0.4541
   57MOL    C5024802   1.858   0.859   1.823 -0.2886  0.1891  0.3418
   57MOL    C5124803   1.803   0.965   1.920  0.4727  0.1081 -0.2429
   57MOL    C5224804   1.858   1.116   1.899 -0.3096 -0.4228 -0.4871
   57MOL    C5324805   1.995   1.323   1.696  0.0347 -0.0505 -0.1390
   57MOL    H5424806   2.016   1.330   1.917 -0.5684  2.2029 -2.7935
   57MOL    H5524807   2.056   1.089   1.955 -0.8647 -4.9240 -1.2757
   57MOL    H5624808   1.980   1.043   1.670 -1.2070 -1.1079  0.2344
   57MOL    H5724809   2.147   1.023   1.728 -1.1506  0.5054 -0.1645
   57MOL    H5824810   2.071   0.848   1.894  1.6875  0.8623 -0.4003
   57MOL    H5924811   2.043   0.797   1.732 -0.1672 -1.3407  1.7406
   57MOL    H6024812   1.815   0.865   1.722  0.8369 -1.0773 -0.2280
   57MOL    H6124813   1.838   0.754   1.844  0.9774 -0.1179  0.0426
   57MOL    H6224814   1.835   0.932   2.019 -0.2088  2.3931  0.7892
   57MOL    H6324815   1.695   0.963   1.932  0.4406  0.6826 -0.3989
   57MOL    H6424816   1.807   1.168   1.817 -1.2918 -0.2245  0.2413
   57MOL    H6524817   1.849   1.178   1.988 -0.0761  0.6166 -1.1723
   57MOL    H6624818   1.887   1.333   1.707  0.1533  1.0217  0.1490
   57MOL    H6724819   2.014   1.245   1.623 -0.0086  0.4912 -0.7331
   57MOL    C6824820   2.055   1.464   1.659 -0.2625 -0.4220  0.1787
   57MOL    C6924821   2.012   1.510   1.519 -0.6755  0.5827 -0.4626
   57MOL    C7024822   2.068   1.411   1.408 -0.0895 -0.4592  0.1959
   57MOL    C7124823   2.031   1.461   1.262  0.1414  0.3249 -0.1841
   57MOL    C7224824   1.875   1.468   1.257  0.4515 -0.5691  0.4395
   57MOL    C7324825   1.826   1.560   1.371 -0.3474  0.3380 -0.2119
   57MOL    C7424826   1.861   1.508   1.510  0.6268  0.0381 -0.5589
   57MOL    C7524827   2.028   1.570   1.770 -0.5335 -0.0398 -0.0793
   57MOL    H7624828   2.164   1.460   1.654 -0.3012  0.4041 -1.5466
   57MOL    H7724829   2.051   1.612   1.510  1.5498 -0.2499 -0.6161
   57MOL    H7824830   2.038   1.307   1.423  0.6109 -0.9507 -1.7093
   57MOL    H7924831   2.177   1.406   1.411 -0.0403 -0.1610 -1.0983
   57MOL    H8024832   2.068   1.557   1.228  2.7401 -0.9804 -1.2164
   57MOL    H8124833   2.083   1.390   1.197  1.3951 -1.1361  2.3531
   57MOL    H8224834   1.838   1.366   1.265  0.0898 -0.2982  2.7146
   57MOL    H8324835   1.842   1.513   1.163 -0.1187  1.5755  1.6295
   57MOL    H8424836   1.717   1.564   1.365 -0.4906 -1.3402  0.7995
   57MOL    H8524837   1.864   1.661   1.358 -1.6959  1.2286  2.4250
   57MOL    H8624838   1.821   1.408   1.525 -2.3752  1.3620  0.6974
   57MOL    H8724839   1.813   1.569   1.587 -0.8963 -0.4695 -1.0827
   57MOL    H8824840   1.921   1.588   1.780 -0.4263  0.0980  0.9064
   57MOL    H8924841   2.070   1.528   1.862 -0.6802 -0.9150 -0.4069
   57MOL    C9024842   2.089   1.711   1.761 -0.1737 -0.5684 -0.7634
   57MOL    C9124843   2.042   1.809   1.866 -0.4183 -0.1446 -0.0273
   57MOL    C9224844   1.899   1.858   1.845 -0.1799 -0.8851  0.3377
   57MOL    C9324845   1.858   1.980   1.937  0.3611 -0.4872 -0.6268
   57MOL    C9424846   1.883   1.944   2.079  0.1368 -0.6427  0.1651
   57MOL    C9524847   2.023   1.885   2.112 -0.5671  0.8169 -0.6094
   57MOL    C9624848   2.076   1.779   2.013 -0.4430 -0.4084 -0.0547
   57MOL    C9724849   2.247   1.710   1.763  0.0803  0.2791 -0.3681
   57MOL    H9824850   2.054   1.755   1.667  1.7912 -0.3495 -1.4286
   57MOL    H9924851   2.100   1.900   1.852 -2.6906  1.2210 -0.8479
   57MOL   H10024852   1.831   1.774   1.860  2.1191 -2.4153  2.4863
   57MOL   H10124853   1.878   1.888   1.742  0.7037 -0.5336  0.2547
   57MOL   H10224854   1.753   2.007   1.923 -0.0229 -1.5798  0.0789
   57MOL   H10324855   1.916   2.068   1.911  2.2381 -0.3111  3.7832
   57MOL   H10424856   1.820   1.858   2.103 -0.4691 -0.3416 -0.3484
   57MOL   H10524857   1.860   2.032   2.139 -1.8764 -0.7679 -0.4029
   57MOL   H10624858   2.099   1.963   2.114  2.0102 -1.5133 -2.7129
   57MOL   H10724859   2.013   1.828   2.204 -2.5572 -0.9775 -1.8733
   57MOL   H10824860   2.180   1.753   2.034  0.2759  1.6671 -0.8416
   57MOL   H10924861   2.008   1.699   2.041 -1.4381  0.4331 -0.0484
   57MOL   H11024862   2.294   1.794   1.814  2.8173 -1.6314  0.3653
   57MOL   H11124863   2.280   1.628   1.826  2.4011  1.5313  0.1003
   57MOL   C11224864   2.317   1.718   1.620 -0.5995 -0.2330 -0.2185
   57MOL   C11324865   2.450   1.632   1.625 -0.5466  0.4370 -0.2963
   57MOL   C11424866   2.574   1.697   1.679 -0.0403  0.3057  0.1654
   57MOL   C11524867   2.684   1.596   1.700 -0.1861 -0.3279 -0.5697
   57MOL   C11624868   2.720   1.521   1.567  0.0487 -0.8192 -0.2932
   57MOL   C11724869   2.593   1.460   1.509 -0.1525  0.2863  0.1755
   57MOL   C11824870   2.478   1.561   1.489 -0.0880  0.4716 -0.0377
   57MOL   C11924871   2.350   1.864   1.569  0.4187 -0.1522 -0.7564
   57MOL   H12024872   2.240   1.667   1.561 -0.3649 -1.1250  0.2372
   57MOL   H12124873   2.424   1.553   1.696  3.0023 -0.0360  0.5551
   57MOL   H12224874   2.544   1.748   1.770  0.6718  1.1088 -0.0475
   57MOL   H12324875   2.609   1.764   1.600 -0.8738 -1.7537 -2.0279
   57MOL   H12424876   2.779   1.634   1.739 -0.8445 -0.0777  0.8191
   57MOL   H12524877   2.638   1.526   1.769 -1.4936  1.1628  0.0933
   57MOL   H12624878   2.768   1.583   1.491 -2.6802  1.2475 -0.3974
   57MOL   H12724879   2.789   1.442   1.599 -2.7290 -2.1441  2.6289
   57MOL   H12824880   2.614   1.407   1.417  1.4089  1.3585 -0.1012
   57MOL   H12924881   2.564   1.380   1.577 -6.3358  1.3161 -0.9761
   57MOL   H13024882   2.392   1.498   1.467  2.1902 -1.6878 -3.1885
   57MOL   H13124883   2.497   1.639   1.415 -1.9456  1.9540  1.0178
   57MOL   H13224884   2.410   1.854   1.478  1.3059  0.9442 -0.3037
   57MOL   H13324885   2.421   1.907   1.639 -2.6388  2.1402  1.0689
   57MOL   C13424886   2.233   1.963   1.558  0.5912  0.7118  0.2611
   57MOL   C13524887   2.152   1.922   1.428 -0.5461 -0.0134  0.2915
   57MOL   C13624888   2.223   1.955   1.296  0.0827 -0.2945 -0.3460
   57MOL   C13724889   2.134   1.906   1.180  0.0540  0.2951  0.0041
   57MOL   C13824890   2.003   1.998   1.174  0.1238  0.1164 -0.0880
   57MOL   C13924891   1.918   1.968   1.301 -0.1136  0.0662  0.2772
   57MOL   C14024892   2.007   1.978   1.425 -0.0105 -0.5866  0.2105
   57MOL   C14124893   2.297   2.116   1.540 -0.1372 -0.3005  0.0255
   57MOL   H14224894   2.171   1.961   1.648 -1.6533  0.2756 -1.2858
   57MOL   H14324895   2.146   1.814   1.439  2.1903 -0.3648 -1.0843
   57MOL   H14424896   2.231   2.064   1.297  3.1195 -0.4198 -2.8841
   57MOL   H14524897   2.322   1.910   1.301 -0.1500 -0.6545  1.1044
   57MOL   H14624898   2.106   1.801   1.190 -0.4017  0.4983  0.8853
   57MOL   H14724899   2.182   1.933   1.086  1.1941  0.8675  0.7409
   57MOL   H14824900   2.033   2.103   1.167 -0.7624  0.2153 -2.6517
   57MOL   H14924901   1.956   1.987   1.077 -0.8378 -0.6697  0.4617
   57MOL   H15024902   1.895   1.861   1.295 -0.2179 -0.0410  2.3578
   57MOL   H15124903   1.827   2.027   1.304  0.1710  0.9509 -4.4627
   57MOL   H15224904   2.015   2.082   1.455  1.4322 -1.4351  2.9361
   57MOL   H15324905   1.943   1.938   1.503  1.2753 -1.5362  0.7960
   57MOL   H15424906   2.225   2.176   1.483 -0.1562  0.6649  1.0656
   57MOL   H15524907   2.388   2.106   1.481  0.3460 -1.3301  0.9273
   57MOL   C15624908   2.332   2.181   1.678 -0.4351  0.2223 -0.4364
   57MOL   C15724909   2.211   2.232   1.757  0.4380 -0.6278  0.4822
   57MOL   C15824910   2.248   2.260   1.896 -0.2752 -0.2309 -0.8278
   57MOL   C15924911   2.127   2.285   1.983  0.4497  0.3788 -0.8457
   57MOL   C16024912   2.033   2.392   1.925  0.7368  0.0142  0.4195
   57MOL   C16124913   2.002   2.374   1.767  0.1323 -0.8894 -0.2628
   57MOL   C16224914   2.135   2.352   1.699  0.0544  0.5815 -0.4010
   57MOL   C16324915   2.441   2.285   1.659  0.4377  0.2056  0.5313
   57MOL   H16424916   2.380   2.104   1.739 -1.3511 -0.7010 -0.8706
   57MOL   H16524917   2.152   2.143   1.778  1.3981 -1.4665 -0.3393
   57MOL   H16624918   2.320   2.195   1.946 -0.2452  0.1967 -0.3145
   57MOL   H16724919   2.293   2.359   1.901 -0.5320 -0.0237 -2.4119
   57MOL   H16824920   2.067   2.195   1.995  1.4603 -0.1183  0.4644
   57MOL   H16924921   2.168   2.313   2.080  0.7387 -1.7246 -0.3410
   57MOL   H17024922   2.080   2.488   1.948 -0.4886  0.5588  0.6795
   57MOL   H17124923   1.945   2.403   1.988  2.0971  0.7930  2.2537
   57MOL   H17224924   1.947   2.453   1.717  4.0909  2.6617  0.7001
   57MOL   H17324925   1.932   2.291   1.758 -2.0917  0.7280  1.3267
   57MOL   H17424926   2.123   2.337   1.591 -0.2860  0.8841 -0.4082
   57MOL   H17524927   2.193   2.444   1.699  0.1966  0.4908 -0.5405
   57MOL   H17624928   2.409   2.381   1.700  0.1966  0.0311  0.7572
   57MOL   H17724929   2.450   2.309   1.553 -2.9673  0.5888  0.2640
   57MOL   C17824930   2.580   2.253   1.719 -0.3918  0.5618  0.0113
   57MOL   C17924931   2.662   2.170   1.623 -0.1202  0.4182  0.3516
   57MOL   C18024932   2.774   2.098   1.691 -0.4599  0.2353  0.3415
   57MOL   C18124933   2.859   2.012   1.597 -0.5421 -0.9486 -0.1150
   57MOL   C18224934   2.924   2.099   1.503 -0.3064  0.0378 -0.0069
   57MOL   C18324935   2.818   2.158   1.416 -0.3772  0.3451  0.2499
   57MOL   C18424936   2.718   2.242   1.504  0.4054  0.1212 -0.2724
   57MOL   C18524937   2.649   2.382   1.768 -0.5533  0.0001 -0.2590
   57MOL   H18624938   2.563   2.196   1.810  0.7329 -1.0440 -0.7527
   57MOL   H18724939   2.601   2.088   1.585 -0.1296  1.0505 -1.0417
   57MOL   H18824940   2.842   2.161   1.749  1.8087 -1.8374  0.0209
   57MOL   H18924941   2.737   2.030   1.767 -1.7023  1.0548  0.4804
   57MOL   H19024942   2.787   1.949   1.545 -2.3881 -0.7488  2.1306
   57MOL   H19124943   2.931   1.944   1.644 -1.5272 -1.6496  0.3918
   57MOL   H19224944   2.989   2.176   1.546  0.0295  0.2306 -0.8465
   57MOL   H19324945   2.985   2.032   1.443 -1.0558 -1.2215  0.6351
   57MOL   H19424946   2.758   2.078   1.373 -4.2667  2.6098  1.2277
   57MOL   H19524947   2.866   2.220   1.341 -1.2553  1.1347  0.3296
   57MOL   H19624948   2.780   2.321   1.545  0.7889  0.3410 -1.2731
   57MOL   H19724949   2.646   2.294   1.441  0.3053 -0.3092 -0.5168
   57MOL   H19824950   2.756   2.363   1.756 -0.5094  0.8646 -1.4212
   57MOL   H19924951   2.648   2.443   1.677 -1.9593 -0.8174 -0.8034
   57MOL   C20024952   2.597   2.456   1.893  0.0634  0.5602  0.2355
   57MOL   C20124953   2.637   2.372   2.018 -0.4986 -0.0452 -0.2568
   57MOL   C20224954   2.786   2.351   2.034  0.4509  0.5318 -0.9213
   57MOL   C20324955   2.824   2.267   2.157 -0.1897 -0.5923 -0.3511
   57MOL   C20424956   2.765   2.325   2.286  0.0073  0.3445  0.1331
   57MOL   C20524957   2.612   2.332   2.273 -0.6106  0.3860 -0.7630
   57MOL   C20624958   2.581   2.424   2.158  0.2596 -0.1373 -0.2493
   57MOL   C20724959   2.651   2.604   1.894  0.1822  0.2089 -0.6168
   57MOL   H20824960   2.489   2.446   1.892 -0.2758  3.3731  3.0441
   57MOL   H20924961   2.597   2.271   2.010  0.9073 -0.7248  1.1722
   57MOL   H21024962   2.835   2.448   2.023  1.2751  0.2159 -0.0639
   57MOL   H21124963   2.818   2.284   1.954 -1.5685  0.1999 -1.5052
   57MOL   H21224964   2.789   2.164   2.159 -0.5749 -0.4538  0.7666
   57MOL   H21324965   2.933   2.258   2.157  0.0433  1.8547 -0.1397
   57MOL   H21424966   2.795   2.267   2.373  1.3135  0.7809 -0.0116
   57MOL   H21524967   2.805   2.423   2.313 -0.0058  0.2135  0.6384
   57MOL   H21624968   2.579   2.229   2.264  1.5305 -0.2674 -1.4770
   57MOL   H21724969   2.573   2.377   2.364  0.7297 -1.2402  0.6586
   57MOL   H21824970   2.474   2.441   2.148 -0.7614 -5.1238  0.9043
   57MOL   H21924971   2.625   2.522   2.176  0.4246 -0.6942  2.5586
   57MOL   H22024972   2.626   2.649   1.990 -0.0701  4.3746 -2.5248
   57MOL   H22124973   2.759   2.610   1.897  0.2939 -0.4311 -2.5777
   57MOL   C22224974   2.603   2.696   1.777 -0.6997  0.3150 -0.2066
   57MOL   C22324975   2.444   2.730   1.774  0.3555  0.2903 -0.2343
   57MOL   C22424976   2.398   2.779   1.639  0.1391  0.5341 -0.3254
   57MOL   C22524977   2.245   2.814   1.633 -0.0310  0.4249  0.0290
   57MOL   C22624978   2.213   2.902   1.753 -0.2550  0.5870 -0.0384
   57MOL   C22724979   2.255   2.850   1.883 -0.1904 -0.1165 -0.1445
   57MOL   C22824980   2.406   2.822   1.890  0.1315 -0.5969 -0.6693
   57MOL   C22924981   2.700   2.819   1.760 -0.0072 -0.2174  0.7166
   57MOL   H23024982   2.618   2.646   1.681 -1.9511 -0.5820  0.0583
   57MOL   H23124983   2.378   2.643   1.779  0.9283 -0.0889  1.1350
   57MOL   H23224984   2.443   2.877   1.621 -2.0379  1.5658 -0.2958
   57MOL   H23324985   2.432   2.701   1.571  1.3830  2.2133 -1.6844
   57MOL   H23424986   2.188   2.721   1.628 -1.4429  1.2626  0.2341
   57MOL   H23524987   2.222   2.855   1.535  1.7731 -1.3581 -1.1638
   57MOL   H23624988   2.263   2.998   1.745  0.6753  0.1731  0.8829
   57MOL   H23724989   2.106   2.920   1.763 -0.7149 -2.1872  0.5315
   57MOL   H23824990   2.200   2.758   1.900 -2.8623  0.7970 -3.3447
   57MOL   H23924991   2.227   2.903   1.974 -0.9273 -1.6490  0.5320
   57MOL   H24024992   2.464   2.914   1.884 -3.6130  1.9118  0.1871
   57MOL   H24124993   2.423   2.772   1.985  0.9668 -0.0198 -0.5206
   57MOL   H24224994   2.756   2.843   1.849 -0.0995 -0.4369  0.8348
   57MOL   H24324995   2.630   2.903   1.755 -2.1042 -1.7952  2.4855
   57MOL   C24424996   2.806   2.813   1.649  0.5869  0.4873 -0.4177
   57MOL   C24524997   2.895   2.680   1.656  0.1362 -0.4806 -0.9918
   57MOL   C24624998   3.006   2.689   1.765 -0.1866  0.3222  0.1001
   57MOL   C24724999   3.098   2.564   1.777 -0.1140 -0.2188  0.5423
   57MOL   C24825000   3.170   2.522   1.647 -0.7816  0.2392  0.6440
   57MOL   C24925001   3.054   2.513   1.534 -0.2417 -0.2475 -0.4199
   57MOL   C25025002   2.956   2.639   1.518 -0.4574  0.0384 -0.0762
   57MOL   C25125003   2.897   2.937   1.633  0.0533 -0.2843 -0.1249
   57MOL   H25225004   2.749   2.808   1.557  0.1219  1.1020 -0.1678
   57MOL   H25325005   2.817   2.607   1.675 -0.0314 -0.6035 -2.0760
   57MOL   H25425006   2.957   2.703   1.862  1.2216 -2.4465  1.2745
   57MOL   H25525007   3.070   2.777   1.757  0.2588  0.0989  1.0664
   57MOL   H25625008   3.163   2.582   1.862 -3.2783 -0.0750  3.0369
   57MOL   H25725009   3.035   2.480   1.806 -2.3872  1.3232  0.1857
   57MOL   H25825010   3.246   2.594   1.616  1.2796 -2.4051 -0.5963
   57MOL   H25925011   3.205   2.419   1.651  0.7312  0.7833  2.0924
   57MOL   H26025012   2.992   2.432   1.572  0.0440 -0.2832 -0.0277
   57MOL   H26125013   3.109   2.489   1.443 -2.3661 -1.0854 -1.5079
   57MOL   H26225014   3.031   2.708   1.481 -0.0336  0.6298  1.8609
   57MOL   H26325015   2.882   2.612   1.442 -0.2203 -3.6779  0.9220
   57MOL   H26425016   3.004   2.919   1.625  0.3435  0.3196  2.2099
   57MOL   H26525017   2.886   2.992   1.726 -2.3366 -1.6010  0.4266
   57MOL   C26625018   2.853   3.035   1.523  0.3071 -0.3611 -0.1390
   57MOL   C26725019   2.706   3.087   1.548 -0.5795  0.2027 -0.0070
   57MOL   C26825020   2.626   3.141   1.432 -0.4733 -0.5774  0.1354
   57MOL   C26925021   2.478   3.156   1.461 -0.3455  0.2074 -0.0127
   57MOL   C27025022   2.460   3.239   1.587 -0.2455  0.6904 -0.0942
   57MOL   C27125023   2.548   3.211   1.713 -0.3264  0.1510 -0.1793
   57MOL   C27225024   2.693   3.179   1.673  0.3545 -0.7382 -0.6771
   57MOL   C27325025   2.958   3.144   1.495 -0.4664 -0.4365 -0.3396
   57MOL   H27425026   2.833   2.979   1.431 -0.1291  2.6137 -1.9061
   57MOL   H27525027   2.660   2.989   1.559  0.7376 -0.2316  1.7714
   57MOL   H27625028   2.668   3.236   1.399 -1.1248 -0.5056 -0.4961
   57MOL   H27725029   2.630   3.061   1.359 -2.7980 -1.3251  0.7863
   57MOL   H27825030   2.429   3.059   1.474 -0.2738  0.1262 -0.3463
   57MOL   H27925031   2.421   3.205   1.382 -0.3057 -0.4652 -0.4625
   57MOL   H28025032   2.478   3.342   1.558  1.8555  1.1243  2.6176
   57MOL   H28125033   2.354   3.225   1.611 -0.5547  1.3871 -1.0353
   57MOL   H28225034   2.500   3.123   1.755 -1.8687  1.1650  0.2342
   57MOL   H28325035   2.536   3.288   1.789 -2.5116  0.0665 -0.4105
   57MOL   H28425036   2.744   3.139   1.761  0.3037  0.7294  0.0404
   57MOL   H28525037   2.751   3.270   1.659  2.3718 -1.9878 -0.7227
   57MOL   H28625038   3.013   3.146   1.589 -1.5780 -0.7732  0.3333
   57MOL   H28725039   2.914   3.244   1.492 -1.0215 -0.6451  0.5205
   57MOL   C28825040   3.029   3.141   1.358  0.4954 -0.7188 -0.3730
   57MOL   C28925041   3.147   3.240   1.346 -0.2820 -0.2485 -0.7924
   57MOL   C29025042   3.107   3.391   1.352 -0.6122  0.1554  0.8135
   57MOL   C29125043   3.229   3.477   1.319  0.5887  0.7174 -0.6555
   57MOL   C29225044   3.354   3.437   1.404  0.5797  0.0282  0.7167
   57MOL   C29325045   3.391   3.287   1.408  1.2558  0.0483  0.0701
   57MOL   C29425046   3.272   3.202   1.435  0.3135  0.3082 -0.4737
   57MOL   C29525047   2.927   3.147   1.238  0.2783  0.4103 -0.2267
   57MOL   H29625048   3.075   3.042   1.351  1.1011 -0.4836  0.1799
   57MOL   H29725049   3.191   3.210   1.251  1.9293  1.3609 -0.3053
   57MOL   H29825050   3.019   3.408   1.289 -0.5457 -2.2370  0.0165
   57MOL   H29925051   3.075   3.412   1.454 -0.9779  1.7331  0.3895
   57MOL   H30025052   3.245   3.462   1.212  0.5800 -2.7428 -0.2285
   57MOL   H30125053   3.210   3.583   1.334  1.8831  1.3066 -2.9183
   57MOL   H30225054   3.346   3.477   1.505  1.5896 -1.7240  1.5157
   57MOL   H30325055   3.449   3.478   1.369  0.4959  0.3973  0.9259
   57MOL   H30425056   3.460   3.261   1.488  0.2011 -1.0792  0.6416
   57MOL   H30525057   3.448   3.252   1.322 -0.7600  0.5919 -1.5238
   57MOL   H30625058   3.242   3.205   1.539 -1.0929  0.1400 -0.8728
   57MOL   H30725059   3.296   3.097   1.415  0.0562  0.0650  0.4633
   57MOL   H30825060   2.856   3.066   1.257  0.8169 -0.3102 -1.1891
   57MOL   H30925061   2.866   3.236   1.253 -0.1891 -0.1782  1.4689
   57MOL   C31025062   2.982   3.117   1.091  0.2391 -0.6141  0.3647
   57MOL   C31125063   3.068   2.990   1.080  0.3621  0.0021 -0.3255
   57MOL   C31225064   3.001   2.859   1.116  0.1996  0.9590  0.1443
   57MOL   C31325065   3.095   2.743   1.115  0.7314  0.0909 -0.1294
   57MOL   C31425066   3.175   2.727   0.985 -0.1068 -0.0213 -0.2715
   57MOL   C31525067   3.248   2.856   0.941 -0.9237 -0.1535 -0.9206
   57MOL   C31625068   3.146   2.974   0.946  0.8902 -0.1315  0.2150
   57MOL   C31725069   2.872   3.128   0.987 -0.6981 -0.6881 -0.0009
   57MOL   H31825070   3.057   3.193   1.069  0.6466 -1.0189  0.3576
   57MOL   H31925071   3.141   2.999   1.160  0.2556  2.2025 -0.4480
   57MOL   H32025072   2.962   2.864   1.217 -0.6455 -0.3848 -0.1093
   57MOL   H32125073   2.922   2.829   1.047  0.8501 -0.7919  0.1316
   57MOL   H32225074   3.043   2.651   1.142 -0.6360  0.9516  0.2440
   57MOL   H32325075   3.165   2.747   1.199 -1.2951 -0.6554  1.6293
   57MOL   H32425076   3.237   2.639   1.001  2.0722  1.8357  1.9119
   57MOL   H32525077   3.110   2.691   0.905 -0.6283 -1.8958  0.9862
   57MOL   H32625078   3.338   2.882   0.996  0.8993 -0.6407 -3.6235
   57MOL   H32725079   3.283   2.849   0.838  1.2543 -0.8484 -0.1514
   57MOL   H32825080   3.079   2.975   0.861  2.3185  1.0093 -0.9083
   57MOL   H32925081   3.202   3.067   0.939  1.3542 -0.3531  0.8455
   57MOL   H33025082   2.819   3.032   0.984  0.7841 -1.5853  1.4847
   57MOL   H33125083   2.909   3.120   0.884 -2.6039 -0.8337 -0.6992
   57MOL   C33225084   2.780   3.251   0.993  0.4396  0.5457  0.7175
   57MOL   C33325085   2.676   3.261   0.875 -0.5997 -0.2255 -0.5865
   57MOL   C33425086   2.563   3.166   0.896  0.3490 -0.1822 -0.4140
   57MOL   C33525087   2.453   3.179   0.795 -0.5436 -0.4664 -0.1851
   57MOL   C33625088   2.511   3.165   0.654  0.6914  0.7978 -0.0752
   57MOL   C33725089   2.619   3.260   0.617  0.3092 -0.1408 -0.7969
   57MOL   C33825090   2.729   3.255   0.728 -0.1132 -0.2898  0.1332
   57MOL   C33925091   2.854   3.386   1.001 -0.3685  0.1762 -0.2384
   57MOL   H34025092   2.724   3.233   1.085  0.4295 -1.8844  0.2673
   57MOL   H34125093   2.627   3.358   0.879  0.8471  0.6317 -2.8279
   57MOL   H34225094   2.604   3.065   0.904  1.4624  0.3785  1.1440
   57MOL   H34325095   2.516   3.185   0.993 -0.0360 -0.8622 -0.4668
   57MOL   H34425096   2.373   3.107   0.811  0.1395 -0.9213  1.2554
   57MOL   H34525097   2.405   3.277   0.797  2.0424  0.9038 -1.3601
   57MOL   H34625098   2.548   3.063   0.641 -0.4652  0.3164  0.3450
   57MOL   H34725099   2.434   3.184   0.579  0.9233  1.2061 -0.2152
   57MOL   H34825100   2.577   3.359   0.600 -0.6738 -0.3469  0.3204
   57MOL   H34925101   2.652   3.238   0.516 -0.5515 -0.3973 -1.0239
   57MOL   H35025102   2.804   3.333   0.713 -1.0828  1.0848  2.2337
   57MOL   H35125103   2.766   3.153   0.725  0.7896  0.0028  1.2489
   57MOL   H35225104   2.905   3.388   0.905 -0.7485  2.7554 -0.4082
   57MOL   H35325105   2.938   3.377   1.070  0.8903 -0.5603 -1.8089
   57MOL   C35425106   2.780   3.515   1.052 -0.9888  0.2603 -0.5148
   57MOL   C35525107   2.847   3.646   1.005  0.4886  0.2250 -0.1462
   57MOL   C35625108   2.835   3.664   0.850 -0.4479 -0.2900 -0.8127
   57MOL   C35725109   2.884   3.796   0.808 -0.1575 -0.2141 -0.3824
   57MOL   C35825110   3.034   3.811   0.840 -0.2422 -0.1812  0.1658
   57MOL   C35925111   3.051   3.793   0.991  0.5014 -0.1539 -0.4049
   57MOL   C36025112   2.992   3.661   1.044  0.5305  0.3048 -0.0758
   57MOL   C36125113   2.757   3.502   1.204  0.0647 -0.1631  0.1802
   57MOL   H36225114   2.683   3.509   1.002 -0.7032 -1.5061 -0.8817
   57MOL   H36325115   2.796   3.733   1.047 -0.8265  0.1566 -1.5574
   57MOL   H36425116   2.731   3.639   0.830 -0.1626 -2.3346  0.1435
   57MOL   H36525117   2.885   3.583   0.797 -0.6488 -0.6792 -0.4048
   57MOL   H36625118   2.878   3.804   0.700  0.6637  0.7730 -0.3738
   57MOL   H36725119   2.823   3.868   0.863  1.6290  0.6071  0.5762
   57MOL   H36825120   3.102   3.742   0.791  1.0020  0.6174  0.7454
   57MOL   H36925121   3.078   3.909   0.820  0.4936 -0.3687  0.8421
   57MOL   H37025122   3.155   3.800   1.024  0.0830  0.2826  0.8340
   57MOL   H37125123   3.005   3.870   1.052 -1.3907 -2.7904  1.6140
   57MOL   H37225124   3.003   3.654   1.152  0.8764 -0.8043 -0.1870
   57MOL   H37325125   3.049   3.577   1.007  0.0514 -1.3025  2.7061
   57MOL   H37425126   2.853   3.530   1.247  0.3245  0.4121 -0.7690
   57MOL   H37525127   2.722   3.401   1.226 -0.9800  0.3568  0.9039
   57MOL   C37625128   2.647   3.603   1.265  0.7764 -0.4724 -0.1531
   57MOL   C37725129   2.495   3.589   1.218 -0.1444  0.1635 -0.2984
   57MOL   C37825130   2.468   3.438   1.197  0.9498 -0.5034  0.2053
   57MOL   C37925131   2.316   3.413   1.171 -0.1810  0.5585 -0.6067
   57MOL   C38025132   2.278   3.496   1.049  0.1302  0.1631  0.4771
   57MOL   C38125133   2.317   3.645   1.059  0.1895 -0.1700 -0.4694
   57MOL   C38225134   2.464   3.670   1.096  0.1137 -0.1974  0.4845
   57MOL   C38325135   2.655   3.610   1.422 -0.1612 -0.4038 -0.3010
   57MOL   H38425136   2.677   3.703   1.233  2.3301 -0.9434 -0.2115
   57MOL   H38525137   2.427   3.629   1.293 -0.3016 -1.1779  0.3018
   57MOL   H38625138   2.527   3.386   1.122  0.5636 -0.0168 -0.4467
   57MOL   H38725139   2.495   3.391   1.291 -0.7994 -0.5863  0.6798
   57MOL   H38825140   2.259   3.459   1.252  2.0454  1.2886  0.5933
   57MOL   H38925141   2.274   3.314   1.159 -0.3758  0.7828 -1.8580
   57MOL   H39025142   2.322   3.435   0.970 -1.5354 -0.5406  0.0513
   57MOL   H39125143   2.172   3.479   1.030  0.7017 -2.4117 -0.6909
   57MOL   H39225144   2.290   3.704   0.972  2.2940 -1.5739 -2.1096
   57MOL   H39325145   2.251   3.686   1.136  0.3903 -0.4421 -0.1512
   57MOL   H39425146   2.531   3.662   1.011 -0.5402  2.0239 -0.2687
   57MOL   H39525147   2.464   3.778   1.110 -0.4268 -0.1254 -0.0605
   57MOL   H39625148   2.752   3.587   1.465 -0.0648 -2.3413 -1.4841
   57MOL   H39725149   2.595   3.527   1.461  0.4119 -1.3718 -1.4590
   57MOL   C39825150   2.615   3.743   1.498  0.2570 -0.0625  0.4207
   57MOL   C39925151   2.560   3.703   1.639  0.6073  0.0017 -0.5976
   57MOL   C40025152   2.667   3.642   1.733  0.0152  0.3350  0.4927
   57MOL   C40125153   2.597   3.583   1.859 -0.2555  0.0978 -0.0347
   57MOL   C40225154   2.510   3.683   1.932 -0.0064  0.5467 -0.1392
   57MOL   C40325155   2.410   3.751   1.837  0.1610  0.1924 -0.4874
   57MOL   C40425156   2.479   3.812   1.716 -0.0236 -0.6338 -0.0808
   57MOL   C40525157   2.736   3.842   1.514 -0.1677  0.2121 -0.4337
   57MOL   H40625158   2.536   3.791   1.440 -0.7595 -1.3714  0.6862
   57MOL   H40725159   2.489   3.624   1.617 -0.1104  0.7778 -1.1213
   57MOL   H40825160   2.741   3.715   1.766  0.5939  0.0602 -0.1968
   57MOL   H40925161   2.706   3.561   1.672 -0.5063  0.1640  0.3861
   57MOL   H41025162   2.684   3.536   1.906  0.3224  0.4833 -0.7102
   57MOL   H41125163   2.536   3.494   1.847  0.1405 -0.2922  0.8255
   57MOL   H41225164   2.561   3.768   1.978 -0.6737  1.5871 -1.2848
   57MOL   H41325165   2.461   3.633   2.015  0.2928  0.2057 -0.1642
   57MOL   H41425166   2.319   3.695   1.814 -0.8636  1.2395  0.8467
   57MOL   H41525167   2.365   3.836   1.890 -1.7001 -0.3715 -1.1029
   57MOL   H41625168   2.411   3.869   1.652 -1.6615 -1.1078  1.2191
   57MOL   H41725169   2.544   3.895   1.743 -0.3590  0.0158 -1.2036
   57MOL   H41825170   2.724   3.910   1.599 -1.1256 -0.1462 -0.2787
   57MOL   H41925171   2.825   3.788   1.546  0.1996  0.6031 -0.7800
   57MOL   C42025172   2.763   3.936   1.399 -0.3920  0.3952  0.7875
   57MOL   C42125173   2.894   4.019   1.413  0.2431  0.3260  0.1812
   57MOL   C42225174   3.024   3.926   1.393 -0.2718  0.0268 -0.5746
   57MOL   C42325175   3.147   4.009   1.412 -0.3303  0.5055  0.1960
   57MOL   C42425176   3.147   4.100   1.541 -0.3832  1.0152  0.0179
   57MOL   C42525177   3.019   4.188   1.560 -0.5965  0.0462 -0.4540
   57MOL   C42625178   2.896   4.099   1.549 -0.1970 -0.5482 -0.0006
   57MOL   C42725179   2.648   4.031   1.379  0.3082  0.1226 -0.5232
   57MOL   H42825180   2.767   3.875   1.309 -0.4869  0.1750  0.9323
   57MOL   H42925181   2.900   4.076   1.321 -3.6160 -0.6336 -0.7330
   57MOL   H43025182   3.038   3.853   1.473  2.6280 -1.3275 -2.2571
   57MOL   H43125183   3.024   3.872   1.298 -0.0064  0.6722 -0.9450
   57MOL   H43225184   3.235   3.945   1.408  1.6757  3.0069  2.0639
   57MOL   H43325185   3.149   4.073   1.323 -0.6684 -2.2095 -1.8192
   57MOL   H43425186   3.229   4.169   1.521  1.0258 -1.3957 -2.8902
   57MOL   H43525187   3.174   4.046   1.632 -1.1732  0.7711  0.1120
   57MOL   H43625188   3.007   4.262   1.480 -2.9575 -1.0817 -1.2084
   57MOL   H43725189   3.018   4.238   1.657  1.9268 -1.0882  0.2081
   57MOL   H43825190   2.890   4.040   1.640 -1.2448 -0.1841  0.1802
   57MOL   H43925191   2.805   4.159   1.552 -1.0075 -1.7335 -0.1665
   57MOL   H44025192   2.609   4.077   1.469 -0.2895 -0.3422 -0.5419
   57MOL   H44125193   2.661   4.108   1.302  0.5180  1.8555  1.2112
   57MOL   H44225194   2.562   3.978   1.339 -0.4566  0.3261  0.8329
   58MOL     C125195   0.970   4.071   4.361 -0.2761 -0.4669  0.4373
   58MOL     C225196   0.823   4.104   4.334  0.1648  0.7358  0.5208
   58MOL     C325197   0.767   4.031   4.210  0.1630  0.9352 -0.1986
   58MOL     C425198   0.614   4.063   4.193  0.1084  0.2889  0.5929
   58MOL     C525199   0.594   4.212   4.183 -0.5132  0.3198 -0.3209
   58MOL     C625200   0.653   4.289   4.306  0.2842 -0.7324  0.1829
   58MOL     C725201   0.801   4.254   4.336 -0.5286 -0.1761  0.8876
   58MOL     C825202   0.998   3.926   4.401  0.2115 -0.3754  0.1411
   58MOL     H925203   1.023   4.095   4.269  0.4044 -0.8784  0.7259
   58MOL    H1025204   0.767   4.076   4.423 -1.4320 -0.6275 -0.8890
   58MOL    H1125205   0.825   4.046   4.119  0.9639 -0.6233  0.0347
   58MOL    H1225206   0.772   3.924   4.230  0.3870  1.0356  0.2924
   58MOL    H1325207   0.564   4.019   4.280 -0.2798  0.5498  0.5033
   58MOL    H1425208   0.575   4.024   4.099 -0.6418  0.1159  0.9680
   58MOL    H1525209   0.493   4.243   4.160  0.0023  2.0175 -0.3233
   58MOL    H1625210   0.641   4.236   4.087  0.0126 -2.1211 -0.7117
   58MOL    H1725211   0.641   4.393   4.275  0.1600 -1.6418 -3.0254
   58MOL    H1825212   0.593   4.294   4.397 -1.4373 -0.8734 -0.9303
   58MOL    H1925213   0.837   4.299   4.428  0.0813  0.6281  0.2643
   58MOL    H2025214   0.852   4.298   4.250  1.6763 -1.5854  1.4349
   58MOL    H2125215   0.959   3.850   4.334 -1.0749  1.4572 -1.2123
   58MOL    H2225216   0.960   3.913   4.503  0.3758  0.6177  0.3363
   58MOL    H2325217   1.015   4.134   4.437  1.1627 -0.6080 -0.2873
   58MOL    C2425218   1.151   3.889   4.397 -0.4887  0.0550  0.0068
   58MOL    C2525219   1.188   3.765   4.489  0.4079  0.3529 -0.5107
   58MOL    C2625220   1.111   3.631   4.454  0.2280 -0.3277 -0.2426
   58MOL    C2725221   1.154   3.517   4.545  0.1061  0.9155  0.4649
   58MOL    C2825222   1.138   3.548   4.697 -0.1695 -0.9683 -0.7661
   58MOL    C2925223   1.203   3.674   4.740 -0.7148 -0.1274 -0.2521
   58MOL    C3025224   1.166   3.790   4.643  0.3770  0.7281 -0.1021
   58MOL    C3125225   1.202   3.880   4.249  0.5653  0.3762  0.4789
   58MOL    H3225226   1.202   3.968   4.453 -0.3576  0.1812 -0.2913
   58MOL    H3325227   1.295   3.745   4.494  0.1714 -0.4173  2.6973
   58MOL    H3425228   1.122   3.590   4.353  0.0971 -2.5643  0.6105
   58MOL    H3525229   1.003   3.648   4.459  0.0591 -1.1021 -1.0633
   58MOL    H3625230   1.099   3.427   4.519 -0.3061  1.4806 -0.6364
   58MOL    H3725231   1.258   3.493   4.522 -0.2339  0.0288 -0.1799
   58MOL    H3825232   1.169   3.453   4.740  0.5011 -1.0960 -1.4958
   58MOL    H3925233   1.036   3.572   4.727  1.0831  2.1759  1.1765
   58MOL    H4025234   1.179   3.693   4.844  0.7977 -0.5913  0.1970
   58MOL    H4125235   1.309   3.664   4.715 -0.5202 -0.3151  0.6528
   58MOL    H4225236   1.059   3.795   4.666  0.1713 -2.2801 -0.2330
   58MOL    H4325237   1.205   3.885   4.679  0.8148  0.0356  1.2876
   58MOL    H4425238   1.187   3.974   4.195  0.7154  0.9616  1.4392
   58MOL    H4525239   1.145   3.806   4.192  0.5152  0.9070 -0.1749
   58MOL    C4625240   1.353   3.851   4.225  0.3894  0.1451  0.3533
   58MOL    C4725241   1.453   3.957   4.286  0.1444  0.6041 -0.5270
   58MOL    C4825242   1.452   4.103   4.218 -0.1798 -0.1015 -0.3618
   58MOL    C4925243   1.535   4.193   4.317 -0.5679 -0.2031  0.9425
   58MOL    C5025244   1.683   4.139   4.338 -0.1906  0.6644  0.9881
   58MOL    C5125245   1.676   3.989   4.377 -0.2857 -0.2706 -0.6086
   58MOL    C5225246   1.590   3.899   4.290  0.4831  0.2076 -0.0317
   58MOL    C5325247   1.377   3.808   4.078  0.1258 -0.3168  0.0919
   58MOL    H5425248   1.382   3.763   4.282 -1.7213  0.2947  1.7032
   58MOL    H5525249   1.425   3.982   4.389 -2.3415 -1.3308 -0.6864
   58MOL    H5625250   1.502   4.109   4.121  0.1832 -0.9319 -0.2339
   58MOL    H5725251   1.350   4.142   4.214  0.2074  0.8661 -1.0032
   58MOL    H5825252   1.475   4.200   4.407 -0.2486  0.0793  1.1308
   58MOL    H5925253   1.530   4.290   4.268 -0.4068 -0.4511  0.4189
   58MOL    H6025254   1.731   4.154   4.242 -0.5500  0.1681  0.7240
   58MOL    H6125255   1.728   4.200   4.415  0.9157  0.5607  0.4228
   58MOL    H6225256   1.640   3.978   4.480  0.6765  2.1832  0.0229
   58MOL    H6325257   1.774   3.941   4.379 -0.2226 -0.1236  0.1981
   58MOL    H6425258   1.632   3.881   4.191 -3.2702  0.5720 -1.7672
   58MOL    H6525259   1.585   3.804   4.342 -0.2381  0.0831 -0.3323
   58MOL    H6625260   1.481   3.821   4.048  0.0360 -1.5523 -0.8280
   58MOL    H6725261   1.325   3.879   4.014 -0.4761 -1.6237 -0.8887
   58MOL    C6825262   1.337   3.661   4.044  0.1967 -0.0464 -0.2522
   58MOL    C6925263   1.299   3.644   3.893  0.0504 -0.8300  0.0626
   58MOL    C7025264   1.164   3.720   3.854  0.3422  0.0183  0.6901
   58MOL    C7125265   1.126   3.667   3.709  0.7773  0.3543 -0.2091
   58MOL    C7225266   1.235   3.702   3.610 -0.1454 -0.4510  0.0912
   58MOL    C7325267   1.368   3.632   3.647 -0.4759 -0.0357 -0.1934
   58MOL    C7425268   1.412   3.679   3.786  0.3361 -0.4532 -0.7210
   58MOL    C7525269   1.441   3.560   4.104  0.1352 -0.5111  0.1797
   58MOL    H7625270   1.245   3.642   4.100 -1.0396 -0.7273 -2.4583
   58MOL    H7725271   1.265   3.541   3.885 -1.3603 -0.8514  4.8298
   58MOL    H7825272   1.176   3.828   3.863 -0.5217  0.1683  0.0184
   58MOL    H7925273   1.092   3.678   3.925 -0.6851  1.5047  0.5541
   58MOL    H8025274   1.108   3.560   3.710 -1.3774  0.6741  1.8277
   58MOL    H8125275   1.029   3.712   3.684  0.3026 -0.9572 -0.7449
   58MOL    H8225276   1.259   3.808   3.599 -0.2102 -0.3872  0.5286
   58MOL    H8325277   1.206   3.668   3.511  3.6043  1.0445 -1.6248
   58MOL    H8425278   1.438   3.665   3.571 -3.0007 -2.2521 -3.6033
   58MOL    H8525279   1.373   3.526   3.624  2.9428  0.2984 -1.1855
   58MOL    H8625280   1.440   3.784   3.790  1.0935 -0.6448 -0.7686
   58MOL    H8725281   1.497   3.626   3.829 -0.8835 -2.3884 -0.6279
   58MOL    H8825282   1.540   3.603   4.088 -0.5910  1.5601  1.0991
   58MOL    H8925283   1.418   3.567   4.211 -1.4002 -1.4914 -0.0698
   58MOL    C9025284   1.420   3.404   4.063 -0.2027 -0.4832  0.5223
   58MOL    C9125285   1.551   3.332   4.096 -0.6414 -0.0546  0.0379
   58MOL    C9225286   1.649   3.329   3.973 -0.1546 -0.5037 -0.0455
   58MOL    C9325287   1.771   3.239   3.995 -0.2017 -0.5470 -0.0050
   58MOL    C9425288   1.834   3.273   4.126  0.6622 -0.1478 -0.2734
   58MOL    C9525289   1.740   3.279   4.245  0.0291 -0.8311 -0.5863
   58MOL    C9625290   1.622   3.378   4.227 -0.1487  0.4126  0.0345
   58MOL    C9725291   1.289   3.357   4.126 -0.3394 -0.4733 -0.6225
   58MOL    H9825292   1.419   3.401   3.954 -0.3354 -2.5302  0.5627
   58MOL    H9925293   1.516   3.230   4.113 -0.8665 -0.1992 -1.2028
   58MOL   H10025294   1.674   3.428   3.935  1.6546 -0.7167  0.5532
   58MOL   H10125295   1.593   3.288   3.889 -2.0096  1.4374  0.1933
   58MOL   H10225296   1.840   3.240   3.910  0.0498 -1.2306  0.1890
   58MOL   H10325297   1.743   3.134   4.005  0.5921 -0.7050  0.6549
   58MOL   H10425298   1.883   3.369   4.111  2.6166 -1.3285 -1.6283
   58MOL   H10525299   1.907   3.194   4.142  0.0124 -0.4352  1.3677
   58MOL   H10625300   1.694   3.183   4.270  0.8101 -0.8917  0.6972
   58MOL   H10725301   1.788   3.318   4.335 -1.6541 -1.7252  0.7383
   58MOL   H10825302   1.556   3.361   4.312 -0.7213  2.9468  0.1334
   58MOL   H10925303   1.650   3.483   4.234  1.2030 -0.0790  2.5614
   58MOL   H11025304   1.315   3.319   4.225 -1.3932  1.2536  0.3376
   58MOL   H11125305   1.227   3.447   4.134  1.3657  0.8016 -1.4562
   58MOL   C11225306   1.197   3.260   4.034 -0.6250 -0.5368 -0.1777
   58MOL   C11325307   1.045   3.274   4.032  0.3788  0.6717 -0.2619
   58MOL   C11425308   0.997   3.362   3.914 -0.7580 -0.4525 -0.5049
   58MOL   C11525309   0.846   3.371   3.913  0.0956  0.0084 -0.0509
   58MOL   C11625310   0.796   3.424   4.049  0.0146 -0.4233 -0.3735
   58MOL   C11725311   0.838   3.341   4.167  0.2915 -0.9669  0.2909
   58MOL   C11825312   0.989   3.329   4.162  0.2226 -0.0785  0.1990
   58MOL   C11925313   1.225   3.119   4.076  0.0692  0.6913  0.0509
   58MOL   H12025314   1.231   3.284   3.934 -1.4282  2.1236  0.1568
   58MOL   H12125315   1.000   3.176   4.012 -0.7805  0.6296  2.3280
   58MOL   H12225316   1.034   3.307   3.827  2.1345  1.5730 -0.6120
   58MOL   H12325317   1.043   3.461   3.911 -1.2106 -0.1991  0.7031
   58MOL   H12425318   0.818   3.438   3.831  0.8387  0.5539  0.1423
   58MOL   H12525319   0.805   3.272   3.894 -3.3897  1.3124  0.2537
   58MOL   H12625320   0.842   3.522   4.063 -1.5202  0.4272 -1.0902
   58MOL   H12725321   0.688   3.437   4.046 -0.0345 -1.0068 -3.6491
   58MOL   H12825322   0.807   3.375   4.266 -0.5224 -0.2329 -0.2017
   58MOL   H12925323   0.777   3.250   4.168 -0.3047 -0.5742  2.2116
   58MOL   H13025324   1.020   3.277   4.253 -1.8366 -0.7481  0.5396
   58MOL   H13125325   1.035   3.428   4.163 -2.9455  1.4752 -0.5312
   58MOL   H13225326   1.163   3.100   4.164  0.0710 -2.3256 -0.5616
   58MOL   H13325327   1.327   3.118   4.116  0.5383  2.1644 -1.0795
   58MOL   C13425328   1.228   3.022   3.959  0.5493 -0.8824 -0.0529
   58MOL   C13525329   1.182   2.885   3.993 -0.1857  0.3383  1.1342
   58MOL   C13625330   1.039   2.876   4.051 -0.0077 -0.7578 -0.7145
   58MOL   C13725331   0.994   2.721   4.052  0.1461  0.0910 -0.0102
   58MOL   C13825332   1.096   2.647   4.138  0.0871  0.3420 -0.4368
   58MOL   C13925333   1.236   2.654   4.084 -0.4448  0.1854  0.3622
   58MOL   C14025334   1.274   2.803   4.080  0.1076  0.1995 -1.0079
   58MOL   C14125335   1.372   3.028   3.886  0.3609 -0.4064 -0.6068
   58MOL   H14225336   1.153   3.057   3.887  1.1739 -3.6542 -2.1159
   58MOL   H14325337   1.177   2.832   3.898  1.0364 -0.6381  1.6035
   58MOL   H14425338   1.033   2.915   4.152  2.8863 -1.3837 -0.2580
   58MOL   H14525339   0.968   2.934   3.992 -1.5772 -2.0067 -0.0767
   58MOL   H14625340   0.984   2.672   3.954 -0.2248  2.2750 -1.0904
   58MOL   H14725341   0.902   2.711   4.109 -0.3889  1.3113 -0.6524
   58MOL   H14825342   1.088   2.693   4.236 -1.1629  1.5098 -1.0735
   58MOL   H14925343   1.071   2.542   4.147  0.0392  0.3890 -0.0391
   58MOL   H15025344   1.238   2.595   3.992 -0.8902 -2.1251  1.7845
   58MOL   H15125345   1.305   2.601   4.150 -1.9459 -0.5376  1.3912
   58MOL   H15225346   1.272   2.844   4.181  0.7826 -1.4287 -0.3193
   58MOL   H15325347   1.374   2.813   4.038  0.5541  0.1530  0.0384
   58MOL   H15425348   1.454   2.990   3.947  2.4402  3.5301 -0.8016
   58MOL   H15525349   1.393   3.134   3.873  0.2749  0.0523  2.5286
   58MOL   C15625350   1.376   2.961   3.746  0.9807  0.5473  0.1945
   58MOL   C15725351   1.517   2.953   3.691 -0.0117  0.8061  0.2610
   58MOL   C15825352   1.606   3.083   3.686 -0.0029  0.2877  0.5240
   58MOL   C15925353   1.730   3.053   3.600  0.1795  0.4956 -0.7289
   58MOL   C16025354   1.817   2.943   3.671  0.4712  0.1618 -0.2746
   58MOL   C16125355   1.744   2.818   3.700 -0.4083 -0.4208 -0.2197
   58MOL   C16225356   1.602   2.840   3.755 -0.1477  0.0414  1.5418
   58MOL   C16325357   1.277   3.032   3.644  0.6535  0.2687 -0.0014
   58MOL   H16425358   1.346   2.859   3.768  1.6694  0.5314  1.0884
   58MOL   H16525359   1.512   2.925   3.585  1.0963  1.3020  0.0707
   58MOL   H16625360   1.559   3.172   3.644  1.8706  0.8830 -0.3791
   58MOL   H16725361   1.645   3.103   3.786  2.4125 -1.5831 -0.0031
   58MOL   H16825362   1.704   3.017   3.500  0.9880 -0.3675 -0.6299
   58MOL   H16925363   1.781   3.149   3.587  1.4998  0.1724  1.8631
   58MOL   H17025364   1.858   2.986   3.763 -1.7682  2.9595 -0.5304
   58MOL   H17125365   1.904   2.926   3.607  1.0961 -2.9820  1.3129
   58MOL   H17225366   1.802   2.763   3.774 -0.9064 -0.2903  0.2698
   58MOL   H17325367   1.748   2.757   3.610  1.9019 -0.0069 -0.4333
   58MOL   H17425368   1.544   2.748   3.746 -0.7097  0.6890 -2.4118
   58MOL   H17525369   1.616   2.861   3.861 -2.6471  0.1906  1.8803
   58MOL   H17625370   1.337   3.070   3.562 -0.0492  3.5901  0.9326
   58MOL   H17725371   1.248   3.128   3.688 -2.1926  0.3800 -2.0241
   58MOL   C17825372   1.164   2.934   3.600 -0.2352  0.2387 -0.9842
   58MOL   C17925373   1.041   2.997   3.540 -0.1156 -0.4444 -0.0251
   58MOL   C18025374   1.057   3.087   3.410  0.2871 -1.0504  0.0517
   58MOL   C18125375   0.921   3.134   3.348 -0.4165  0.6695  0.2328
   58MOL   C18225376   0.850   3.219   3.452 -0.1846  0.2815  0.3060
   58MOL   C18325377   0.834   3.141   3.585  0.4640 -0.2574  0.3627
   58MOL   C18425378   0.960   3.076   3.649 -0.2346 -0.2289  0.7518
   58MOL   C18525379   1.225   2.815   3.517  0.3915 -1.3392 -0.6543
   58MOL   H18625380   1.133   2.889   3.694 -1.0671  0.5475 -1.1102
   58MOL   H18725381   0.974   2.913   3.524 -0.0988 -0.6352  0.8961
   58MOL   H18825382   1.113   3.178   3.432 -1.5714  0.4579 -1.2925
   58MOL   H18925383   1.118   3.036   3.335  4.2141  2.9765  0.2569
   58MOL   H19025384   0.857   3.049   3.325  0.0370  0.7097 -1.1836
   58MOL   H19125385   0.933   3.187   3.254 -0.6976  1.3230  0.5591
   58MOL   H19225386   0.905   3.310   3.473  2.0411 -0.6841 -1.1240
   58MOL   H19325387   0.746   3.243   3.427 -0.6710 -0.1234  1.8494
   58MOL   H19425388   0.753   3.075   3.557  1.5001 -1.4709  0.2011
   58MOL   H19525389   0.778   3.193   3.663 -1.3859 -3.3437  1.1613
   58MOL   H19625390   1.028   3.159   3.672 -0.8490  0.2849  0.7182
   58MOL   H19725391   0.944   3.009   3.733 -2.0886 -0.6839  0.0505
   58MOL   H19825392   1.247   2.845   3.415  3.1110  1.4438  0.6843
   58MOL   H19925393   1.322   2.787   3.558  0.0823 -0.3641  0.7571
   58MOL   C20025394   1.145   2.681   3.495 -0.7667 -0.1652  0.6055
   58MOL   C20125395   1.210   2.585   3.390 -0.3865 -0.1598  1.0529
   58MOL   C20225396   1.175   2.639   3.245 -0.1536  0.2358  0.6595
   58MOL   C20325397   1.238   2.550   3.138 -0.0502 -0.0908  0.3228
   58MOL   C20425398   1.386   2.516   3.160 -0.4092  0.3423 -0.1541
   58MOL   C20525399   1.404   2.464   3.302 -0.1762 -0.5400  0.5603
   58MOL   C20625400   1.358   2.558   3.407 -0.0111 -0.5881  0.1811
   58MOL   C20725401   1.108   2.606   3.628 -0.7572  0.7179 -0.4626
   58MOL   H20825402   1.064   2.727   3.438  0.3948 -1.1374 -1.8662
   58MOL   H20925403   1.155   2.491   3.393  0.5671 -0.8005 -0.5138
   58MOL   H21025404   1.217   2.739   3.235 -1.6040  1.0618  2.5145
   58MOL   H21125405   1.068   2.659   3.235 -0.1973  0.8181  2.0773
   58MOL   H21225406   1.183   2.456   3.132  0.3657 -0.2138 -1.9496
   58MOL   H21325407   1.227   2.600   3.042 -0.3777  4.4502  2.5652
   58MOL   H21425408   1.412   2.452   3.076 -2.2267  0.4319 -0.8008
   58MOL   H21525409   1.450   2.604   3.155  0.0077 -0.0030 -0.9520
   58MOL   H21625410   1.361   2.364   3.312 -0.0929 -0.8651 -1.9935
   58MOL   H21725411   1.512   2.460   3.318  0.4074  2.4960 -2.1562
   58MOL   H21825412   1.380   2.512   3.504 -1.1657 -1.0405  0.2390
   58MOL   H21925413   1.394   2.660   3.404 -0.7669 -0.3571 -1.1276
   58MOL   H22025414   1.204   2.564   3.660  0.2222  2.3351 -1.1963
   58MOL   H22125415   1.080   2.675   3.707  0.5057  1.0556 -0.3000
   58MOL   C22225416   0.990   2.507   3.613  0.2460  0.1283  0.1062
   58MOL   C22325417   1.004   2.378   3.698  0.1502  0.8397 -0.7937
   58MOL   C22425418   0.894   2.265   3.690 -0.5456  0.0811  0.3214
   58MOL   C22525419   0.917   2.142   3.778 -0.3216  0.2603 -0.1924
   58MOL   C22625420   0.924   2.190   3.921  0.0060 -0.2167  0.3992
   58MOL   C22725421   1.046   2.285   3.945  0.4454 -0.3714  0.1215
   58MOL   C22825422   1.033   2.406   3.847  0.3908  0.3185  0.3083
   58MOL   C22925423   0.864   2.594   3.640  0.3800 -0.2701  0.1063
   58MOL   H23025424   0.983   2.467   3.511  1.4563  0.9187 -0.3019
   58MOL   H23125425   1.091   2.326   3.657  0.1607  0.3731 -0.1855
   58MOL   H23225426   0.805   2.318   3.724  0.2272  3.1365 -2.1841
   58MOL   H23325427   0.891   2.252   3.582 -3.9112  1.6183  0.1523
   58MOL   H23425428   1.009   2.105   3.733 -0.5981 -2.0620  1.0881
   58MOL   H23525429   0.839   2.066   3.771 -0.0419 -0.5679  4.2266
   58MOL   H23625430   0.833   2.236   3.960 -0.3511 -0.7762  0.2314
   58MOL   H23725431   0.944   2.102   3.982  0.4203  0.3057  1.0226
   58MOL   H23825432   1.134   2.223   3.928  1.2548  0.9504 -0.5168
   58MOL   H23925433   1.039   2.317   4.049  1.0863 -0.8602  0.3186
   58MOL   H24025434   0.953   2.466   3.892 -0.8657 -0.2317 -1.1438
   58MOL   H24125435   1.121   2.467   3.866  0.4215  0.7431 -1.1574
   58MOL   H24225436   0.873   2.685   3.580 -1.3331  0.9360  1.6133
   58MOL   H24325437   0.860   2.610   3.748  1.5536 -1.2326  0.3001
   58MOL   C24425438   0.720   2.553   3.605  0.0534  0.1418  0.1268
   58MOL   C24525439   0.700   2.494   3.468 -0.5228  0.1585  0.2748
   58MOL   C24625440   0.719   2.593   3.342  0.5703  0.4340  0.1537
   58MOL   C24725441   0.715   2.524   3.205  0.5354 -0.4433  0.7980
   58MOL   C24825442   0.580   2.442   3.197 -0.4934 -0.6031 -0.8238
   58MOL   C24925443   0.549   2.350   3.320 -0.3645  0.0418 -0.0283
   58MOL   C25025444   0.566   2.422   3.452  0.4971  0.3670 -0.0837
   58MOL   C25125445   0.609   2.667   3.632  0.0127  0.1315  1.0881
   58MOL   H25225446   0.691   2.470   3.669 -0.4950 -2.1316 -2.9747
   58MOL   H25325447   0.772   2.415   3.445 -0.9706  0.8002 -3.7721
   58MOL   H25425448   0.816   2.640   3.359  0.3382  0.9109  0.1432
   58MOL   H25525449   0.650   2.676   3.349 -0.9389 -0.8594  0.8712
   58MOL   H25625450   0.720   2.599   3.126  2.9624 -0.2943  1.0516
   58MOL   H25725451   0.804   2.462   3.190  0.4151 -0.4031 -0.1275
   58MOL   H25825452   0.492   2.506   3.190 -0.3995 -0.5448 -1.5781
   58MOL   H25925453   0.574   2.398   3.097 -0.8589  0.6964 -1.3843
   58MOL   H26025454   0.623   2.271   3.309 -1.1457 -1.0180  2.0898
   58MOL   H26125455   0.450   2.304   3.318 -0.6101  0.5291  0.5953
   58MOL   H26225456   0.477   2.479   3.475  0.5324  0.8783 -1.1807
   58MOL   H26325457   0.563   2.342   3.526  1.1465  0.7205  0.3333
   58MOL   H26425458   0.562   2.699   3.539  1.3724 -0.3746  0.2026
   58MOL   H26525459   0.662   2.758   3.661 -1.4844  0.1888  3.7718
   58MOL   C26625460   0.493   2.640   3.731 -1.0376 -0.2159 -0.0105
   58MOL   C26725461   0.481   2.749   3.849  0.6565  0.0857  0.1605
   58MOL   C26825462   0.462   2.895   3.807  0.2043 -0.4476  1.0738
   58MOL   C26925463   0.433   2.985   3.929  0.1763  0.5451 -0.7453
   58MOL   C27025464   0.553   2.972   4.029  0.5600  0.2934 -0.4802
   58MOL   C27125465   0.561   2.825   4.081 -0.1568 -0.0347 -0.5901
   58MOL   C27225466   0.584   2.723   3.964  0.3132 -0.9604 -0.0793
   58MOL   C27325467   0.351   2.617   3.660  0.7649 -0.3199  0.8824
   58MOL   H27425468   0.511   2.544   3.781 -0.3002 -1.2170 -2.1204
   58MOL   H27525469   0.381   2.725   3.887  0.3413 -0.2000 -0.8351
   58MOL   H27625470   0.552   2.926   3.754  0.1067 -2.3503 -0.2244
   58MOL   H27725471   0.374   2.899   3.742 -0.5690 -0.1680  2.1223
   58MOL   H27825472   0.342   2.954   3.982  0.5090 -3.0097 -2.1202
   58MOL   H27925473   0.420   3.089   3.900 -0.1923  0.3514 -1.2832
   58MOL   H28025474   0.636   3.002   3.964 -0.6819  1.6107 -1.4796
   58MOL   H28125475   0.543   3.034   4.118  1.1518  0.1184 -0.2827
   58MOL   H28225476   0.476   2.784   4.134  0.9666 -1.1888  0.3717
   58MOL   H28325477   0.645   2.812   4.149 -0.6775  0.3158  0.1131
   58MOL   H28425478   0.580   2.617   3.991  0.2515 -1.1016 -0.6456
   58MOL   H28525479   0.678   2.733   3.911  0.6601  0.9930  0.8780
   58MOL   H28625480   0.357   2.630   3.552  1.3872  0.8188  1.0535
   58MOL   H28725481   0.292   2.703   3.691  0.0065 -0.6165  0.2839
   58MOL   C28825482   0.274   2.485   3.696 -0.3524  0.6543 -0.1052
   58MOL   C28925483   0.159   2.458   3.594  0.0358 -0.3691  0.7407
   58MOL   C29025484   0.071   2.583   3.567 -1.0753 -0.4099 -0.2356
   58MOL   C29125485   7.724   2.548   3.477  0.5704 -0.0430 -0.4081
   58MOL   C29225486   0.002   2.481   3.347  0.0240 -0.1900 -0.7035
   58MOL   C29325487   0.107   2.368   3.363 -0.7835  0.5819 -0.2840
   58MOL   C29425488   0.214   2.403   3.463  0.4442 -0.4469  0.6100
   58MOL   C29525489   0.222   2.481   3.845 -0.0177  0.5062 -0.4056
   58MOL   H29625490   0.350   2.407   3.687  2.7287  3.0636  3.3705
   58MOL   H29725491   0.109   2.371   3.635  1.9164 -1.2515  1.1879
   58MOL   H29825492   0.024   2.630   3.654  1.1708 -0.2804  0.9411
   58MOL   H29925493   0.130   2.663   3.522 -2.3035  0.0465 -1.0570
   58MOL   H30025494   7.655   2.480   3.526 -2.0039  4.0133  1.8694
   58MOL   H30125495   7.675   2.643   3.455  3.2169  1.3839 -0.3259
   58MOL   H30225496   0.041   2.561   3.284  0.9376 -1.7858 -2.2052
   58MOL   H30325497   7.697   2.447   3.278 -1.3540 -1.1677  1.2811
   58MOL   H30425498   0.151   2.359   3.264 -0.0477  1.2753 -0.0333
   58MOL   H30525499   0.066   2.268   3.379 -1.4830  0.7069 -1.2663
   58MOL   H30625500   0.289   2.469   3.419  0.5960  0.0486  1.6096
   58MOL   H30725501   0.274   2.314   3.481 -0.0234 -0.9706 -0.3843
   58MOL   H30825502   0.301   2.508   3.916  1.0412  0.1140 -1.4201
   58MOL   H30925503   0.154   2.566   3.842  0.7857  1.1562 -0.7208
   58MOL   C31025504   0.153   2.358   3.905  0.0129  0.5445  0.3957
   58MOL   C31125505   0.240   2.227   3.880  0.9005  0.8225 -0.1102
   58MOL   C31225506   0.358   2.209   3.979 -0.0842 -0.5028  0.8870
   58MOL   C31325507   0.448   2.090   3.956  0.0674 -0.2013  0.6473
   58MOL   C31425508   0.360   1.964   3.965  0.5290  0.7501  0.2377
   58MOL   C31525509   0.239   1.978   3.865  0.6180  0.7528 -0.0098
   58MOL   C31625510   0.155   2.099   3.886  0.0744  0.0834  0.6446
   58MOL   C31725511   0.100   2.396   4.042 -0.5395 -0.0014  0.9885
   58MOL   H31825512   0.058   2.354   3.853  1.0958  2.6616 -1.8336
   58MOL   H31925513   0.286   2.233   3.781  2.7692 -2.8686  0.4643
   58MOL   H32025514   0.419   2.299   3.987 -0.3622 -0.1448 -0.8581
   58MOL   H32125515   0.316   2.190   4.078 -0.0937 -0.4232  0.8978
   58MOL   H32225516   0.529   2.092   4.029  0.8371 -0.5637 -0.1898
   58MOL   H32325517   0.507   2.085   3.865  0.1984  0.3308  0.7008
   58MOL   H32425518   0.411   1.870   3.947 -0.6940  0.1444 -0.1477
   58MOL   H32525519   0.320   1.950   4.066 -1.9289  0.7275 -0.6966
   58MOL   H32625520   0.269   1.970   3.761 -0.0150 -1.4805 -0.0448
   58MOL   H32725521   0.179   1.892   3.893  1.1586  0.2227 -0.4748
   58MOL   H32825522   0.100   2.096   3.979 -1.0456  0.7702  0.0095
   58MOL   H32925523   0.082   2.101   3.805 -0.7773  0.2012  1.4132
   58MOL   H33025524   0.179   2.450   4.093  1.8242 -1.7284 -0.7092
   58MOL   H33125525   0.084   2.304   4.099 -1.5608  0.0384  0.7739
   58MOL   C33225526   7.737   2.476   4.043 -0.3981  0.1764  0.0387
   58MOL   C33325527   7.749   2.605   4.130 -0.2156  0.4716 -0.0042
   58MOL   C33425528   0.094   2.694   4.081 -0.0343 -0.2019 -0.1275
   58MOL   C33525529   0.088   2.831   4.155  0.1485 -0.3381 -0.2041
   58MOL   C33625530   0.102   2.801   4.307  0.4490  0.2399  0.1937
   58MOL   C33725531   7.768   2.721   4.358  0.0311 -0.5980 -0.2223
   58MOL   C33825532   7.764   2.586   4.283  0.1230 -0.3816 -0.3318
   58MOL   C33925533   7.622   2.388   4.079  0.2620  0.0824  0.3386
   58MOL   H34025534   7.714   2.519   3.945  0.8248  0.0899 -0.2952
   58MOL   H34125535   7.655   2.658   4.114 -1.1948 -0.2720  2.9822
   58MOL   H34225536   0.187   2.638   4.094 -2.3879 -3.8655  1.9121
   58MOL   H34325537   0.083   2.722   3.976 -0.6568 -0.8750 -0.2508
   58MOL   H34425538   0.178   2.883   4.120  0.4959 -2.0804 -1.9383
   58MOL   H34525539   0.004   2.895   4.128 -0.3947 -1.1260 -0.3897
   58MOL   H34625540   0.194   2.743   4.303 -0.8765 -1.7543 -4.2778
   58MOL   H34725541   0.124   2.885   4.373 -2.4345  1.6376 -0.5493
   58MOL   H34825542   7.673   2.772   4.346  0.5100  0.1005 -1.0991
   58MOL   H34925543   0.010   2.697   4.463  0.1912  1.7721  0.3207
   58MOL   H35025544   7.677   2.524   4.305 -1.9840  2.6388  0.1243
   58MOL   H35125545   0.069   2.518   4.321  1.0296 -0.1239 -1.6882
   58MOL   H35225546   7.538   2.457   4.092 -0.8840 -1.2883  0.3959
   58MOL   H35325547   7.648   2.344   4.175  2.3838  0.5445  0.0075
   58MOL   C35425548   7.564   2.276   3.986  0.1374  0.8115 -0.6214
   58MOL   C35525549   7.511   2.326   3.842  0.4797 -0.2811 -0.0060
   58MOL   C35625550   7.408   2.444   3.837 -0.4923 -0.2958  0.8701
   58MOL   C35725551   7.381   2.487   3.689 -0.6957  0.5074  0.9981
   58MOL   C35825552   7.338   2.368   3.604  0.7793 -0.3700  0.5383
   58MOL   C35925553   7.434   2.247   3.617  0.2991 -0.5456 -0.1534
   58MOL   C36025554   7.463   2.203   3.755 -1.2405 -0.7756  0.2635
   58MOL   C36125555   7.449   2.201   4.062  0.6535 -0.2115  0.1356
   58MOL   H36225556   7.647   2.212   3.956 -0.6848 -0.6866  0.2497
   58MOL   H36325557   7.602   2.363   3.796 -1.5533  2.0030 -2.3275
   58MOL   H36425558   7.454   2.525   3.894  2.0552 -1.3860  0.4510
   58MOL   H36525559   7.322   2.408   3.894 -0.3361 -0.3154  1.0960
   58MOL   H36625560   7.301   2.560   3.701 -0.8951  0.6358 -1.0247
   58MOL   H36725561   7.468   2.544   3.654 -1.4424  1.0065 -0.0476
   58MOL   H36825562   7.234   2.337   3.612  0.6137 -0.2235 -0.8772
   58MOL   H36925563   7.346   2.392   3.498 -1.2893 -0.6883  0.2827
   58MOL   H37025564   7.379   2.166   3.571 -1.9049  1.2314 -0.7388
   58MOL   H37125565   7.529   2.263   3.565 -1.0946 -1.5628 -3.0923
   58MOL   H37225566   7.536   2.122   3.752  1.6220  1.6658  0.9311
   58MOL   H37325567   7.365   2.173   3.792 -0.8688 -2.1299  0.1775
   58MOL   H37425568   7.397   2.132   3.995 -0.2793 -1.2037  1.8661
   58MOL   H37525569   7.370   2.265   4.103 -0.2740 -1.6168  0.5723
   58MOL   C37625570   7.499   2.110   4.179  0.5704 -0.4824  0.7345
   58MOL   C37725571   7.372   2.063   4.264 -0.1287  0.0043  0.2320
   58MOL   C37825572   7.233   2.056   4.182 -0.7867  0.3384 -0.3789
   58MOL   C37925573   7.135   1.982   4.270 -0.5362  0.4240  0.1042
   58MOL   C38025574   7.107   2.053   4.402 -0.8798  0.2849 -0.5593
   58MOL   C38125575   7.232   2.095   4.477 -0.6198  0.5222 -0.0228
   58MOL   C38225576   7.342   2.155   4.380  0.9557 -0.3043 -0.0668
   58MOL   C38325577   7.580   1.982   4.131  1.2905 -0.3915 -0.4881
   58MOL   H38425578   7.567   2.167   4.243 -0.1632  1.4390 -0.1752
   58MOL   H38525579   7.378   1.965   4.311 -1.2920  0.8532  2.2389
   58MOL   H38625580   7.199   2.156   4.159 -1.7597 -0.2158 -1.3982
   58MOL   H38725581   7.252   1.998   4.092 -0.7863 -0.3059  0.0280
   58MOL   H38825582   7.180   1.884   4.289  0.1492  0.3957 -1.5776
   58MOL   H38925583   7.041   1.967   4.218  0.1232 -0.0322 -0.9722
   58MOL   H39025584   7.050   2.140   4.369  1.1019  2.3837  1.3440
   58MOL   H39125585   7.050   1.996   4.477  2.1643 -2.4132 -0.1843
   58MOL   H39225586   7.214   2.182   4.541 -0.4234  0.8311 -0.3869
   58MOL   H39325587   7.276   2.015   4.537 -0.7643 -0.0023 -0.6133
   58MOL   H39425588   7.315   2.254   4.342 -1.0145 -0.9064 -0.2750
   58MOL   H39525589   7.429   2.171   4.443  2.1165 -1.2503 -1.3860
   58MOL   H39625590   7.660   2.014   4.064  1.1515  3.2542  0.9395
   58MOL   H39725591   7.513   1.930   4.062  1.2040  1.2423 -1.6703
   58MOL   C39825592   7.647   1.898   4.250  0.2051  0.4290 -0.1838
   58MOL   C39925593   7.656   1.744   4.206 -0.6730 -0.5583  0.1572
   58MOL   C40025594   7.526   1.664   4.224 -0.3884  0.0635  0.3813
   58MOL   C40125595   7.542   1.521   4.190 -0.6101  0.0749  0.6583
   58MOL   C40225596   7.603   1.494   4.053 -0.1915  0.0248  0.5655
   58MOL   C40325597   7.728   1.558   4.034  0.1711 -0.4327 -0.4461
   58MOL   C40425598   7.718   1.713   4.068  1.0185 -0.3112 -0.8310
   58MOL   C40525599   0.010   1.961   4.288 -0.1400  0.6193  0.2007
   58MOL   H40625600   7.582   1.905   4.337 -0.2199  0.2455 -0.4917
   58MOL   H40725601   7.721   1.698   4.281  0.2451  1.5095  0.6698
   58MOL   H40825602   7.446   1.701   4.160 -2.2572 -1.5716  1.6837
   58MOL   H40925603   7.511   1.686   4.330 -0.4678 -0.7537  0.5485
   58MOL   H41025604   7.444   1.474   4.195 -0.4745 -0.0850  2.0546
   58MOL   H41125605   7.591   1.475   4.276 -0.0315  0.8203  0.7406
   58MOL   H41225606   7.545   1.543   3.975  0.7471 -0.7264 -0.6141
   58MOL   H41325607   7.599   1.387   4.031 -2.6011  0.4292 -1.2089
   58MOL   H41425608   0.027   1.506   4.099  0.3076 -0.9138 -0.9847
   58MOL   H41525609   7.763   1.554   3.931 -0.2532  1.5463 -0.6871
   58MOL   H41625610   0.047   1.754   4.071  0.5843  0.6706  1.3009
   58MOL   H41725611   7.670   1.771   3.989  0.9805  0.1349 -0.4847
   58MOL   H41825612   0.086   1.914   4.227 -1.6844  0.1628 -1.4180
   58MOL   H41925613   0.004   2.066   4.260 -0.5452 -0.2764 -3.2917
   58MOL   C42025614   0.047   1.961   4.437 -0.7701  0.6400 -0.5457
   58MOL   C42125615   0.184   2.037   4.468  0.8486 -0.1260  0.0457
   58MOL   C42225616   0.316   1.965   4.439  0.0675  0.1301  0.7983
   58MOL   C42325617   0.439   2.056   4.457 -0.0543 -0.2717  0.4358
   58MOL   C42425618   0.442   2.104   4.598  0.1337  0.5120 -0.1309
   58MOL   C42525619   0.314   2.188   4.621 -0.6631 -0.1645  0.4730
   58MOL   C42625620   0.192   2.095   4.609  0.1290 -0.2741 -0.3731
   58MOL   C42725621   0.048   1.828   4.512 -0.1084  0.0200  0.4873
   58MOL   H42825622   7.741   2.019   4.486 -0.8603  0.5177 -0.5462
   58MOL   H42925623   0.171   2.122   4.401  0.9594  0.1858  0.4186
   58MOL   H43025624   0.341   1.884   4.508  0.3036 -0.0508  0.5091
   58MOL   H43125625   0.310   1.906   4.347  3.3785  2.7809 -1.2233
   58MOL   H43225626   0.537   2.013   4.435  0.2250  0.6305 -0.1175
   58MOL   H43325627   0.431   2.145   4.394 -0.1137 -1.4701 -1.2732
   58MOL   H43425628   0.531   2.158   4.628  1.2771 -0.6967 -1.2651
   58MOL   H43525629   0.446   2.019   4.665  2.5827  1.6344  1.1751
   58MOL   H43625630   0.307   2.272   4.552  0.3863  0.7720  1.4863
   58MOL   H43725631   0.317   2.223   4.724  1.9282 -0.4497  0.5132
   58MOL   H43825632   0.203   2.017   4.685  0.6033  0.7028  0.5877
   58MOL   H43925633   0.099   2.147   4.634  0.7189 -0.1246  1.6276
   58MOL   H44025634   7.725   1.775   4.500  0.9034 -1.8999  0.6424
   58MOL   H44125635   0.126   1.762   4.475  1.0013  1.1541  0.7760
   58MOL   H44225636   0.076   1.852   4.614 -0.2091  0.8476  0.3189
   59MOL     C125637   3.680   6.390   1.073  0.2653  0.0732 -0.5799
   59MOL     C225638   3.606   6.424   1.202 -0.0952 -0.3753 -0.2205
   59MOL     C325639   3.675   6.391   1.335 -0.2695  0.4900  0.2628
   59MOL     C425640   3.585   6.437   1.451 -0.4728 -0.4615 -0.1301
   59MOL     C525641   3.446   6.382   1.437  0.0313 -0.3712 -0.4131
   59MOL     C625642   3.369   6.399   1.303 -0.3702  1.5526 -0.5345
   59MOL     C725643   3.472   6.356   1.193  0.4798  0.2318 -0.1268
   59MOL     C825644   3.805   6.467   1.052  0.3286 -0.0381  0.0380
   59MOL     H925645   3.716   6.288   1.063  1.2694  0.4579 -0.9119
   59MOL    H1025646   3.590   6.531   1.215  1.0082 -0.3592  1.0366
   59MOL    H1125647   3.674   6.282   1.339 -0.8122  0.4133 -1.6853
   59MOL    H1225648   3.779   6.423   1.324 -0.0101 -0.5571 -0.3620
   59MOL    H1325649   3.580   6.545   1.463 -1.2255 -0.2451 -2.1884
   59MOL    H1425650   3.617   6.398   1.547  0.0929 -1.1706 -0.5985
   59MOL    H1525651   3.371   6.412   1.510 -1.3442  0.0914 -2.0026
   59MOL    H1625652   3.463   6.276   1.460 -1.7159 -0.3561  1.0779
   59MOL    H1725653   3.278   6.339   1.288 -0.2082  0.9974  0.6827
   59MOL    H1825654   3.354   6.506   1.296  0.5878  1.8557  1.7045
   59MOL    H1925655   3.435   6.396   1.099  2.1444  0.9282 -0.4904
   59MOL    H2025656   3.490   6.248   1.190 -2.3053 -0.3323  1.3138
   59MOL    H2125657   3.869   6.454   1.139  0.7918 -0.3756 -0.3525
   59MOL    H2225658   3.783   6.573   1.049  1.7264  0.2980  1.1266
   59MOL    H2325659   3.610   6.410   0.992  0.1958 -0.9049 -0.7659
   59MOL    C2425660   3.887   6.445   0.922 -0.6298 -0.7011 -0.1189
   59MOL    C2525661   3.814   6.500   0.795  0.0904 -0.9182 -0.0528
   59MOL    C2625662   3.883   6.469   0.659 -0.0157 -0.3195 -0.5894
   59MOL    C2725663   3.796   6.522   0.541  0.3783 -0.2239  0.0283
   59MOL    C2825664   3.761   6.672   0.564 -0.0439  0.3356 -0.4286
   59MOL    C2925665   3.677   6.691   0.687 -0.1694  0.4037 -0.7484
   59MOL    C3025666   3.774   6.649   0.803  0.7609 -0.1785 -0.1758
   59MOL    C3125667   4.033   6.504   0.940  0.0039  0.4768  0.0209
   59MOL    H3225668   3.893   6.337   0.910  0.5866 -0.6367 -0.1541
   59MOL    H3325669   3.716   6.452   0.790 -1.2522  1.6771  0.4732
   59MOL    H3425670   3.903   6.363   0.648  1.2476  0.0510 -2.2315
   59MOL    H3525671   3.977   6.525   0.655  0.8374 -1.6713  0.0945
   59MOL    H3625672   3.859   6.512   0.453  0.0610  2.6194 -0.5824
   59MOL    H3725673   3.711   6.456   0.524  0.8016 -1.4037  2.1895
   59MOL    H3825674   3.705   6.699   0.474  1.5182  1.6341 -1.0421
   59MOL    H3925675   3.849   6.732   0.541  0.5716  0.0323  1.0729
   59MOL    H4025676   3.643   6.795   0.695 -0.4280  0.4282 -1.9806
   59MOL    H4125677   3.581   6.639   0.686 -1.6758  3.0650 -0.8930
   59MOL    H4225678   3.856   6.720   0.815 -1.0145  1.7440  0.7863
   59MOL    H4325679   3.712   6.663   0.891  1.7575  0.2805  0.4585
   59MOL    H4425680   4.026   6.599   0.991 -0.2301 -0.9844  2.8152
   59MOL    H4525681   4.080   6.526   0.844  1.3398  1.6254  0.9202
   59MOL    C4625682   4.119   6.402   1.015  0.3119 -0.6088 -0.8084
   59MOL    C4725683   4.238   6.479   1.088 -0.3997  0.7909 -0.0504
   59MOL    C4825684   4.197   6.515   1.233 -0.0756 -0.1690  0.6762
   59MOL    C4925685   4.328   6.577   1.305 -0.0571  0.5575  0.4679
   59MOL    C5025686   4.387   6.696   1.233 -0.1589 -0.1807  0.1985
   59MOL    C5125687   4.434   6.643   1.093  0.7865 -0.1506 -0.5155
   59MOL    C5225688   4.312   6.590   1.014 -0.0222 -0.1339  0.7271
   59MOL    C5325689   4.169   6.291   0.914 -0.1816  0.7505  0.3509
   59MOL    H5425690   4.064   6.351   1.093 -1.4465  1.9985 -0.2704
   59MOL    H5525691   4.316   6.404   1.102  1.1350  2.2102 -0.7963
   59MOL    H5625692   4.108   6.576   1.248 -1.4682 -0.9439 -3.7212
   59MOL    H5725693   4.185   6.423   1.289 -0.6259  0.5563  1.7807
   59MOL    H5825694   4.401   6.496   1.310  0.3485  0.9184  0.3862
   59MOL    H5925695   4.314   6.592   1.412 -0.6103  2.2317  0.1718
   59MOL    H6025696   4.311   6.774   1.230 -0.9088 -0.8175  2.1289
   59MOL    H6125697   4.473   6.738   1.285  1.0255 -0.4453 -1.5033
   59MOL    H6225698   4.508   6.563   1.107  1.3219  0.1429 -1.6217
   59MOL    H6325699   4.490   6.727   1.052 -0.1270  0.6831 -0.0774
   59MOL    H6425700   4.246   6.675   0.993  0.3259 -0.2125 -0.6945
   59MOL    H6525701   4.348   6.546   0.921  1.1463 -0.1393  1.1761
   59MOL    H6625702   4.261   6.323   0.867  0.9472 -0.5636  1.6294
   59MOL    H6725703   4.096   6.277   0.834  0.6673 -1.4686 -0.0577
   59MOL    C6825704   4.204   6.153   0.978  0.4245  0.0692  0.1055
   59MOL    C6925705   4.075   6.078   1.036  0.0536  0.6648 -0.2939
   59MOL    C7025706   3.974   6.021   0.933 -0.1318 -0.5394 -0.2384
   59MOL    C7125707   3.850   5.962   1.004 -0.3522 -0.5559 -0.1822
   59MOL    C7225708   3.889   5.855   1.106  0.5133  0.2579 -0.0749
   59MOL    C7325709   3.996   5.911   1.204  0.0267  0.5312 -0.7588
   59MOL    C7425710   4.118   5.983   1.148  0.0111  0.0584  0.2201
   59MOL    C7525711   4.276   6.067   0.877  0.2253 -1.0952 -0.1645
   59MOL    H7625712   4.274   6.172   1.059 -0.2092  0.7781  0.4883
   59MOL    H7725713   4.020   6.148   1.099  0.9792 -0.2360  1.5731
   59MOL    H7825714   4.021   5.946   0.870 -1.6495 -2.8550  1.3297
   59MOL    H7925715   3.940   6.101   0.867  0.7932  0.5580  0.5727
   59MOL    H8025716   3.772   6.027   1.044  0.2407  0.6792 -1.0323
   59MOL    H8125717   3.802   5.903   0.926 -1.6811 -0.9491  0.9029
   59MOL    H8225718   3.913   5.761   1.056  1.6258  1.2172 -1.3687
   59MOL    H8325719   3.799   5.813   1.152  0.9760  0.0851  0.6918
   59MOL    H8425720   4.042   5.828   1.257 -1.1784 -0.4265 -1.2001
   59MOL    H8525721   3.948   5.983   1.271  1.7489  1.1182 -0.1211
   59MOL    H8625722   4.195   5.917   1.108  1.4449  2.1253 -0.5143
   59MOL    H8725723   4.173   6.041   1.222 -2.1385  3.0261 -0.4574
   59MOL    H8825724   4.265   5.966   0.918 -1.0079 -1.7885 -2.1717
   59MOL    H8925725   4.219   6.069   0.785  1.8330  0.3577 -1.1522
   59MOL    C9025726   4.424   6.093   0.846 -0.1765  0.1536  0.2769
   59MOL    C9125727   4.517   6.100   0.975  0.1425 -0.4034 -0.2515
   59MOL    C9225728   4.529   5.967   1.051 -0.5752 -0.0604 -0.4006
   59MOL    C9325729   4.603   5.994   1.177  0.1716 -0.7303  0.1384
   59MOL    C9425730   4.738   6.064   1.153  0.3222  0.8353  0.2422
   59MOL    C9525731   4.745   6.178   1.064 -0.7618  0.0280  0.3309
   59MOL    C9625732   4.668   6.151   0.939 -0.0954  0.0077 -0.3446
   59MOL    C9725733   4.481   5.981   0.750 -0.2394 -0.6338 -0.4083
   59MOL    H9825734   4.428   6.192   0.800 -0.6350 -0.8411 -1.9634
   59MOL    H9925735   4.471   6.172   1.043 -0.1661 -2.0086  1.2774
   59MOL   H10025736   4.559   5.877   0.997  0.8788  1.3334 -1.9661
   59MOL   H10125737   4.426   5.934   1.069 -0.5790 -0.1262 -0.5422
   59MOL   H10225738   4.619   5.901   1.231  0.0381 -0.9696 -0.2301
   59MOL   H10325739   4.536   6.047   1.244  2.0039  1.4788  0.2994
   59MOL   H10425740   4.802   5.981   1.122  0.2961  1.6678 -2.0638
   59MOL   H10525741   4.778   6.095   1.250  1.5897  0.1366 -0.0400
   59MOL   H10625742   4.705   6.270   1.108 -0.2817  0.0723  0.6774
   59MOL   H10725743   4.847   6.198   1.029 -1.8459 -0.6194 -3.3874
   59MOL   H10825744   4.666   6.248   0.889 -0.2408  0.2216  0.0740
   59MOL   H10925745   4.714   6.076   0.875 -1.2660 -2.0118  1.1215
   59MOL   H11025746   4.584   5.995   0.716 -0.5758  0.1682 -1.1151
   59MOL   H11125747   4.473   5.885   0.801 -0.4447 -0.1187  0.5281
   59MOL   C11225748   4.393   5.961   0.616 -0.0865 -0.2586  0.2090
   59MOL   C11325749   4.345   5.817   0.596  0.3640  0.1598  0.4030
   59MOL   C11425750   4.246   5.765   0.705  0.2460 -0.5915 -1.0624
   59MOL   C11525751   4.193   5.620   0.676 -0.1530 -0.3474 -0.6266
   59MOL   C11625752   4.310   5.527   0.679 -0.7656 -0.2284  0.5074
   59MOL   C11725753   4.415   5.569   0.571  0.2771 -0.2257  0.1525
   59MOL   C11825754   4.465   5.717   0.587  0.6868  0.2228  0.3906
   59MOL   C11925755   4.477   6.013   0.500  0.4514 -0.3242 -0.3090
   59MOL   H12025756   4.298   6.016   0.615 -0.3604 -0.7296 -0.0495
   59MOL   H12125757   4.289   5.822   0.503  2.2894 -0.9615 -0.8606
   59MOL   H12225758   4.161   5.829   0.726 -0.3574 -2.0570  1.0789
   59MOL   H12325759   4.296   5.757   0.801 -0.0440 -0.6325 -0.9162
   59MOL   H12425760   4.136   5.591   0.765  1.8805  0.8762  1.1345
   59MOL   H12525761   4.131   5.625   0.587 -1.8719  1.1613  0.6134
   59MOL   H12625762   4.359   5.510   0.775  1.2740 -1.0631 -0.6520
   59MOL   H12725763   4.267   5.429   0.664 -0.5153 -0.0426 -1.4560
   59MOL   H12825764   4.498   5.498   0.574  0.6589  0.1638 -0.8579
   59MOL   H12925765   4.373   5.560   0.470  0.1879 -2.7141  0.3755
   59MOL   H13025766   4.533   5.739   0.506 -1.0904  2.4010 -0.5643
   59MOL   H13125767   4.515   5.721   0.684  2.4257 -2.1317 -0.3701
   59MOL   H13225768   4.425   5.991   0.407 -2.0077  1.4030  0.6125
   59MOL   H13325769   4.568   5.956   0.482  2.1814  2.1708  0.3768
   59MOL   C13425770   4.519   6.163   0.501  0.1241  0.3605  0.0242
   59MOL   C13525771   4.393   6.261   0.492 -0.4710 -0.3986  0.3160
   59MOL   C13625772   4.352   6.289   0.348 -0.0538 -0.6810  0.2253
   59MOL   C13725773   4.217   6.361   0.333  0.4107  0.1234  0.7062
   59MOL   C13825774   4.221   6.491   0.410  0.1625  0.4278 -0.9682
   59MOL   C13925775   4.264   6.463   0.553  0.0550 -0.2916  0.2711
   59MOL   C14025776   4.403   6.396   0.572 -0.4764  0.7455 -0.1407
   59MOL   C14125777   4.626   6.202   0.395 -0.0093  0.4237  1.1128
   59MOL   H14225778   4.563   6.185   0.599 -1.0532  0.1055  0.6207
   59MOL   H14325779   4.303   6.209   0.524  0.2958 -1.1334  1.3111
   59MOL   H14425780   4.421   6.352   0.292 -2.0827  0.5916 -0.9181
   59MOL   H14525781   4.356   6.199   0.286  0.1693  0.2247 -1.0918
   59MOL   H14625782   4.131   6.299   0.360 -1.1569  0.9765 -2.1052
   59MOL   H14725783   4.203   6.390   0.228  1.5378  0.9355  0.7701
   59MOL   H14825784   4.294   6.564   0.374  0.9208 -0.1550 -0.6344
   59MOL   H14925785   4.127   6.547   0.407  0.4484  0.8722 -2.1326
   59MOL   H15025786   4.182   6.406   0.598 -1.1836  2.3669  1.5002
   59MOL   H15125787   4.271   6.556   0.611  1.1859  0.6185 -1.3022
   59MOL   H15225788   4.479   6.463   0.533 -0.3441  0.8461  0.2878
   59MOL   H15325789   4.420   6.382   0.679  0.4984 -2.6713 -0.6817
   59MOL   H15425790   4.632   6.311   0.392  0.8390  0.4015  1.6283
   59MOL   H15525791   4.586   6.179   0.296 -4.7429 -0.0567  3.0230
   59MOL   C15625792   4.766   6.142   0.422  0.3456 -0.1069  0.0636
   59MOL   C15725793   4.873   6.250   0.454 -0.3432  0.0594 -0.6345
   59MOL   C15825794   4.891   6.345   0.331  0.0489  0.1987 -0.7919
   59MOL   C15925795   4.996   6.451   0.360 -0.5162  0.4445  0.5912
   59MOL   C16025796   4.965   6.537   0.482  0.1549 -0.2327 -0.7660
   59MOL   C16125797   4.931   6.448   0.607 -0.3229 -0.4236  0.3871
   59MOL   C16225798   4.842   6.332   0.575  0.0723  0.4398 -1.2406
   59MOL   C16325799   4.799   6.036   0.313 -0.0472  0.1083 -0.1059
   59MOL   H16425800   4.750   6.096   0.519  1.6763  2.8121  1.7055
   59MOL   H16525801   4.971   6.206   0.469 -0.2153  0.0589 -1.4714
   59MOL   H16625802   4.932   6.279   0.254 -0.6737  0.0248 -1.0257
   59MOL   H16725803   4.806   6.395   0.285 -0.1259  0.4552 -0.1862
   59MOL   H16825804   5.089   6.400   0.385  0.7207  1.5885 -1.5428
   59MOL   H16925805   5.000   6.513   0.271  0.7674 -2.9997 -1.8542
   59MOL   H17025806   4.881   6.598   0.449 -0.4357 -0.5834  0.0690
   59MOL   H17125807   5.053   6.599   0.499 -0.0068 -0.6560  1.8223
   59MOL   H17225808   4.883   6.508   0.684 -1.4285  0.0129 -0.6215
   59MOL   H17325809   5.026   6.416   0.651 -0.1094  0.8948  0.8751
   59MOL   H17425810   4.861   6.260   0.654 -2.1677 -0.1946 -1.2389
   59MOL   H17525811   4.736   6.358   0.572 -0.4801 -1.6371 -0.5227
   59MOL   H17625812   4.797   6.075   0.211 -2.1243 -0.8095 -0.4496
   59MOL   H17725813   4.715   5.967   0.319 -0.8167  0.7774 -2.3348
   59MOL   C17825814   4.936   5.971   0.337  0.2955 -0.5525 -0.3629
   59MOL   C17925815   4.950   5.892   0.474  0.0724 -0.9773 -0.2680
   59MOL   C18025816   5.098   5.867   0.506 -0.0507 -0.5524  0.2859
   59MOL   C18125817   5.127   5.796   0.641 -0.1428 -0.0024 -0.2827
   59MOL   C18225818   5.037   5.675   0.672  0.5048 -0.0106  0.1726
   59MOL   C18325819   4.890   5.719   0.649 -0.1054  0.0244  0.9918
   59MOL   C18425820   4.853   5.769   0.508  0.1570  0.1054  0.1374
   59MOL   C18525821   4.977   5.880   0.212 -0.0546  0.0990 -0.1191
   59MOL   H18625822   5.005   6.055   0.344 -0.0596 -0.4840  2.7280
   59MOL   H18725823   4.921   5.963   0.551  2.2018 -1.1312  0.7103
   59MOL   H18825824   5.156   5.813   0.431 -2.0743 -2.8993  0.3359
   59MOL   H18925825   5.149   5.964   0.504 -1.1406  0.0081 -0.4152
   59MOL   H19025826   5.106   5.868   0.720 -0.8312 -1.5374  0.9631
   59MOL   H19125827   5.230   5.760   0.643  0.2128  1.0500  1.5546
   59MOL   H19225828   5.072   5.599   0.601  0.3362 -0.1730  0.2621
   59MOL   H19325829   5.050   5.644   0.776 -0.7583  1.7762  0.8790
   59MOL   H19425830   4.853   5.802   0.709  0.6741  1.5233 -0.5639
   59MOL   H19525831   4.827   5.635   0.677  0.6014 -0.2154  1.8919
   59MOL   H19625832   4.870   5.694   0.430 -0.6949 -0.7989  0.8149
   59MOL   H19725833   4.747   5.790   0.495 -0.0053 -0.3401  0.6882
   59MOL   H19825834   5.029   5.790   0.243 -1.7058 -1.0087 -0.4686
   59MOL   H19925835   4.885   5.855   0.158  0.4591  0.1967 -1.0521
   59MOL   C20025836   5.069   5.959   0.112  0.4292  0.2252 -0.0778
   59MOL   C20125837   5.218   5.953   0.152  0.3801 -0.1896  0.1669
   59MOL   C20225838   5.303   5.821   0.116  0.1120 -0.3267 -0.3503
   59MOL   C20325839   5.445   5.837   0.161  0.4557  0.3301  0.3524
   59MOL   C20425840   5.504   5.952   0.097 -0.2350  0.4411  0.6778
   59MOL   C20525841   5.434   6.088   0.133 -0.0547  1.0703 -0.0872
   59MOL   C20625842   5.289   6.074   0.093  0.1282  0.0149  0.5960
   59MOL   C20725843   5.052   5.924   7.739  0.8195  0.3851  0.3907
   59MOL   H20825844   5.042   6.064   0.127 -0.7453 -0.0605 -0.1378
   59MOL   H20925845   5.211   5.979   0.257  1.8472 -0.4438  0.3424
   59MOL   H21025846   5.299   5.805   0.008  2.4254  0.8722 -0.6485
   59MOL   H21125847   5.256   5.734   0.163 -0.3756 -0.1212 -0.4556
   59MOL   H21225848   5.448   5.844   0.270  0.2833 -0.0893  0.3825
   59MOL   H21325849   5.509   5.757   0.124  2.5676  1.4260  1.5210
   59MOL   H21425850   5.611   5.952   0.118  0.3243  0.7119 -1.9559
   59MOL   H21525851   5.496   5.944   7.761 -0.6950 -0.4001  0.7732
   59MOL   H21625852   5.430   6.117   0.238  0.0192 -0.3369  0.3116
   59MOL   H21725853   5.483   6.162   0.070  1.5710 -0.0765 -0.2062
   59MOL   H21825854   5.236   6.166   0.117  1.0665  0.1089  2.4177
   59MOL   H21925855   5.290   6.067   7.757  0.9000  0.1976  0.5840
   59MOL   H22025856   5.145   5.932   7.682  1.0999  0.3381  0.8432
   59MOL   H22125857   5.040   5.816   7.736  0.7531  0.3894  0.5163
   59MOL   C22225858   4.921   5.981   7.674 -0.5943  0.5644  0.0190
   59MOL   C22325859   4.909   6.132   7.672 -0.4048  0.0251 -0.1745
   59MOL   C22425860   4.782   6.193   7.613 -0.2423  0.2015  0.3971
   59MOL   C22525861   4.782   6.352   7.621  0.0837  0.2102 -0.3144
   59MOL   C22625862   4.903   6.404   7.541 -0.5552 -0.1720 -0.2880
   59MOL   C22725863   5.032   6.353   7.596 -0.2370 -0.2149  0.2600
   59MOL   C22825864   5.030   6.198   7.601 -0.3340 -0.8059  0.4264
   59MOL   C22925865   4.901   5.911   7.536  0.7306 -0.2733  1.0398
   59MOL   H23025866   4.842   5.951   7.742  0.0476 -0.4989  0.3031
   59MOL   H23125867   4.919   6.164   0.003 -3.3930  1.4953 -0.2809
   59MOL   H23225868   4.775   6.158   7.510  0.9451 -1.1243  0.7388
   59MOL   H23325869   4.689   6.154   7.653 -1.3130  0.0212 -2.1760
   59MOL   H23425870   4.785   6.374   7.728  0.3492 -0.5798 -0.1540
   59MOL   H23525871   4.688   6.394   7.586 -0.4453  0.9245  1.8936
   59MOL   H23625872   4.896   6.382   7.434  0.4216  1.1496 -0.6415
   59MOL   H23725873   4.910   6.512   7.539 -0.5192 -0.1781 -2.7390
   59MOL   H23825874   5.029   6.386   7.700  0.2088 -0.6638  0.4145
   59MOL   H23925875   5.123   6.391   7.551 -0.0029  1.1795  1.8428
   59MOL   H24025876   5.029   6.157   7.500 -0.3973  0.2959 -0.0231
   59MOL   H24125877   5.120   6.165   7.652 -1.0935 -0.9200  1.7154
   59MOL   H24225878   5.003   5.903   7.499  0.6250 -0.4443  0.7777
   59MOL   H24325879   4.848   5.971   7.461  0.5708 -0.7790  0.7449
   59MOL   C24425880   4.837   5.771   7.549 -0.5766 -0.3797  0.3271
   59MOL   C24525881   4.882   5.668   7.439  0.2289 -0.4442 -0.9890
   59MOL   C24625882   5.033   5.632   7.457  0.0881 -0.3007 -0.5604
   59MOL   C24725883   5.089   5.543   7.350 -0.3080 -0.2729  0.4717
   59MOL   C24825884   5.050   5.587   7.205  0.5705  0.1822 -0.5208
   59MOL   C24925885   4.899   5.612   7.189 -0.3571 -0.5189  0.1648
   59MOL   C25025886   4.851   5.711   7.295  0.6364 -0.1353  0.0320
   59MOL   C25125887   4.679   5.785   7.560 -0.2475  0.5167 -0.0753
   59MOL   H25225888   4.872   5.733   7.644 -0.3029 -0.8094  0.0575
   59MOL   H25325889   4.833   5.572   7.455  0.7202 -0.6024 -0.4124
   59MOL   H25425890   5.040   5.583   7.554 -2.7904  0.2779 -0.0052
   59MOL   H25525891   5.092   5.723   7.462 -0.0227  0.0285 -3.8898
   59MOL   H25625892   5.198   5.543   7.351 -0.1777 -2.4464 -3.1233
   59MOL   H25725893   5.062   5.439   7.370  0.8763 -0.4467  1.1772
   59MOL   H25825894   5.106   5.675   7.172  0.8113 -0.2725 -1.3226
   59MOL   H25925895   5.057   5.501   7.139 -2.3954 -0.2379 -0.3285
   59MOL   H26025896   4.858   5.514   7.212 -0.4755 -0.4448  0.2692
   59MOL   H26125897   4.879   5.639   7.085  0.1983  2.2275  0.7329
   59MOL   H26225898   4.884   5.812   7.269  0.2312  0.0765  0.3292
   59MOL   H26325899   4.744   5.729   7.281  0.7535 -0.4134 -1.2658
   59MOL   H26425900   4.626   5.818   7.470  0.2344  0.5148 -0.3605
   59MOL   H26525901   4.670   5.875   7.620  4.1963  1.2169 -0.2431
   59MOL   C26625902   4.604   5.661   7.621  0.4864  0.1947  0.3233
   59MOL   C26725903   4.504   5.714   7.727  0.1733  0.0160 -0.3626
   59MOL   C26825904   4.397   5.804   7.664 -1.1888  0.3968  0.0108
   59MOL   C26925905   4.305   5.862   7.769  0.8595 -0.4007 -0.5723
   59MOL   C27025906   4.366   5.913   0.128  0.0031 -0.8983 -0.2739
   59MOL   C27125907   4.474   5.821   0.180 -0.0864 -0.5776  0.2032
   59MOL   C27225908   4.572   5.780   0.075  0.5271  0.2038  0.2753
   59MOL   C27325909   4.552   5.558   7.521 -0.1207 -0.3005 -0.0655
   59MOL   H27425910   4.683   5.608   7.675  0.4362 -0.5418 -0.3211
   59MOL   H27525911   4.458   5.625   7.770 -0.0902  1.1330  1.7242
   59MOL   H27625912   4.450   5.887   7.618 -0.2958 -0.9495 -1.4330
   59MOL   H27725913   4.330   5.765   7.588 -0.9215  1.3643 -0.7292
   59MOL   H27825914   4.247   5.774   0.026 -1.0181 -0.0917 -3.2105
   59MOL   H27925915   4.241   5.939   7.727  2.3862  1.5862  0.6785
   59MOL   H28025916   4.397   6.014   0.102 -1.7095 -0.3521 -0.2826
   59MOL   H28125917   4.285   5.919   0.201 -0.2711 -2.4822 -0.4364
   59MOL   H28225918   4.430   5.731   0.222  0.0468 -1.2966 -1.1743
   59MOL   H28325919   4.517   5.879   0.262  0.7219  0.0466 -0.6616
   59MOL   H28425920   4.643   5.720   0.131  4.3391  3.0369 -1.3133
   59MOL   H28525921   4.626   5.869   0.042  1.6560 -0.0125  1.5182
   59MOL   H28625922   4.588   5.580   7.421 -1.3566  1.9783 -0.0457
   59MOL   H28725923   4.447   5.586   7.514 -0.5731 -0.8181  3.7595
   59MOL   C28825924   4.572   5.412   7.556 -0.5722 -0.2440  0.2210
   59MOL   C28925925   4.623   5.335   7.432 -0.9096 -0.4225  0.2489
   59MOL   C29025926   4.719   5.212   7.457 -0.5353 -0.6073  0.2481
   59MOL   C29125927   4.768   5.163   7.325 -0.5997  0.0122  0.6521
   59MOL   C29225928   4.659   5.117   7.231 -0.2630 -0.5061 -0.0265
   59MOL   C29325929   4.569   5.238   7.197 -0.7143 -0.0246 -0.0002
   59MOL   C29425930   4.509   5.294   7.330 -0.4614 -0.2281  0.1492
   59MOL   C29525931   4.442   5.351   7.606 -0.0912  0.4460 -0.5927
   59MOL   H29625932   4.653   5.401   7.629 -0.2365 -0.1483 -0.1328
   59MOL   H29725933   4.689   5.399   7.374 -2.7361  0.3960 -0.9627
   59MOL   H29825934   4.802   5.246   7.520  0.9187  0.4734 -2.1870
   59MOL   H29925935   4.666   5.138   7.516 -1.5713  0.8233  1.1318
   59MOL   H30025936   4.830   5.231   7.267 -1.6309  0.6560  0.2978
   59MOL   H30125937   4.833   5.077   7.343 -1.3862 -0.7935 -0.2939
   59MOL   H30225938   4.605   5.032   7.272 -0.5086 -0.5105 -0.3573
   59MOL   H30325939   4.698   5.083   7.135  1.6160  1.5122 -0.0261
   59MOL   H30425940   4.484   5.217   7.131 -1.2270  1.2188  0.2393
   59MOL   H30525941   4.623   5.312   7.139  0.8098 -0.5785  0.6995
   59MOL   H30625942   4.431   5.226   7.363  0.6349 -1.0338  1.1563
   59MOL   H30725943   4.457   5.384   7.298 -0.0717  0.3033  0.9655
   59MOL   H30825944   4.411   5.416   7.688 -1.3746 -0.6655 -0.1649
   59MOL   H30925945   4.365   5.364   7.530 -0.0664 -1.2680 -0.9461
   59MOL   C31025946   4.424   5.204   7.663 -0.5852  0.6162  0.7399
   59MOL   C31125947   4.514   5.184   0.017  0.1220  0.1380  0.0194
   59MOL   C31225948   4.450   5.231   0.151  0.5865 -0.5813  0.5645
   59MOL   C31325949   4.547   5.221   0.264 -0.0799 -0.3727  0.7163
   59MOL   C31425950   4.583   5.074   0.276  0.4670  0.1093 -0.4471
   59MOL   C31525951   4.661   5.029   0.154  0.1323  0.5700 -0.1964
   59MOL   C31625952   4.574   5.049   0.029 -0.2507  0.4301 -0.5712
   59MOL   C31725953   4.277   5.167   7.676 -0.1687 -0.0680 -0.1042
   59MOL   H31825954   4.468   5.145   7.582 -1.8850  2.0159 -1.0252
   59MOL   H31925955   4.610   5.236   0.012  0.7199 -1.2065 -3.9228
   59MOL   H32025956   4.412   5.331   0.126 -0.4490 -0.5927  2.0120
   59MOL   H32125957   4.358   5.174   0.160  0.9290 -1.0946  0.7850
   59MOL   H32225958   4.503   5.252   0.359 -0.9398 -0.0898  0.2334
   59MOL   H32325959   4.634   5.283   0.245 -0.9565  0.8102  0.4537
   59MOL   H32425960   4.651   5.070   0.361 -0.4290  0.8752  0.3178
   59MOL   H32525961   4.490   5.017   0.281  1.3121 -1.3812 -1.0933
   59MOL   H32625962   4.757   5.082   0.150  0.6906 -0.4810 -1.1286
   59MOL   H32725963   4.696   4.926   0.165 -0.9047  0.2525  0.1513
   59MOL   H32825964   4.504   4.966   0.018 -0.5026 -0.0616  3.5709
   59MOL   H32925965   4.648   5.032   7.723  1.0438 -1.5794  1.0219
   59MOL   H33025966   4.236   5.188   7.577  0.6803 -2.9434 -1.1233
   59MOL   H33125967   4.234   5.236   7.749  0.9858 -1.3470  1.8151
   59MOL   C33225968   4.246   5.019   7.703 -0.5081  0.5028  0.5185
   59MOL   C33325969   4.309   4.925   7.598  0.9365  0.4081  0.1334
   59MOL   C33425970   4.250   4.927   7.456 -0.7729  0.0688 -0.1261
   59MOL   C33525971   4.326   4.824   7.365  0.4080  0.3132 -0.2536
   59MOL   C33625972   4.330   4.679   7.422  0.2729 -0.2312  0.5685
   59MOL   C33725973   4.396   4.686   7.560 -0.7020  0.8904  0.5617
   59MOL   C33825974   4.314   4.779   7.646  0.1453  0.0009  0.2886
   59MOL   C33925975   4.087   4.988   7.725  0.1084  0.1154  0.1080
   59MOL   H34025976   4.293   4.996   0.027 -0.6375 -0.9891  0.2349
   59MOL   H34125977   4.415   4.941   7.576  1.1039 -0.2352  0.4467
   59MOL   H34225978   4.149   4.887   7.457 -1.0140  0.6884  0.4774
   59MOL   H34325979   4.259   5.026   7.411 -1.8677 -0.2516 -1.0740
   59MOL   H34425980   4.287   4.818   7.264  0.1492  0.8140 -0.1877
   59MOL   H34525981   4.428   4.857   7.348  0.3398  0.2759 -0.7295
   59MOL   H34625982   4.231   4.635   7.428 -0.3812  1.1629  0.1463
   59MOL   H34725983   4.391   4.618   7.356  1.5250  1.6159 -0.0324
   59MOL   H34825984   4.499   4.720   7.554 -0.1029 -0.5206  2.3911
   59MOL   H34925985   4.395   4.587   7.606 -0.1582  1.0187  0.8521
   59MOL   H35025986   4.350   4.765   7.748  0.6341  1.1361  0.2804
   59MOL   H35125987   4.212   4.740   7.645 -1.3848  3.7483  1.0088
   59MOL   H35225988   4.085   4.888   7.767  1.0666 -0.4716 -1.1932
   59MOL   H35325989   4.046   4.976   7.625  1.3548  1.6505 -0.6149
   59MOL   C35425990   4.011   5.090   0.040 -0.8296  0.0560  0.2546
   59MOL   C35525991   3.923   5.007   0.134 -0.4979  0.2405  0.0589
   59MOL   C35625992   3.804   4.954   0.060 -0.0436 -0.1200 -0.4784
   59MOL   C35725993   3.734   4.852   0.154  0.2774  0.4188  0.4892
   59MOL   C35825994   3.675   4.927   0.270 -0.3254  0.0489  0.4793
   59MOL   C35925995   3.789   4.998   0.349 -0.1202 -0.2243  0.1944
   59MOL   C36025996   3.870   5.085   0.257 -0.3345  0.2423 -0.3049
   59MOL   C36125997   3.947   5.195   7.715  0.0142  0.0139 -0.0748
   59MOL   H36225998   4.089   5.141   0.096  0.7940 -0.7076 -1.2339
   59MOL   H36325999   3.980   4.924   0.176 -1.1960 -0.8419 -1.1250
   59MOL   H36426000   3.831   4.907   7.738 -1.1314 -1.3906 -0.1760
   59MOL   H36526001   3.725   5.027   0.042 -1.3006 -1.2258  0.4544
   59MOL   H36626002   3.659   4.797   0.096 -0.0664  0.1562  1.1666
   59MOL   H36726003   3.792   4.767   0.190  0.7883  0.2825 -0.6341
   59MOL   H36826004   3.595   4.992   0.235  0.9533  1.0409 -0.6362
   59MOL   H36926005   3.618   4.853   0.327 -1.0947 -0.0595 -0.4226
   59MOL   H37026006   3.748   5.050   0.435 -0.9710  1.3109 -1.1238
   59MOL   H37126007   3.860   4.928   0.394  0.5437  0.4584  0.2346
   59MOL   H37226008   3.945   5.136   0.316 -1.3693  2.1315 -0.5614
   59MOL   H37326009   3.806   5.170   0.229  0.5897  1.0414 -0.0282
   59MOL   H37426010   3.883   5.149   7.640  2.1357 -2.0649 -0.6573
   59MOL   H37526011   4.026   5.252   7.666 -1.8943  2.6558 -0.1848
   59MOL   C37626012   3.865   5.319   7.765 -0.0054  0.4890 -0.5668
   59MOL   C37726013   3.945   5.396   0.106  0.4976  0.2922 -0.0179
   59MOL   C37826014   3.854   5.486   0.199  0.3001  0.5661 -0.0263
   59MOL   C37926015   3.936   5.537   0.316  0.2118  0.0781 -0.4191
   59MOL   C38026016   4.074   5.594   0.282  0.2980 -0.4022 -0.2354
   59MOL   C38126017   4.159   5.500   0.188 -0.3579  0.4936  0.0751
   59MOL   C38226018   4.076   5.466   0.064  0.1261  0.1777  0.6615
   59MOL   C38326019   3.813   5.423   7.656 -0.5500 -0.1547  0.5437
   59MOL   H38426020   3.776   5.275   0.040 -1.5878  4.8597  0.8002
   59MOL   H38526021   3.977   5.315   0.170 -2.2106 -1.8013 -1.1937
   59MOL   H38626022   3.792   5.567   0.160 -1.5584  0.0727  1.7938
   59MOL   H38726023   3.788   5.416   0.250 -0.1588  1.5625  0.7670
   59MOL   H38826024   3.956   5.447   0.373 -0.6310  0.0723 -0.1291
   59MOL   H38926025   3.885   5.604   0.385 -0.2196 -1.8387  1.1774
   59MOL   H39026026   4.057   5.693   0.240 -1.3028 -1.2858 -1.7221
   59MOL   H39126027   4.132   5.615   0.372 -1.5631 -1.0134  1.1227
   59MOL   H39226028   4.249   5.554   0.160  0.0312  0.7327  1.7494
   59MOL   H39326029   4.185   5.411   0.247 -0.3177 -0.2025 -0.9732
   59MOL   H39426030   4.060   5.560   0.012 -1.8955 -0.6341 -0.2074
   59MOL   H39526031   4.140   5.401   0.005  0.8488 -1.3373  3.0101
   59MOL   H39626032   3.895   5.492   7.639  0.0306 -0.5656  1.6517
   59MOL   H39726033   3.736   5.492   7.692 -1.3186  0.4529 -2.1137
   59MOL   C39826034   3.764   5.365   7.525 -1.0064  0.4284 -0.5171
   59MOL   C39926035   3.645   5.268   7.542  0.1605 -0.5566  0.2469
   59MOL   C40026036   3.511   5.344   7.541  1.2571  0.3297  0.2327
   59MOL   C40126037   3.397   5.247   7.580 -0.5729 -0.2828  0.0546
   59MOL   C40226038   3.388   5.118   7.493  0.1517 -0.1696 -0.9061
   59MOL   C40326039   3.518   5.043   7.483 -0.2088  0.9834 -0.3430
   59MOL   C40426040   3.632   5.148   7.446 -0.5516 -0.1257  0.3837
   59MOL   C40526041   3.751   5.476   7.415 -0.1948  0.5382  0.8208
   59MOL   H40626042   3.842   5.296   7.492 -1.4944 -0.7262  0.7052
   59MOL   H40726043   3.660   5.214   7.635 -1.3583 -1.2215  0.1254
   59MOL   H40826044   3.504   5.387   7.441 -0.4059  1.0655  0.6427
   59MOL   H40926045   3.514   5.438   7.596  1.9524  0.9868 -0.9122
   59MOL   H41026046   3.308   5.310   7.570  1.0773  2.1643  0.5118
   59MOL   H41126047   3.399   5.236   7.689 -1.0590  1.8912  0.3030
   59MOL   H41226048   3.363   5.162   7.397  0.1684  2.6698  0.3374
   59MOL   H41326049   3.305   5.059   7.530 -1.3227 -0.8400 -5.0507
   59MOL   H41426050   3.535   5.003   7.583  0.4278  0.4530 -0.6618
   59MOL   H41526051   3.508   4.961   7.413 -0.5557  0.7347 -0.0083
   59MOL   H41626052   3.724   5.089   7.450 -2.1342 -2.6276  0.5978
   59MOL   H41726053   3.628   5.186   7.344  2.2672 -1.7380 -0.4086
   59MOL   H41826054   3.710   5.429   7.326  0.7678  0.6679  0.3055
   59MOL   H41926055   3.674   5.546   7.446  1.8221  3.5672 -0.8008
   59MOL   C42026056   3.878   5.541   7.361  0.0914 -0.1533  0.4460
   59MOL   C42126057   3.851   5.678   7.297 -0.1706 -0.1418 -0.4773
   59MOL   C42226058   3.824   5.791   7.402 -0.1360 -0.0464 -0.2481
   59MOL   C42326059   3.806   5.925   7.325 -0.0262  0.0061 -0.1344
   59MOL   C42426060   3.690   5.914   7.224  0.3185 -0.6379  0.5866
   59MOL   C42526061   3.727   5.812   7.114 -0.3382  0.1098 -0.2589
   59MOL   C42626062   3.751   5.673   7.180 -0.2560 -0.0665  0.0058
   59MOL   C42726063   3.964   5.448   7.275  0.5714  0.1383 -0.1623
   59MOL   H42826064   3.945   5.549   7.446  1.3144 -0.1862 -0.4939
   59MOL   H42926065   3.943   5.717   7.254 -0.7254 -0.4555 -1.9788
   59MOL   H43026066   3.728   5.773   7.451 -0.4411 -0.6242 -1.0326
   59MOL   H43126067   3.905   5.797   7.475 -1.0592  0.0612  0.7914
   59MOL   H43226068   3.773   6.005   7.391 -1.8057 -0.8046 -0.0124
   59MOL   H43326069   3.899   5.948   7.273 -0.7724  0.2835 -1.3451
   59MOL   H43426070   3.676   6.014   7.183 -1.1496 -1.2963 -0.5249
   59MOL   H43526071   3.596   5.881   7.268  1.2344 -3.7990  0.2465
   59MOL   H43626072   3.819   5.843   7.063  1.4491  0.7401  3.1636
   59MOL   H43726073   3.657   5.797   7.033  1.2275 -2.3411 -1.2290
   59MOL   H43826074   3.660   5.626   7.217 -1.1780  2.6809  1.3726
   59MOL   H43926075   3.797   5.610   7.103  1.4825 -0.4316  1.3060
   59MOL   H44026076   3.922   5.425   7.177 -2.9750  1.4470  0.9926
   59MOL   H44126077   4.068   5.479   7.262  1.2056 -1.4692  1.0040
   59MOL   H44226078   3.972   5.348   7.317 -1.5574  0.6212  1.4657
   60MOL     C126079   0.671   6.284   0.988  0.9144  0.1149  0.2924
   60MOL     C226080   0.817   6.263   1.027 -0.2437  0.1855  0.1597
   60MOL     C326081   0.905   6.242   0.903  0.6309  0.3025 -0.3367
   60MOL     C426082   1.051   6.205   0.935  0.2001 -0.0947  0.5008
   60MOL     C526083   1.064   6.106   1.054 -0.1440 -0.0922  0.2544
   60MOL     C626084   0.976   6.146   1.170 -0.8488 -0.6934 -0.4129
   60MOL     C726085   0.835   6.145   1.123  0.0516  0.0849  0.3293
   60MOL     C826086   0.629   6.397   0.887 -0.9051  0.0553  0.1752
   60MOL     H926087   0.621   6.190   0.966 -0.6241  0.8749  0.4289
   60MOL    H1026088   0.849   6.362   1.060  2.9211  0.0296 -2.0890
   60MOL    H1126089   0.873   6.153   0.848  0.1606  0.4392 -0.2832
   60MOL    H1226090   0.900   6.324   0.832 -1.1924  0.8856  0.4471
   60MOL    H1326091   1.106   6.295   0.963  0.8300 -0.1126 -0.6570
   60MOL    H1426092   1.094   6.162   0.845  1.2989  0.5668  0.6922
   60MOL    H1526093   1.169   6.089   1.075  0.0860  2.5802  1.4010
   60MOL    H1626094   1.045   6.009   1.009 -0.7926 -0.6368  1.6806
   60MOL    H1726095   0.980   6.075   1.253 -0.6658 -0.5328 -0.2828
   60MOL    H1826096   1.012   6.241   1.209 -0.7200 -1.1715  0.6796
   60MOL    H1926097   0.772   6.167   1.209 -3.4901  1.6874 -2.5441
   60MOL    H2026098   0.808   6.046   1.088  1.3166 -0.1331 -0.0679
   60MOL    H2126099   0.680   6.374   0.793  0.3017  0.1056  0.8104
   60MOL    H2226100   0.682   6.487   0.918 -0.7052  0.5736 -1.6347
   60MOL    H2326101   0.615   6.292   1.081  0.1902  2.1435 -0.2818
   60MOL    C2426102   0.477   6.405   0.868 -0.3166 -0.0252  0.1755
   60MOL    C2526103   0.415   6.505   0.971  0.4918  0.3454 -0.8292
   60MOL    C2626104   0.264   6.491   0.984  0.3388  0.7281  0.3301
   60MOL    C2726105   0.196   6.591   1.072 -0.7724 -0.0431  0.8612
   60MOL    C2826106   0.237   6.735   1.029  0.2351  0.7856  0.1829
   60MOL    C2926107   0.389   6.749   1.040 -0.1417 -1.1648 -0.4784
   60MOL    C3026108   0.455   6.652   0.948  0.2386  0.6667  0.4133
   60MOL    C3126109   0.443   6.423   0.716 -0.0815  0.8265  0.2836
   60MOL    H3226110   0.439   6.309   0.904 -1.4348  1.0618  1.9225
   60MOL    H3326111   0.448   6.466   1.068  1.2537 -0.1589 -1.2795
   60MOL    H3426112   0.241   6.393   1.027 -0.7942  1.5916  1.7458
   60MOL    H3526113   0.226   6.484   0.882 -0.1505  0.6101  0.5164
   60MOL    H3626114   0.088   6.579   1.061 -0.4382 -1.0880 -1.4824
   60MOL    H3726115   0.207   6.575   1.179  0.0272  1.5090  1.0350
   60MOL    H3826116   0.195   6.812   1.093 -0.3036  2.4700 -2.1291
   60MOL    H3926117   0.213   6.756   0.925  4.2699 -1.4929 -1.3437
   60MOL    H4026118   0.417   6.852   1.019  0.1017 -1.3545 -1.0932
   60MOL    H4126119   0.422   6.723   1.141 -0.8870  1.5437  0.4916
   60MOL    H4226120   0.436   6.682   0.845  0.3940 -0.6185 -0.0049
   60MOL    H4326121   0.562   6.660   0.965  0.7099 -0.6786 -1.7086
   60MOL    H4426122   0.489   6.514   0.680 -0.6765  0.3173 -1.8419
   60MOL    H4526123   0.338   6.448   0.699 -0.6454 -0.9985  0.8792
   60MOL    C4626124   0.469   6.294   0.626 -0.2524  0.3903 -0.0801
   60MOL    C4726125   0.518   6.342   0.488  0.1839 -0.3346 -0.1752
   60MOL    C4826126   0.410   6.387   0.398 -0.2995 -0.9045  0.1261
   60MOL    C4926127   0.447   6.430   0.249  0.0921 -0.4878  0.4434
   60MOL    C5026128   0.532   6.316   0.190  0.2757  0.5228 -0.7227
   60MOL    C5126129   0.647   6.265   0.280  0.6175 -0.2897  1.0896
   60MOL    C5226130   0.601   6.231   0.423  0.2331  0.0229  0.1783
   60MOL    C5326131   0.350   6.192   0.619  0.0387 -0.2068  0.3155
   60MOL    H5426132   0.552   6.240   0.672 -1.8242 -0.1976  2.1502
   60MOL    H5526133   0.591   6.422   0.504 -0.1830  0.0662 -0.5015
   60MOL    H5626134   0.341   6.303   0.386  0.5793 -2.1170  3.1254
   60MOL    H5726135   0.364   6.471   0.450 -1.5490 -0.7493 -1.2156
   60MOL    H5826136   0.511   6.518   0.242 -2.5178  1.3410 -0.7224
   60MOL    H5926137   0.361   6.448   0.186  0.4153  1.6402  0.5692
   60MOL    H6026138   0.469   6.231   0.166 -0.3686  1.1507 -1.2709
   60MOL    H6126139   0.570   6.340   0.091  0.8470  0.0371 -0.6218
   60MOL    H6226140   0.730   6.336   0.281  1.5678 -1.3760  0.6602
   60MOL    H6326141   0.684   6.180   0.224 -2.3672 -0.4422 -0.7861
   60MOL    H6426142   0.544   6.139   0.416 -0.4778  0.3774  1.1674
   60MOL    H6526143   0.687   6.204   0.484 -0.6765  1.3722  2.1177
   60MOL    H6626144   0.341   6.149   0.519 -0.1502 -0.2560  0.3533
   60MOL    H6726145   0.256   6.248   0.624  0.7761  1.2242 -1.4415
   60MOL    C6826146   0.354   6.074   0.733 -0.2491  0.0329  0.1175
   60MOL    C6926147   0.244   6.104   0.833  0.3703 -0.6056  0.6446
   60MOL    C7026148   0.107   6.080   0.790 -0.2500 -0.4115  0.3125
   60MOL    C7126149   0.004   6.109   0.901 -0.4027 -0.2196  0.0435
   60MOL    C7226150   0.034   6.036   1.031  0.0135 -0.0679  0.0419
   60MOL    C7326151   0.172   6.070   1.088 -0.3266  0.0384  0.2917
   60MOL    C7426152   0.282   6.051   0.974 -0.8217 -0.8704 -0.1199
   60MOL    C7526153   0.326   5.933   0.669  0.2268  0.1003 -0.3050
   60MOL    H7626154   0.450   6.057   0.782 -0.2717 -1.2565 -0.2784
   60MOL    H7726155   0.261   6.211   0.845  1.8738 -0.4530 -2.3993
   60MOL    H7826156   0.096   5.978   0.752 -0.2419 -1.2592  2.5333
   60MOL    H7926157   0.075   6.142   0.706 -0.0230 -0.7996 -0.0638
   60MOL    H8026158   7.764   6.216   0.919 -1.3577 -0.9100  4.0079
   60MOL    H8126159   7.676   6.077   0.872 -0.3382 -1.3577  1.0692
   60MOL    H8226160   0.024   5.930   1.010  0.6800  0.0546 -0.9397
   60MOL    H8326161   7.731   6.065   1.104 -0.5633  0.0700 -0.5990
   60MOL    H8426162   0.189   6.022   1.184 -0.1831  0.5656  0.5310
   60MOL    H8526163   0.184   6.175   1.114  3.4564 -0.6385  1.5988
   60MOL    H8626164   0.301   5.943   0.971 -0.2965 -0.7655 -1.0061
   60MOL    H8726165   0.379   6.095   0.998 -1.2144  1.2826 -2.3136
   60MOL    H8826166   0.277   5.859   0.733 -2.2696  0.2403 -1.9577
   60MOL    H8926167   0.250   5.953   0.593  0.4012  1.4968 -0.1231
   60MOL    C9026168   0.433   5.853   0.591  0.3334 -0.4952 -0.3360
   60MOL    C9126169   0.556   5.804   0.668 -1.1074 -0.2136 -0.6613
   60MOL    C9226170   0.675   5.904   0.659  0.2165  0.3313 -0.2460
   60MOL    C9326171   0.797   5.845   0.733 -0.2918  0.4128 -0.6434
   60MOL    C9426172   0.759   5.808   0.880  0.5418  0.2643  0.5435
   60MOL    C9526173   0.651   5.698   0.878  0.3889  0.0483 -0.1546
   60MOL    C9626174   0.523   5.753   0.808 -0.1926 -0.2559 -1.1098
   60MOL    C9726175   0.359   5.737   0.519 -0.3761 -0.8565 -0.4037
   60MOL    H9826176   0.467   5.921   0.514  0.9046  1.4358  1.5871
   60MOL    H9926177   0.596   5.718   0.614  0.4060 -0.6482  1.1048
   60MOL   H10026178   0.651   6.001   0.702  0.8720  0.9065 -1.1551
   60MOL   H10126179   0.704   5.910   0.554 -1.9035 -0.9061 -0.9331
   60MOL   H10226180   0.887   5.907   0.727 -0.7831  1.4019  1.7373
   60MOL   H10326181   0.826   5.752   0.686 -2.3948 -0.3666 -0.4366
   60MOL   H10426182   0.734   5.900   0.933 -0.8945  1.9316 -2.8411
   60MOL   H10526183   0.844   5.773   0.938  0.4813  0.3552  0.6876
   60MOL   H10626184   0.694   5.621   0.813  1.4145  1.2348 -0.9080
   60MOL   H10726185   0.636   5.641   0.970 -2.2891 -1.1678 -1.3045
   60MOL   H10826186   0.447   5.676   0.795 -0.5744  0.1658 -1.3876
   60MOL   H10926187   0.485   5.832   0.874  0.4384 -1.2449  0.4842
   60MOL   H11026188   0.353   5.652   0.587 -0.0635 -0.2130  0.4296
   60MOL   H11126189   0.252   5.756   0.505  0.1744  2.2801 -0.8737
   60MOL   C11226190   0.422   5.700   0.377  0.3498  0.2774 -0.2462
   60MOL   C11326191   0.366   5.790   0.264  0.1640 -0.0032 -0.5233
   60MOL   C11426192   0.228   5.747   0.193 -0.9238  0.8080  0.1899
   60MOL   C11526193   0.199   5.840   0.070  0.5751  0.5623 -0.0618
   60MOL   C11626194   0.313   5.867   7.744 -0.4601  0.1528 -0.2277
   60MOL   C11726195   0.434   5.914   0.047 -0.2266  0.0030 -0.1142
   60MOL   C11826196   0.473   5.811   0.154 -0.6305 -0.0348  0.0978
   60MOL   C11926197   0.427   5.554   0.348  0.1131 -0.9069 -0.5516
   60MOL   H12026198   0.526   5.731   0.390 -0.4251  2.6958  0.3182
   60MOL   H12126199   0.352   5.891   0.303  0.0648 -0.0191 -0.5152
   60MOL   H12226200   0.143   5.749   0.262  0.4276 -0.6441  1.9237
   60MOL   H12326201   0.229   5.642   0.162 -1.5533  0.7364  0.3864
   60MOL   H12426202   0.117   5.792   0.018  0.4157  1.1016 -0.3059
   60MOL   H12526203   0.166   5.935   0.112  1.6079  0.0723  1.9790
   60MOL   H12626204   0.335   5.781   7.681  1.7601 -0.1410  0.9273
   60MOL   H12726205   0.291   5.944   7.670  2.1419  0.2007 -0.9786
   60MOL   H12826206   0.517   5.917   7.748 -1.2350  0.8875 -1.2880
   60MOL   H12926207   0.415   6.009   0.098 -0.2783 -1.0662  1.8903
   60MOL   H13026208   0.573   5.840   0.188 -0.1885 -0.6746 -0.6270
   60MOL   H13126209   0.495   5.718   0.101  0.4146  0.3560 -0.1770
   60MOL   H13226210   0.459   5.535   0.245  0.8962  0.7452 -0.6288
   60MOL   H13326211   0.329   5.507   0.337  0.5947 -1.5312 -2.5056
   60MOL   C13426212   0.520   5.469   0.442  0.6270 -0.6815  0.0536
   60MOL   C13526213   0.657   5.430   0.395  0.1062 -0.4182 -0.0674
   60MOL   C13626214   0.739   5.563   0.376 -0.2890 -0.7064 -0.2243
   60MOL   C13726215   0.885   5.524   0.359  0.0671  0.3012  0.3418
   60MOL   C13826216   0.907   5.429   0.238 -0.6915  0.0916 -0.1652
   60MOL   C13926217   0.810   5.308   0.232 -0.6297  0.7110  0.1621
   60MOL   C14026218   0.668   5.360   0.259 -0.6236  0.3065 -0.4629
   60MOL   C14126219   0.456   5.337   0.497  0.6219  0.1871  0.6768
   60MOL   H14226220   0.540   5.524   0.534  0.0608 -0.0115 -0.2236
   60MOL   H14326221   0.700   5.366   0.472  0.6643 -0.5359 -0.4658
   60MOL   H14426222   0.707   5.614   0.285  0.2533  0.1469  0.0604
   60MOL   H14526223   0.731   5.629   0.462 -1.1137 -0.5053 -0.4412
   60MOL   H14626224   0.933   5.482   0.447 -2.0879  0.0438  1.4247
   60MOL   H14726225   0.946   5.613   0.346  1.0308 -0.6384 -2.0104
   60MOL   H14826226   0.906   5.481   0.142  1.3155 -1.2866 -0.9462
   60MOL   H14926227   1.009   5.394   0.248 -0.5935  0.8046  1.5339
   60MOL   H15026228   0.838   5.231   0.303 -1.4213 -0.4789 -0.7942
   60MOL   H15126229   0.828   5.268   0.132  0.8467  1.4832  0.1138
   60MOL   H15226230   0.640   5.422   0.174 -1.2604 -0.6458 -0.9616
   60MOL   H15326231   0.596   5.278   0.261  0.1861 -0.4047 -0.2161
   60MOL   H15426232   0.530   5.303   0.570 -0.9379 -3.8553  0.5088
   60MOL   H15526233   0.457   5.253   0.428 -0.5211 -0.6082  1.6013
   60MOL   C15626234   0.321   5.345   0.565 -0.4327 -0.2014  0.7305
   60MOL   C15726235   0.338   5.385   0.716  0.3221 -0.4982 -0.7091
   60MOL   C15826236   0.220   5.471   0.769  0.1018  0.1775 -0.0593
   60MOL   C15926237   0.215   5.504   0.920  0.2666  0.1276 -0.5145
   60MOL   C16026238   0.228   5.375   1.005  1.0278 -0.4798 -0.3663
   60MOL   C16126239   0.360   5.303   0.964 -0.1979 -0.5334 -0.1352
   60MOL   C16226240   0.363   5.269   0.810  0.2399 -0.3093 -0.2431
   60MOL   C16326241   0.225   5.231   0.528 -0.1889 -0.9831 -0.4204
   60MOL   H16426242   0.273   5.431   0.520  1.5464  2.0061  2.6677
   60MOL   H16526243   0.422   5.452   0.725  0.3079 -0.9261  3.8880
   60MOL   H16626244   0.205   5.562   0.711 -1.1272 -1.5222 -2.5502
   60MOL   H16726245   0.135   5.406   0.746  0.4812 -0.6247  0.7861
   60MOL   H16826246   0.292   5.572   0.956 -0.4481  0.1497  1.0274
   60MOL   H16926247   0.120   5.550   0.948 -0.4533 -1.3720 -0.4372
   60MOL   H17026248   0.151   5.302   0.983  0.2820  0.3441 -0.5171
   60MOL   H17126249   0.228   5.395   1.113 -1.5799 -1.0241 -0.2298
   60MOL   H17226250   0.374   5.215   1.026 -0.1224 -0.0017  0.6157
   60MOL   H17326251   0.439   5.377   0.977  0.6644 -1.4027 -0.3666
   60MOL   H17426252   0.456   5.213   0.797  1.6148  1.5179  1.3325
   60MOL   H17526253   0.278   5.202   0.793 -2.4556  2.4448  1.8061
   60MOL   H17626254   0.147   5.224   0.604 -0.0424 -1.4348 -0.3148
   60MOL   H17726255   0.277   5.136   0.525  1.4043 -0.1695  0.8343
   60MOL   C17826256   0.158   5.254   0.383  0.1615  0.4817  0.1490
   60MOL   C17926257   0.213   5.155   0.276 -0.1025 -0.2414 -0.1210
   60MOL   C18026258   0.183   5.197   0.132 -0.6732  0.8472 -0.3699
   60MOL   C18126259   0.248   5.100   0.032 -0.2775 -0.3703 -0.3270
   60MOL   C18226260   0.189   4.958   0.059 -0.0688  0.6526 -0.0359
   60MOL   C18326261   0.209   4.903   0.201 -0.5008 -0.3143  0.0416
   60MOL   C18426262   0.155   5.010   0.289 -0.5232 -0.2466  0.8566
   60MOL   C18526263   0.008   5.238   0.410  0.2654  0.7422 -0.1303
   60MOL   H18626264   0.190   5.352   0.350 -0.3668  0.3745 -0.7064
   60MOL   H18726265   0.321   5.150   0.287 -0.1828 -0.1541  0.7770
   60MOL   H18826266   0.074   5.205   0.120 -0.6879  1.6463  0.2843
   60MOL   H18926267   0.230   5.292   0.108 -1.2030  1.1051 -0.3963
   60MOL   H19026268   0.357   5.111   0.030 -0.3489  0.2685 -1.6336
   60MOL   H19126269   0.211   5.128   7.705 -0.6425  3.3428  0.7776
   60MOL   H19226270   0.084   4.966   0.034 -0.0280 -0.5632 -0.6534
   60MOL   H19326271   0.230   4.881   7.765 -0.9058  1.8855 -2.0238
   60MOL   H19426272   0.311   4.869   0.220 -1.2038 -3.6764 -1.9063
   60MOL   H19526273   0.151   4.815   0.229 -0.3471 -0.4487 -0.0593
   60MOL   H19626274   0.048   5.018   0.267 -1.1350 -1.0367  3.4229
   60MOL   H19726275   0.153   4.974   0.392  1.3207  0.2809  1.0919
   60MOL   H19826276   7.721   5.236   0.319 -2.8576 -0.0908  1.8380
   60MOL   H19926277   0.000   5.137   0.450 -0.2332  1.0223  0.4950
   60MOL   C20026278   7.718   5.358   0.489  0.4402  0.0517 -0.7281
   60MOL   C20126279   7.642   5.475   0.416  0.1738  0.4598  0.2743
   60MOL   C20226280   7.647   5.605   0.496 -0.0223 -0.1871 -1.0626
   60MOL   C20326281   7.543   5.702   0.439  0.5493 -0.2886  0.4837
   60MOL   C20426282   7.590   5.744   0.299 -0.5108 -0.5466 -0.6334
   60MOL   C20526283   7.634   5.630   0.212 -0.2024 -0.2274  0.7129
   60MOL   C20626284   7.713   5.518   0.283  0.1270  0.0175  0.9303
   60MOL   C20726285   7.642   5.311   0.619 -0.3660 -0.2246 -0.1402
   60MOL   H20826286   0.034   5.404   0.532 -2.8061  1.0270  5.5454
   60MOL   H20926287   7.537   5.455   0.395  0.1069  1.6259 -0.5250
   60MOL   H21026288   7.744   5.655   0.500 -0.2224  0.0561  1.6875
   60MOL   H21126289   7.623   5.592   0.602 -0.3242  1.1513 -0.9593
   60MOL   H21226290   7.443   5.661   0.427  0.0287  1.7121 -2.6371
   60MOL   H21326291   7.536   5.792   0.500  0.3095 -0.4973  0.7716
   60MOL   H21426292   7.498   5.778   0.251 -1.7183  0.3706  2.1992
   60MOL   H21526293   7.663   5.824   0.300 -0.6465 -0.3324 -3.3271
   60MOL   H21626294   7.544   5.586   0.168 -0.3620  0.8539 -0.0681
   60MOL   H21726295   7.701   5.664   0.133 -3.1532  3.0925 -0.4863
   60MOL   H21826296   7.717   5.433   0.216  0.8035 -0.3016  1.3658
   60MOL   H21926297   0.046   5.539   0.301 -0.0369  2.3194 -0.5353
   60MOL   H22026298   7.718   5.274   0.687 -3.0084  0.5624  3.3929
   60MOL   H22126299   7.591   5.387   0.678 -1.0964 -1.8010  1.3045
   60MOL   C22226300   7.544   5.188   0.606  0.0072 -0.3440  0.3347
   60MOL   C22326301   7.510   5.131   0.744  0.1690 -0.5016  0.1990
   60MOL   C22426302   7.468   5.240   0.852  0.3658  0.0076  0.1811
   60MOL   C22526303   7.422   5.179   0.981 -0.1060  0.0391 -0.1024
   60MOL   C22626304   7.527   5.087   1.040 -0.2462 -0.1485 -0.3205
   60MOL   C22726305   7.565   4.973   0.940 -0.1709  0.4025 -0.3432
   60MOL   C22826306   7.613   5.038   0.812  0.3658  0.3066 -0.3375
   60MOL   C22926307   7.412   5.231   0.536  0.8445  0.0957  0.4517
   60MOL   H23026308   7.580   5.102   0.549  1.2032  0.0514  0.4950
   60MOL   H23126309   7.425   5.065   0.733 -0.1317 -0.2726  1.1157
   60MOL   H23226310   7.562   5.290   0.876 -0.0939  1.2269 -0.4791
   60MOL   H23326311   7.397   5.313   0.812  2.4926  2.0912  0.0840
   60MOL   H23426312   7.329   5.128   0.958 -1.0283  1.0817  1.2429
   60MOL   H23526313   7.402   5.264   1.047  2.2026 -0.7395  1.6665
   60MOL   H23626314   7.618   5.142   1.068  0.5683 -1.5223 -0.2345
   60MOL   H23726315   7.479   5.043   1.127  1.6475 -0.5366  0.5649
   60MOL   H23826316   7.492   4.893   0.930 -0.6758  0.6254  1.3874
   60MOL   H23926317   7.644   4.911   0.981 -2.9994 -2.6655  0.6745
   60MOL   H24026318   7.710   5.085   0.831  0.1959  0.3624  0.4278
   60MOL   H24126319   7.640   4.952   0.751  0.6944  1.3959 -1.7530
   60MOL   H24226320   7.437   5.266   0.436  0.9075  0.0714  0.4591
   60MOL   H24326321   7.379   5.323   0.584 -1.2919  0.1142 -0.9715
   60MOL   C24426322   7.298   5.127   0.508  0.4408  0.5921 -0.0314
   60MOL   C24526323   7.343   5.014   0.413 -0.2333 -0.1815  0.1160
   60MOL   C24626324   7.376   5.057   0.264  0.3749  0.5854  0.6244
   60MOL   C24726325   7.432   4.948   0.178  0.4344  0.5271  0.6526
   60MOL   C24826326   7.327   4.834   0.173 -0.7574  0.0461 -0.1491
   60MOL   C24926327   7.301   4.782   0.320  0.3154  0.0455  0.1216
   60MOL   C25026328   7.249   4.891   0.407 -0.2238 -0.1536 -0.1778
   60MOL   C25126329   7.168   5.201   0.458  0.0712 -0.5246  0.1727
   60MOL   H25226330   7.264   5.086   0.604 -0.7615  3.4258  0.8134
   60MOL   H25326331   7.436   4.973   0.453 -0.9459 -1.8214  0.1325
   60MOL   H25426332   7.448   5.139   0.260  0.6054  0.3819  0.5563
   60MOL   H25526333   7.291   5.104   0.214  0.5026 -0.9654 -1.0842
   60MOL   H25626334   7.442   4.988   0.077 -0.8969 -1.9695 -0.4987
   60MOL   H25726335   7.524   4.906   0.217 -0.2367 -1.8753 -0.2883
   60MOL   H25826336   7.234   4.863   0.125 -1.4734 -3.1250 -0.7982
   60MOL   H25926337   7.378   4.758   0.113 -0.5739  0.1870 -0.1708
   60MOL   H26026338   7.394   4.736   0.352  1.3943  1.2363 -1.2415
   60MOL   H26126339   7.229   4.700   0.319 -0.7513  0.9512  0.5977
   60MOL   H26226340   7.148   4.920   0.378 -0.6651 -0.6485  0.8275
   60MOL   H26326341   7.220   4.852   0.505 -1.5326 -2.5197 -1.4681
   60MOL   H26426342   7.145   5.168   0.357  0.6404  0.3994 -0.2593
   60MOL   H26526343   7.188   5.308   0.451 -1.1532 -0.2121  1.1565
   60MOL   C26626344   7.036   5.192   0.532 -0.0986  0.3062 -0.3720
   60MOL   C26726345   7.001   5.306   0.634  0.0075 -0.4406  0.1362
   60MOL   C26826346   7.017   5.452   0.584 -0.4337 -0.1098 -0.3248
   60MOL   C26926347   6.950   5.538   0.689  0.6801 -0.1644  0.0871
   60MOL   C27026348   7.010   5.529   0.829  1.2843 -0.1446 -0.1720
   60MOL   C27126349   7.017   5.381   0.875  0.3785  0.5531  0.5342
   60MOL   C27226350   7.083   5.288   0.767 -0.1507  0.0298  0.3425
   60MOL   C27326351   6.910   5.169   0.446 -0.1408 -0.4667 -0.2307
   60MOL   H27426352   7.055   5.106   0.596 -2.3170  0.6787  0.8141
   60MOL   H27526353   6.894   5.296   0.655  0.0485 -0.6813  0.2250
   60MOL   H27626354   7.123   5.474   0.575 -0.4046  0.0073  0.2657
   60MOL   H27726355   6.966   5.463   0.489  0.2388 -1.5386 -0.8594
   60MOL   H27826356   6.846   5.509   0.703  0.1330  0.7756 -1.7878
   60MOL   H27926357   6.942   5.646   0.673  1.0108 -0.0177  0.9080
   60MOL   H28026358   7.109   5.575   0.821  1.4761 -0.6685 -0.9053
   60MOL   H28126359   6.952   5.586   0.901 -0.3666  2.2417 -3.2493
   60MOL   H28226360   6.914   5.345   0.881  1.2531 -1.9845  0.5846
   60MOL   H28326361   7.062   5.370   0.974 -2.7380  1.4361  2.1227
   60MOL   H28426362   7.097   5.184   0.799  1.6101 -0.0560 -0.6800
   60MOL   H28526363   7.182   5.324   0.743 -0.0581 -0.8717 -0.7067
   60MOL   H28626364   6.937   5.187   0.342  1.5380 -1.6973 -0.0222
   60MOL   H28726365   6.835   5.245   0.467  1.1901  0.7066  0.3618
   60MOL   C28826366   6.850   5.028   0.464 -0.7888  0.8876 -0.1377
   60MOL   C28926367   6.739   5.001   0.354  0.0201 -0.0735 -0.3150
   60MOL   C29026368   6.614   5.098   0.365 -1.1187  0.8611 -0.5742
   60MOL   C29126369   6.507   5.073   0.251 -0.1850 -0.4787  0.1333
   60MOL   C29226370   6.569   5.035   0.113  0.0493 -0.0138 -0.3884
   60MOL   C29326371   6.680   4.936   0.124  0.1570  0.8739  0.3323
   60MOL   C29426372   6.794   4.994   0.207  0.4304 -0.0194  0.5846
   60MOL   C29526373   6.796   5.001   0.607 -0.0007  0.1511  0.6517
   60MOL   H29626374   6.932   4.960   0.444 -2.1937 -0.5472 -1.2116
   60MOL   H29726375   6.690   4.906   0.377  1.9493 -1.0567 -0.1873
   60MOL   H29826376   6.558   5.095   0.458 -1.4753  1.1710 -0.7757
   60MOL   H29926377   6.641   5.203   0.362  0.7002  0.4193  0.1971
   60MOL   H30026378   6.436   4.997   0.283 -0.2481 -0.2994  0.4160
   60MOL   H30126379   6.445   5.162   0.241  0.3368 -0.2376 -1.1961
   60MOL   H30226380   6.592   5.131   0.068 -1.7398  1.6378  2.0708
   60MOL   H30326381   6.489   4.993   0.050 -0.4005  2.2330 -1.3470
   60MOL   H30426382   6.727   4.912   0.028 -3.3990 -2.4077 -0.7296
   60MOL   H30526383   6.634   4.847   0.168  0.4529  1.0957  1.0998
   60MOL   H30626384   6.831   5.090   0.170 -0.1275 -0.3198 -0.7686
   60MOL   H30726385   6.884   4.933   0.207  0.8556  0.5967  1.3704
   60MOL   H30826386   6.831   5.080   0.674 -0.1868  0.9580 -0.1865
   60MOL   H30926387   6.689   5.021   0.598  0.3866  1.8543 -0.4936
   60MOL   C31026388   6.815   4.858   0.664  0.1392 -0.2414  0.2265
   60MOL   C31126389   6.963   4.816   0.693  0.2496  0.2142 -0.8635
   60MOL   C31226390   7.019   4.903   0.810 -0.1635  0.2367 -0.2841
   60MOL   C31326391   7.173   4.886   0.829 -0.0567  0.6225 -1.0714
   60MOL   C31426392   7.204   4.744   0.860 -0.0263 -0.1206  1.1132
   60MOL   C31526393   7.153   4.659   0.744 -0.5755  0.1100  0.1699
   60MOL   C31626394   7.000   4.671   0.734  0.0041 -0.2827 -0.2443
   60MOL   C31726395   6.720   4.856   0.783 -0.0105 -0.2472 -0.4188
   60MOL   H31826396   6.771   4.789   0.592 -0.9691  0.6462  0.0322
   60MOL   H31926397   7.024   4.838   0.606  1.1296  0.8015 -0.1176
   60MOL   H32026398   6.983   5.004   0.787  0.7083  0.8635  1.0272
   60MOL   H32126399   6.976   4.881   0.908  2.3070  0.0162  0.7940
   60MOL   H32226400   7.218   4.944   0.909  1.0663 -0.9435 -0.5377
   60MOL   H32326401   7.226   4.908   0.736  0.2236  0.6492 -0.9035
   60MOL   H32426402   7.313   4.738   0.860 -0.0253 -0.9055 -1.7913
   60MOL   H32526403   7.155   4.712   0.952 -0.1084 -1.4106  0.6336
   60MOL   H32626404   7.183   4.690   0.644 -2.3821 -0.7703 -0.6832
   60MOL   H32726405   7.186   4.556   0.757  2.1983  1.2482  2.6623
   60MOL   H32826406   6.959   4.651   0.834  1.9884 -1.1173  0.4250
   60MOL   H32926407   6.970   4.589   0.669  0.9744 -1.3040  0.5651
   60MOL   H33026408   6.700   4.945   0.842  0.0878  0.0206 -0.7945
   60MOL   H33126409   6.770   4.795   0.859 -0.1852 -0.9893 -0.8957
   60MOL   C33226410   6.579   4.777   0.755 -0.3680 -0.0202 -0.0838
   60MOL   C33326411   6.457   4.851   0.822 -0.5067  0.3671 -0.5206
   60MOL   C33426412   6.414   4.989   0.759 -0.0770  0.8740  0.3732
   60MOL   C33526413   6.283   5.037   0.820  0.2757  0.4793  0.2953
   60MOL   C33626414   6.304   5.069   0.966 -0.0616  0.9686 -0.1929
   60MOL   C33726415   6.344   4.930   1.036  0.3486  0.6338  0.1029
   60MOL   C33826416   6.465   4.854   0.980  0.7570  1.0750  0.8215
   60MOL   C33926417   6.584   4.627   0.772 -0.5629 -0.5053 -0.4125
   60MOL   H34026418   6.552   4.792   0.650 -0.8939 -0.0140  0.0518
   60MOL   H34126419   6.370   4.793   0.791 -0.3807  0.5750 -1.2753
   60MOL   H34226420   6.491   5.066   0.755 -0.1864  0.9522 -0.2836
   60MOL   H34326421   6.391   4.960   0.657 -0.0431  1.5861  0.1627
   60MOL   H34426422   6.254   5.128   0.770 -0.7511  1.0151  1.8289
   60MOL   H34526423   6.205   4.965   0.796 -1.1148  1.7972  0.8150
   60MOL   H34626424   6.386   5.141   0.972  2.0762 -1.2309 -1.7078
   60MOL   H34726425   6.218   5.094   1.028 -0.7224  1.1363 -1.1708
   60MOL   H34826426   6.256   4.867   1.022  0.8639  0.0980 -0.7270
   60MOL   H34926427   6.365   4.956   1.140 -0.5178 -1.2408  0.7885
   60MOL   H35026428   6.470   4.752   1.019  0.5384 -0.2246 -2.3926
   60MOL   H35126429   6.553   4.909   1.013  0.8018  1.0034  0.8219
   60MOL   H35226430   6.568   4.603   0.877  0.7454  1.1619  0.1769
   60MOL   H35326431   6.691   4.605   0.762  0.0343  0.3403  3.3431
   60MOL   C35426432   6.500   4.530   0.679  0.1294  0.3591 -0.3127
   60MOL   C35526433   6.348   4.557   0.675  0.3535 -0.0584  0.2279
   60MOL   C35626434   6.279   4.525   0.810  0.3859 -0.0036  0.3725
   60MOL   C35726435   6.131   4.555   0.809 -0.4489 -0.0577  0.0482
   60MOL   C35826436   6.057   4.482   0.691 -0.3975  0.7922  0.1577
   60MOL   C35926437   6.129   4.526   0.559 -0.2903 -0.8237  0.0114
   60MOL   C36026438   6.274   4.486   0.559 -0.1812  0.2999 -0.2695
   60MOL   C36126439   6.530   4.376   0.703  0.2381  0.2569 -0.4616
   60MOL   H36226440   6.538   4.558   0.581 -3.0165 -0.3945 -1.8230
   60MOL   H36326441   6.328   4.660   0.646 -0.5748  0.3947  2.3426
   60MOL   H36426442   6.316   4.575   0.900 -0.8771 -0.6563  1.2677
   60MOL   H36526443   6.291   4.418   0.825 -0.3843 -0.0563  0.6379
   60MOL   H36626444   6.086   4.524   0.903  0.5765  0.5346  0.7335
   60MOL   H36726445   6.114   4.662   0.815  0.4170  0.0755  0.1243
   60MOL   H36826446   6.066   4.377   0.717  0.4712  0.7625 -0.2485
   60MOL   H36926447   5.952   4.511   0.694 -0.9950 -1.3478  0.8088
   60MOL   H37026448   6.081   4.490   0.468 -1.1363  0.7648 -0.1859
   60MOL   H37126449   6.129   4.634   0.548 -0.3633 -0.9049 -0.7679
   60MOL   H37226450   6.323   4.510   0.465  1.8742 -1.1100  0.4087
   60MOL   H37326451   6.279   4.378   0.570  0.2623  0.2881 -0.5684
   60MOL   H37426452   6.457   4.312   0.654 -1.0606  0.2865  1.3817
   60MOL   H37526453   6.512   4.360   0.809  1.4918 -0.5926 -0.3696
   60MOL   C37626454   6.675   4.347   0.647 -0.6814  0.0370  1.0453
   60MOL   C37726455   6.748   4.246   0.731  0.2524 -0.2949  0.3634
   60MOL   C37826456   6.674   4.111   0.750  1.3565  0.4971  0.0014
   60MOL   C37926457   6.752   4.004   0.822 -0.3731 -0.0516 -0.5116
   60MOL   C38026458   6.816   4.062   0.952 -0.8366  0.3235 -0.7083
   60MOL   C38126459   6.887   4.192   0.929 -0.4850  0.2142  0.2960
   60MOL   C38226460   6.797   4.303   0.869  0.0678 -0.0644  0.0223
   60MOL   C38326461   6.664   4.310   0.497 -0.1061  0.3931 -0.7899
   60MOL   H38426462   6.742   4.433   0.650 -1.2887  0.6245 -1.5389
   60MOL   H38526463   6.841   4.223   0.679  1.1182  0.5903  1.4910
   60MOL   H38626464   6.583   4.138   0.804  1.5789 -1.1407  1.2113
   60MOL   H38726465   6.647   4.068   0.653 -0.5834 -0.0742  0.7686
   60MOL   H38826466   6.828   3.980   0.748  0.3198 -0.5211  0.3420
   60MOL   H38926467   6.685   3.922   0.848 -1.0430  0.2985 -1.1135
   60MOL   H39026468   6.740   4.086   1.026  1.0285  0.4765  1.2205
   60MOL   H39126469   6.873   3.989   1.008 -2.1046 -1.4094 -1.6295
   60MOL   H39226470   6.914   4.227   1.028 -1.6388 -0.0552  0.7074
   60MOL   H39326471   6.983   4.181   0.877 -0.1555  1.5733  0.5836
   60MOL   H39426472   6.715   4.316   0.940 -0.7403 -0.1384 -0.8927
   60MOL   H39526473   6.854   4.394   0.850 -1.0611  0.3822 -1.2481
   60MOL   H39626474   6.566   4.347   0.467 -0.3189 -0.2597 -0.8979
   60MOL   H39726475   6.644   4.204   0.482  0.3081 -0.2694  3.0678
   60MOL   C39826476   6.761   4.373   0.395 -1.2320 -0.0529 -0.4067
   60MOL   C39926477   6.913   4.339   0.417  0.5789  0.4697  0.1502
   60MOL   C40026478   6.942   4.192   0.398  0.3595 -0.2781 -0.7295
   60MOL   C40126479   7.077   4.159   0.465 -0.6130  1.1992  0.5716
   60MOL   C40226480   7.188   4.239   0.407 -0.0003  0.5363 -0.4424
   60MOL   C40326481   7.154   4.391   0.412 -0.0634 -0.3315  0.3211
   60MOL   C40426482   7.021   4.428   0.346 -0.1348  0.2551 -0.3969
   60MOL   C40526483   6.706   4.350   0.256 -0.5066  0.8407  0.4751
   60MOL   H40626484   6.771   4.481   0.409 -1.1890 -0.0456 -0.4883
   60MOL   H40726485   6.925   4.354   0.525 -2.9819 -1.1627  0.8713
   60MOL   H40826486   6.949   4.179   0.290  0.9103 -0.8268 -0.6290
   60MOL   H40926487   6.860   4.127   0.429  0.2149 -0.0301 -0.5945
   60MOL   H41026488   7.089   4.051   0.454 -2.9580  1.0371 -0.5869
   60MOL   H41126489   7.076   4.177   0.573  1.2453 -2.7965  1.3487
   60MOL   H41226490   7.205   4.205   0.305 -0.8919 -4.3905  0.9184
   60MOL   H41326491   7.278   4.232   0.469  0.1855  2.4204 -0.4707
   60MOL   H41426492   7.161   4.425   0.515  0.3500 -1.0363  0.5203
   60MOL   H41526493   7.229   4.443   0.352 -1.7107 -1.4913 -2.9028
   60MOL   H41626494   6.998   4.531   0.371  1.4650  1.0656 -2.1687
   60MOL   H41726495   7.024   4.414   0.238  1.4394  0.7815 -0.4321
   60MOL   H41826496   6.790   4.356   0.187  0.2403 -1.8832  1.0524
   60MOL   H41926497   6.673   4.248   0.237 -0.5008  1.0971 -0.9525
   60MOL   C42026498   6.599   4.447   0.212 -0.2239  0.2551 -0.7141
   60MOL   C42126499   6.503   4.369   0.110 -0.4038 -0.3059 -0.1931
   60MOL   C42226500   6.574   4.322   7.758  0.1829  0.6461  0.3963
   60MOL   C42326501   6.473   4.229   7.673  0.2585  0.0453 -0.0634
   60MOL   C42426502   6.341   4.296   7.652  0.0753 -0.2419 -0.2332
   60MOL   C42526503   6.272   4.351   0.009 -0.0731 -0.2061  0.2166
   60MOL   C42626504   6.374   4.442   0.084 -0.6511 -0.7105 -0.5577
   60MOL   C42726505   6.660   4.568   0.143  0.3726  0.3122  0.6057
   60MOL   H42826506   6.538   4.491   0.291 -1.0030  1.1397 -1.8007
   60MOL   H42926507   6.467   4.283   0.166 -1.0203 -2.1131 -3.2154
   60MOL   H43026508   6.630   4.393   7.697  1.4079 -0.0423  0.7199
   60MOL   H43126509   6.649   4.253   0.024  1.5070  0.4468 -2.4246
   60MOL   H43226510   6.521   4.208   7.578  3.5924  2.1534  1.0383
   60MOL   H43326511   6.453   4.134   7.723 -1.9163 -0.0401 -1.0279
   60MOL   H43426512   6.270   4.228   7.605  0.2128  0.1782 -1.0572
   60MOL   H43526513   6.370   4.378   7.586 -1.2605  1.1975  0.9144
   60MOL   H43626514   6.243   4.275   0.082 -5.2330  1.7422  0.3704
   60MOL   H43726515   6.182   4.407   7.757  1.7303  0.9780 -4.1780
   60MOL   H43826516   6.401   4.519   0.012 -2.4247 -0.1886 -0.6890
   60MOL   H43926517   6.330   4.492   0.170 -2.3679 -1.9176 -0.6991
   60MOL   H44026518   6.597   4.650   0.107  1.3528 -0.5942 -3.3511
   60MOL   H44126519   6.724   4.621   0.214 -0.7856  0.8710  1.2501
   60MOL   H44226520   6.736   4.543   0.070  0.6240  0.1358  0.9245
   61MOL     C126521   4.191   6.770   7.727  0.0585 -0.0306 -0.3954
   61MOL     C226522   4.047   6.705   7.753  0.5459  1.1966 -0.2909
   61MOL     C326523   3.932   6.814   0.008  0.2982 -0.4431  0.9054
   61MOL     C426524   3.798   6.738   0.032 -0.2818  0.4344  0.2145
   61MOL     C526525   3.810   6.642   0.147  0.1950  0.6862  0.4407
   61MOL     C626526   3.921   6.536   0.137 -0.0712 -0.2931 -0.4525
   61MOL     C726527   4.052   6.603   0.097  0.0948 -0.0901  0.3827
   61MOL     C826528   4.254   6.837   0.079 -0.4308 -0.7128 -0.3365
   61MOL     H926529   4.255   6.695   7.680  0.9351 -0.6893  1.7621
   61MOL    H1026530   4.032   6.637   7.668  2.6653  0.0919  0.1753
   61MOL    H1126531   3.959   6.865   0.101 -0.8653 -0.7138  1.4020
   61MOL    H1226532   3.924   6.894   7.706 -0.2435 -0.5648  0.8294
   61MOL    H1326533   3.775   6.675   7.718  0.0640 -3.3949  2.8180
   61MOL    H1426534   3.716   6.809   0.038  1.3887  2.4358 -0.3205
   61MOL    H1526535   3.715   6.593   0.169  0.7640 -0.7901 -0.2875
   61MOL    H1626536   3.826   6.697   0.240 -1.1309 -1.3381  1.9252
   61MOL    H1726537   3.926   6.487   0.234  0.9066 -1.0516 -0.8730
   61MOL    H1826538   3.902   6.465   0.057  1.7205  0.0206 -1.1899
   61MOL    H1926539   4.124   6.528   0.062  1.2155 -0.0501  2.5570
   61MOL    H2026540   4.087   6.639   0.193 -1.2672 -0.2802  0.9577
   61MOL    H2126541   4.251   6.767   0.162 -1.6345 -1.5515 -1.0791
   61MOL    H2226542   4.192   6.922   0.108  0.4556  0.3190 -1.3919
   61MOL    H2326543   4.189   6.848   7.652 -1.6713 -0.4357 -0.7878
   61MOL    C2426544   4.400   6.894   0.072  0.7593 -1.0161 -0.0785
   61MOL    C2526545   4.507   6.788   0.036  0.0908  0.0980 -0.5187
   61MOL    C2626546   4.509   6.680   0.152  0.1432 -1.1155  0.4277
   61MOL    C2726547   4.609   6.569   0.119  0.5272 -0.4792 -0.1681
   61MOL    C2826548   4.752   6.630   0.104  0.2805 -0.6429  1.3121
   61MOL    C2926549   4.754   6.742   7.768 -0.1148  0.3062  0.0273
   61MOL    C3026550   4.648   6.844   0.025 -0.2319  0.1561 -0.5966
   61MOL    C3126551   4.402   7.021   7.753 -0.5878  0.5785  0.2418
   61MOL    H3226552   4.431   6.948   0.161 -0.8683 -0.6659  0.3078
   61MOL    H3326553   4.484   6.735   7.716 -1.1377  1.6005 -1.1053
   61MOL    H3426554   4.417   6.623   0.162 -0.4639 -0.2749 -0.3448
   61MOL    H3526555   4.520   6.729   0.249  0.3782  1.6786 -0.9425
   61MOL    H3626556   4.619   6.484   0.187  0.8161 -1.5191 -1.4969
   61MOL    H3726557   4.567   6.522   0.030 -1.0669 -0.2362  0.4346
   61MOL    H3826558   4.815   6.549   0.069  0.2082 -0.4146  0.6356
   61MOL    H3926559   4.795   6.660   0.200  0.0550  0.4450  1.0803
   61MOL    H4026560   4.857   6.774   7.752 -0.3205  0.4243 -1.1254
   61MOL    H4126561   4.726   6.695   7.673 -1.6165  2.1553 -0.4638
   61MOL    H4226562   4.678   6.893   0.117  0.5028 -0.9665 -0.2271
   61MOL    H4326563   4.648   6.915   7.715 -0.3533 -1.2394 -1.8331
   61MOL    H4426564   4.305   7.036   7.707 -0.2891  0.5060 -0.4252
   61MOL    H4526565   4.462   6.992   7.666 -0.8652 -1.8344  0.8084
   61MOL    C4626566   4.444   7.161   0.045  0.2870 -0.0029 -0.5544
   61MOL    C4726567   4.328   7.247   0.106  0.3404  0.2736  0.4103
   61MOL    C4826568   4.231   7.297   7.771 -0.2032 -0.7990 -0.4237
   61MOL    C4926569   4.122   7.373   0.068 -0.2140  0.0847 -0.3334
   61MOL    C5026570   4.158   7.484   0.165  0.1287  0.3927 -0.0254
   61MOL    C5126571   4.253   7.433   0.269  0.1243  0.2324 -0.5927
   61MOL    C5226572   4.372   7.361   0.200 -0.3326  0.0624  0.0404
   61MOL    C5326573   4.540   7.246   7.720 -0.3957  1.1781  0.4096
   61MOL    H5426574   4.515   7.131   0.123 -1.1141 -0.2904  0.6282
   61MOL    H5526575   4.271   7.175   0.165  0.2215 -0.3502 -0.4536
   61MOL    H5626576   4.286   7.359   7.699  2.8198 -2.8544 -0.0035
   61MOL    H5726577   4.190   7.212   7.717 -3.2656 -0.1836  0.8446
   61MOL    H5826578   4.057   7.302   0.119 -2.8896  2.8266  0.2367
   61MOL    H5926579   4.059   7.398   7.755 -0.6724  3.4116  0.9146
   61MOL    H6026580   4.185   7.570   0.104 -0.6426 -0.0885 -1.0671
   61MOL    H6126581   4.065   7.521   0.207  0.6265 -1.6054  2.9907
   61MOL    H6226582   4.198   7.377   0.345  1.0977  0.7031  0.4641
   61MOL    H6326583   4.289   7.518   0.328  2.7598 -1.5097  0.3896
   61MOL    H6426584   4.419   7.443   0.146  0.8467 -0.7358 -0.1562
   61MOL    H6526585   4.443   7.319   0.271 -0.4554  1.3525  0.9535
   61MOL    H6626586   4.513   7.352   7.718 -0.6384  1.0805 -2.0479
   61MOL    H6726587   4.513   7.225   7.617 -0.3828  1.8120  0.2755
   61MOL    C6826588   4.694   7.244   7.760  0.6933 -0.3846  0.3451
   61MOL    C6926589   4.781   7.281   7.631  0.3176 -0.0516  0.1630
   61MOL    C7026590   4.781   7.428   7.587  0.3907  0.6208 -0.7681
   61MOL    C7126591   4.851   7.452   7.447 -0.4748  0.6689 -0.5175
   61MOL    C7226592   5.001   7.393   7.446 -0.0553  0.1943 -0.7819
   61MOL    C7326593   4.988   7.246   7.490  0.0971 -0.1308 -1.2709
   61MOL    C7426594   4.929   7.227   7.632 -0.3323  0.8429  0.3342
   61MOL    C7526595   4.725   7.321   0.115  0.3005 -0.1532  0.2900
   61MOL    H7626596   4.709   7.138   0.011  0.0410 -0.4343  0.5325
   61MOL    H7726597   4.730   7.226   7.552  1.1395 -1.0952  0.3340
   61MOL    H7826598   4.836   7.486   7.661  3.4156 -3.9119  0.7897
   61MOL    H7926599   4.677   7.462   7.581  0.6431  1.3313 -1.1128
   61MOL    H8026600   4.785   7.404   7.375  0.6188 -1.6879  0.0146
   61MOL    H8126601   4.847   7.559   7.428  1.4800  0.4729 -2.2553
   61MOL    H8226602   5.078   7.447   7.501  1.2651 -1.3431 -1.0796
   61MOL    H8326603   5.039   7.397   7.344  1.3509 -1.8797 -0.3855
   61MOL    H8426604   5.087   7.201   7.489  0.6516  1.0606 -2.6990
   61MOL    H8526605   4.932   7.190   7.415 -1.2319 -1.2075  0.4928
   61MOL    H8626606   4.978   7.295   7.701 -1.2590 -0.4662  2.3318
   61MOL    H8726607   4.943   7.128   7.676 -0.4393  0.6015 -0.1758
   61MOL    H8826608   4.753   7.424   0.094  0.4621 -0.4420 -0.9698
   61MOL    H8926609   4.638   7.327   0.180 -0.1020 -2.0152 -0.0324
   61MOL    C9026610   4.837   7.262   0.205  1.2682  0.4961  0.0600
   61MOL    C9126611   4.898   7.373   0.294  0.8360 -0.0852 -0.0120
   61MOL    C9226612   5.012   7.450   0.221  0.2458  0.7492  0.6017
   61MOL    C9326613   5.082   7.549   0.315 -0.4540  0.4589 -0.3587
   61MOL    C9426614   4.974   7.647   0.369 -0.3781  0.3387 -0.2125
   61MOL    C9526615   4.855   7.587   0.447  0.0121  0.1603 -0.2799
   61MOL    C9626616   4.796   7.477   0.350 -0.7041 -0.1840  0.4333
   61MOL    C9726617   4.776   7.148   0.288 -0.6926  0.4467 -0.2647
   61MOL    H9826618   4.904   7.217   0.131  1.0361  2.5278 -1.4371
   61MOL    H9926619   4.957   7.329   0.375  0.1500 -1.8993 -0.4708
   61MOL   H10026620   4.977   7.506   0.134  0.3740 -2.3707 -1.5415
   61MOL   H10126621   5.090   7.384   0.183 -0.0010  1.0413 -0.4257
   61MOL   H10226622   5.151   7.607   0.253 -1.7479  0.3093 -1.9776
   61MOL   H10326623   5.138   7.500   0.395 -2.2955  0.4735  0.9769
   61MOL   H10426624   4.937   7.693   0.278 -0.3075  0.0669 -0.3811
   61MOL   H10526625   5.020   7.725   0.429 -2.2418  0.2122  1.4502
   61MOL   H10626626   4.893   7.543   0.539  1.5312 -0.7088 -1.2893
   61MOL   H10726627   4.779   7.657   0.479  0.8714  1.0970 -0.2601
   61MOL   H10826628   4.722   7.423   0.410 -0.6875 -2.4785 -1.5336
   61MOL   H10926629   4.749   7.530   0.267  0.3755 -0.1132 -0.1396
   61MOL   H11026630   4.692   7.182   0.349 -1.6448 -0.4909 -1.0319
   61MOL   H11126631   4.729   7.085   0.213  0.1786  1.7646 -1.9356
   61MOL   C11226632   4.871   7.054   0.371 -0.1716  0.1101 -0.2855
   61MOL   C11326633   4.996   7.012   0.297  0.4491  0.0456 -0.7726
   61MOL   C11426634   4.984   6.939   0.162 -0.3695  0.2667 -0.4619
   61MOL   C11526635   5.125   6.928   0.086 -0.0709  0.1316  0.6729
   61MOL   C11626636   5.223   6.875   0.188  0.1286  0.2336 -0.1130
   61MOL   C11726637   5.224   6.943   0.322  0.1349  0.6061 -0.0309
   61MOL   C11826638   5.092   6.938   0.391 -0.6644 -0.0013  0.0187
   61MOL   C11926639   4.789   6.946   0.432 -0.0285 -0.2213 -0.7108
   61MOL   H12026640   4.913   7.113   0.452  1.2995 -0.3987 -0.6670
   61MOL   H12126641   5.053   7.103   0.279  1.8504 -0.9364 -1.4055
   61MOL   H12226642   4.917   6.994   0.096 -1.7968 -1.5767 -0.5740
   61MOL   H12326643   4.939   6.841   0.175  1.1691 -0.1171  2.4163
   61MOL   H12426644   5.121   6.873   7.765  0.3338 -2.0940  1.9371
   61MOL   H12526645   5.153   7.031   0.065  1.3680 -0.3502  0.1913
   61MOL   H12626646   5.200   6.770   0.206  0.8000 -0.2062 -1.6693
   61MOL   H12726647   5.325   6.871   0.148  0.6942  0.1418  1.3186
   61MOL   H12826648   5.293   6.895   0.390 -1.0983 -0.5037  0.4793
   61MOL   H12926649   5.269   7.042   0.329  0.2058  0.6225 -0.6721
   61MOL   H13026650   5.102   6.985   0.488 -1.2248  1.3129 -0.5444
   61MOL   H13126651   5.073   6.833   0.410  4.8263 -0.5303  3.6824
   61MOL   H13226652   4.847   6.868   0.481 -1.5053 -0.6921  0.3155
   61MOL   H13326653   4.730   6.885   0.364  1.1601 -1.3313 -0.7748
   61MOL   C13426654   4.692   7.005   0.544  0.1785  0.5529 -0.4588
   61MOL   C13526655   4.728   6.955   0.689  0.6217  0.0666  0.2484
   61MOL   C13626656   4.867   6.989   0.731  0.0551  0.5446 -0.1760
   61MOL   C13726657   4.896   6.958   0.885  0.2002  0.3735 -0.4958
   61MOL   C13826658   4.851   6.820   0.924 -0.2895 -0.1699 -0.7332
   61MOL   C13926659   4.714   6.780   0.870  0.5155  0.5947  0.2919
   61MOL   C14026660   4.687   6.809   0.720 -0.9253 -0.6678  0.4082
   61MOL   C14126661   4.546   6.990   0.499 -0.7185 -0.0495 -0.1459
   61MOL   H14226662   4.704   7.113   0.548 -1.4393  0.7378 -0.1755
   61MOL   H14326663   4.663   7.017   0.750  1.1032  0.8464 -0.0323
   61MOL   H14426664   4.947   6.932   0.684 -0.8859  0.6237 -1.9328
   61MOL   H14526665   4.886   7.094   0.709 -0.3193  0.8452  0.9075
   61MOL   H14626666   4.851   7.037   0.945 -3.6740  0.3057 -3.1185
   61MOL   H14726667   5.003   6.962   0.907  0.1143 -2.9657  0.8234
   61MOL   H14826668   4.918   6.742   0.886 -1.3410 -0.4218 -2.0977
   61MOL   H14926669   4.851   6.819   1.033  0.4713  2.4198 -0.6703
   61MOL   H15026670   4.634   6.829   0.927  0.2635  0.0443  0.4117
   61MOL   H15126671   4.703   6.673   0.886  0.1101  0.1364 -2.8095
   61MOL   H15226672   4.748   6.747   0.654  1.4437  1.4039  0.5423
   61MOL   H15326673   4.589   6.778   0.685  0.8535 -3.0719 -2.7410
   61MOL   H15426674   4.525   6.887   0.472  0.6881 -0.7135  1.2328
   61MOL   H15526675   4.537   7.033   0.400  0.4168  1.2770  0.3115
   61MOL   C15626676   4.435   7.043   0.593  0.2397 -0.3092 -0.5019
   61MOL   C15726677   4.288   7.010   0.556  0.1881 -0.3090 -0.3089
   61MOL   C15826678   4.249   7.057   0.416  0.7459  0.0088  0.0275
   61MOL   C15926679   4.095   7.047   0.392  0.1254  0.2443  0.0691
   61MOL   C16026680   4.047   6.905   0.424 -0.4300  0.9458 -0.7984
   61MOL   C16126681   4.097   6.848   0.561 -0.1412  0.3590  0.4148
   61MOL   C16226682   4.249   6.862   0.573  0.3399  0.2069 -0.2663
   61MOL   C16326683   4.456   7.197   0.619  0.1505  0.2719 -0.2541
   61MOL   H16426684   4.459   6.993   0.687 -0.8323 -1.2778 -0.7419
   61MOL   H16526685   4.227   7.058   0.632 -0.3935  0.6410 -1.3458
   61MOL   H16626686   4.280   7.159   0.392  2.6998 -0.7475 -0.7578
   61MOL   H16726687   4.310   7.000   0.346  1.3840  0.7377 -0.0131
   61MOL   H16826688   4.047   7.111   0.466 -0.9433  1.4442 -1.6079
   61MOL   H16926689   4.065   7.090   0.296 -0.5120  3.3394  1.5996
   61MOL   H17026690   4.074   6.824   0.357 -2.9899  0.8054 -1.7006
   61MOL   H17126691   3.939   6.901   0.438 -0.0744  0.6769  2.2229
   61MOL   H17226692   4.080   6.740   0.565 -0.1381  0.2254 -2.2554
   61MOL   H17326693   4.041   6.891   0.644 -3.9470 -1.4595 -1.0832
   61MOL   H17426694   4.281   6.834   0.674 -1.2075  0.9780  0.4642
   61MOL   H17526695   4.298   6.798   0.499  2.3102  0.2739  0.9388
   61MOL   H17626696   4.372   7.243   0.566 -0.8594 -0.0212  1.0895
   61MOL   H17726697   4.542   7.238   0.566  0.6792 -0.5488 -0.0253
   61MOL   C17826698   4.448   7.246   0.763  0.5786  0.1494 -0.1059
   61MOL   C17926699   4.488   7.397   0.781  0.1832 -0.0691  0.0639
   61MOL   C18026700   4.411   7.492   0.690  0.2443 -0.5870 -0.6724
   61MOL   C18126701   4.434   7.640   0.739  0.4908  0.0655  0.2372
   61MOL   C18226702   4.590   7.675   0.728  0.2922  0.6652 -0.9256
   61MOL   C18326703   4.680   7.570   0.804  0.6185 -0.2061 -0.0512
   61MOL   C18426704   4.647   7.424   0.766  0.4188  0.6316  0.1646
   61MOL   C18526705   4.318   7.205   0.841 -0.3093 -0.6282 -0.1839
   61MOL   H18626706   4.529   7.191   0.812  1.1434  1.1865  0.1310
   61MOL   H18726707   4.448   7.422   0.880 -0.7183  0.9445 -0.5523
   61MOL   H18826708   4.421   7.474   0.583 -1.5927  1.1777 -1.1716
   61MOL   H18926709   4.305   7.471   0.703  0.6546 -1.2926  1.8474
   61MOL   H19026710   4.395   7.660   0.838 -1.5277  0.2178 -0.5637
   61MOL   H19126711   4.375   7.708   0.678  1.4430  0.9973  0.3356
   61MOL   H19226712   4.618   7.677   0.622  0.6445  0.9875 -0.8274
   61MOL   H19326713   4.616   0.006   0.751 -1.3820  0.0703  4.0171
   61MOL   H19426714   4.660   7.584   0.910  0.0148 -0.2245 -0.1587
   61MOL   H19526715   4.784   7.601   0.795  0.8939 -0.6324  1.5620
   61MOL   H19626716   4.683   7.415   0.663  3.2939  0.3796  1.1517
   61MOL   H19726717   4.695   7.353   0.833  2.8209  1.2160 -0.8888
   61MOL   H19826718   4.245   7.271   0.792  1.4196  1.3198 -0.1884
   61MOL   H19926719   4.294   7.099   0.833 -2.2211 -0.1459 -1.4965
   61MOL   C20026720   4.314   7.233   0.995  0.7798  0.4999  0.8245
   61MOL   C20126721   4.178   7.178   1.058 -0.2360  0.6118 -0.3820
   61MOL   C20226722   4.058   7.255   1.000 -0.2928  0.1770 -0.6981
   61MOL   C20326723   3.936   7.191   1.071  0.0470  0.1369  0.0138
   61MOL   C20426724   3.927   7.047   1.035  0.1973  0.2236 -0.4025
   61MOL   C20526725   4.041   6.969   1.106  0.1131 -0.4347  0.0899
   61MOL   C20626726   4.169   7.019   1.041 -0.6678 -0.6118  0.4500
   61MOL   C20726727   4.440   7.174   1.068 -0.5131 -0.2564  0.2324
   61MOL   H20826728   4.314   7.341   1.007 -0.4364  0.7583 -1.1454
   61MOL   H20926729   4.167   7.206   1.163 -0.9910  0.2592 -0.3640
   61MOL   H21026730   4.055   7.258   0.891 -2.2214  1.2078 -0.6317
   61MOL   H21126731   4.073   7.361   1.016  0.4035  0.0719 -0.6381
   61MOL   H21226732   3.941   7.203   1.179 -1.2244  2.9569 -0.1891
   61MOL   H21326733   3.851   7.240   1.022 -0.5975  2.6627  3.4529
   61MOL   H21426734   3.829   7.004   1.060 -0.1818 -0.1750 -2.4779
   61MOL   H21526735   3.939   7.046   0.927 -2.1350  0.1248 -0.6923
   61MOL   H21626736   4.044   6.984   1.214 -0.5549  1.2065 -0.0965
   61MOL   H21726737   4.038   6.862   1.088 -3.3453 -0.1616 -1.3399
   61MOL   H21826738   4.257   6.971   1.087 -1.7963 -1.6440  1.5843
   61MOL   H21926739   4.170   6.981   0.939 -1.3047  0.2694  0.1111
   61MOL   H22026740   4.450   7.066   1.055 -1.4552 -0.3928  0.5504
   61MOL   H22126741   4.533   7.211   1.024  1.4494 -4.0908  0.9228
   61MOL   C22226742   4.446   7.215   1.220  0.8713  0.0754 -0.4791
   61MOL   C22326743   4.562   7.142   1.291 -0.3179  0.4788  0.5027
   61MOL   C22426744   4.565   7.153   1.447  0.0323  0.5619 -0.1005
   61MOL   C22526745   4.678   7.073   1.513 -0.1810  1.1010  0.2930
   61MOL   C22626746   4.816   7.115   1.444 -0.6031 -0.5225  0.3501
   61MOL   C22726747   4.819   7.070   1.299  0.1016 -0.0047 -0.2835
   61MOL   C22826748   4.705   7.150   1.227 -0.0171  0.7128 -0.6103
   61MOL   C22926749   4.469   7.375   1.231  0.0756 -0.2450  0.0400
   61MOL   H23026750   4.353   7.189   1.271  1.1305  0.2667  0.0866
   61MOL   H23126751   4.541   7.035   1.279 -1.0518  0.6090  0.5920
   61MOL   H23226752   4.579   7.258   1.475 -1.8625  0.8920 -0.3380
   61MOL   H23326753   4.468   7.126   1.489 -0.4670 -0.6010 -1.9800
   61MOL   H23426754   4.667   6.966   1.500 -1.6327  1.3949 -1.0560
   61MOL   H23526755   4.681   7.086   1.621  1.6314  2.0748  0.1539
   61MOL   H23626756   4.842   7.221   1.449  2.5680 -1.3240  1.2964
   61MOL   H23726757   4.893   7.069   1.505 -0.8933 -0.7365  0.5554
   61MOL   H23826758   4.785   6.968   1.278 -0.3928  0.4735 -1.9127
   61MOL   H23926759   4.919   7.089   1.262 -0.1283  0.4526 -0.6752
   61MOL   H24026760   4.738   7.254   1.226 -0.0207  0.7446  1.4310
   61MOL   H24126761   4.709   7.128   1.120 -0.4108  1.4781 -0.7797
   61MOL   H24226762   4.474   7.410   1.128  2.2072  0.7899  0.4671
   61MOL   H24326763   4.562   7.404   1.279  0.1295 -0.1720 -0.1098
   61MOL   C24426764   4.346   7.452   1.290  0.0315  0.5387 -0.1977
   61MOL   C24526765   4.348   7.603   1.263 -0.0749  0.0524 -0.1711
   61MOL   C24626766   4.342   7.640   1.114 -0.7727 -0.5750  0.2697
   61MOL   C24726767   4.338   0.021   1.093 -0.5454 -0.1196  0.1618
   61MOL   C24826768   4.428   0.112   1.181 -0.1575  1.2313 -0.0976
   61MOL   C24926769   4.432   0.064   1.321 -0.2021  0.0206 -0.6884
   61MOL   C25026770   4.467   7.682   1.327  0.3539 -0.9591 -0.3404
   61MOL   C25126771   4.340   7.424   1.443 -0.3731 -0.0842  0.1676
   61MOL   H25226772   4.256   7.408   1.246  0.5989  0.1529 -0.9958
   61MOL   H25326773   4.255   7.647   1.298  0.8680  2.1471 -0.2491
   61MOL   H25426774   4.259   7.591   1.063 -0.1659  0.4858 -1.8162
   61MOL   H25526775   4.435   7.605   1.070 -0.6836 -0.2557  0.2021
   61MOL   H25626776   4.366   0.042   0.990  0.9209 -1.3949  0.2915
   61MOL   H25726777   4.232   0.049   1.097 -0.7182 -0.9908  1.6945
   61MOL   H25826778   4.527   0.125   1.138 -1.1300  2.8373 -1.9652
   61MOL   H25926779   4.385   0.213   1.183  1.9442  2.1765 -1.1004
   61MOL   H26026780   4.338   0.083   1.373  2.7017 -1.8183  5.8395
   61MOL   H26126781   4.501   0.121   1.383  0.7873 -0.4078 -1.3945
   61MOL   H26226782   4.564   7.656   1.286 -0.4504 -0.5515 -2.5330
   61MOL   H26326783   4.483   7.661   1.433 -0.5494  1.9676  0.4075
   61MOL   H26426784   4.428   7.454   1.499  0.2570  0.0865 -0.9102
   61MOL   H26526785   4.355   7.317   1.457  1.8265  0.2442  0.4574
   61MOL   C26626786   4.216   7.477   1.514 -0.0767  0.6487 -0.1760
   61MOL   C26726787   4.139   7.363   1.595  0.4579  0.5282 -0.4095
   61MOL   C26826788   4.222   7.294   1.710 -0.0229  0.0743  0.1361
   61MOL   C26926789   4.146   7.186   1.786 -0.2291 -0.0036  0.3694
   61MOL   C27026790   4.065   7.095   1.686 -0.3234  0.1257 -0.1476
   61MOL   C27126791   3.966   7.172   1.595  0.2382 -0.0128  0.5727
   61MOL   C27226792   4.050   7.270   1.512  0.0583 -0.1892 -0.1038
   61MOL   C27326793   4.261   7.607   1.602  0.6425  0.7587 -0.5964
   61MOL   H27426794   4.139   7.497   1.439 -0.8032 -2.0696 -0.1990
   61MOL   H27526795   4.067   7.415   1.658  1.6738 -0.7116  2.0329
   61MOL   H27626796   4.310   7.246   1.666 -0.5830 -1.3522  0.5559
   61MOL   H27726797   4.254   7.365   1.786 -0.7145 -0.7447  1.2051
   61MOL   H27826798   4.073   7.248   1.839 -0.0014  0.1751  0.4790
   61MOL   H27926799   4.202   7.117   1.849  2.6382  0.2120 -1.8170
   61MOL   H28026800   4.132   7.032   1.629 -0.5392 -2.6111  2.4343
   61MOL   H28126801   4.016   7.023   1.752 -0.6494  0.7867  0.3459
   61MOL   H28226802   3.911   7.244   1.656 -0.2118  1.0927 -1.0835
   61MOL   H28326803   3.908   7.101   1.536  2.3231 -1.3102  0.0296
   61MOL   H28426804   3.982   7.328   1.451  1.6945  0.0100 -1.7665
   61MOL   H28526805   4.109   7.208   1.444 -0.7141 -1.0276 -0.0205
   61MOL   H28626806   4.300   7.678   1.529 -0.8875  2.2601 -0.0021
   61MOL   H28726807   4.343   7.568   1.662 -0.7538 -1.0944  0.1674
   61MOL   C28826808   4.148   7.676   1.681  0.3672  0.5272  0.2198
   61MOL   C28926809   4.007   7.681   1.609 -0.3538  0.0391  0.2774
   61MOL   C29026810   3.891   7.736   1.690 -0.1143  0.0911  0.7680
   61MOL   C29126811   3.757   7.704   1.612 -0.4581 -0.9965 -0.7410
   61MOL   C29226812   3.764   0.004   1.468  0.9833 -0.0017  0.7221
   61MOL   C29326813   3.889   7.729   1.394 -0.1360 -0.6962 -0.2071
   61MOL   C29426814   4.015   7.751   1.473 -0.0782 -0.2041 -0.3785
   61MOL   C29526815   4.191   0.040   1.724 -0.3588  0.7440 -0.3930
   61MOL   H29626816   4.128   7.613   1.768  0.9644 -1.1063 -0.7931
   61MOL   H29726817   3.980   7.580   1.579 -2.7209  0.4949  0.7495
   61MOL   H29826818   3.892   7.686   1.787  0.2724 -0.0579  0.6885
   61MOL   H29926819   3.889   0.070   1.713  0.8961  0.2596  0.0905
   61MOL   H30026820   3.734   7.598   1.606  1.2752 -1.3613 -0.9437
   61MOL   H30126821   3.674   7.760   1.657  0.3933  0.3037 -0.7602
   61MOL   H30226822   3.778   0.111   1.484 -1.1588  0.4218 -0.0277
   61MOL   H30326823   3.672   7.761   1.411  1.2349  1.3017 -0.0501
   61MOL   H30426824   3.897   7.772   1.294  1.5833  0.4374  0.3993
   61MOL   H30526825   3.877   7.624   1.366  0.1019 -0.7839  0.0189
   61MOL   H30626826   4.023   0.087   1.488  2.6249 -0.4165  0.0195
   61MOL   H30726827   4.097   7.716   1.411  0.9750  1.5806 -0.0617
   61MOL   H30826828   4.206   0.110   1.641  0.3632  0.9445 -0.0960
   61MOL   H30926829   4.116   0.088   1.787  0.3049  0.7068  0.4314
   61MOL   C31026830   4.318   0.041   1.814 -0.8254 -0.0676 -0.1487
   61MOL   C31126831   4.415   0.165   1.785  0.5396  0.2181 -0.1291
   61MOL   C31226832   4.361   0.308   1.808 -0.1532 -0.0050 -0.2886
   61MOL   C31326833   4.458   0.418   1.755  0.6976 -0.5128 -1.1993
   61MOL   C31426834   4.598   0.406   1.814 -0.7490 -0.2027  0.1199
   61MOL   C31526835   4.652   0.264   1.788 -0.0456  0.0208 -0.6778
   61MOL   C31626836   4.557   0.156   1.848 -0.3508 -0.5961  0.1007
   61MOL   C31726837   4.286   0.025   1.963  0.2453 -0.6511 -0.2883
   61MOL   H31826838   4.382   7.731   1.785 -0.2200  0.1151  0.6607
   61MOL   H31926839   4.419   0.158   1.676 -1.1785 -0.7223 -0.1478
   61MOL   H32026840   4.268   0.334   1.757 -0.0593 -1.3457 -1.1444
   61MOL   H32126841   4.346   0.331   1.914  1.3562  0.6709 -0.2098
   61MOL   H32226842   4.422   0.520   1.768  0.4028 -0.8169  0.5624
   61MOL   H32326843   4.457   0.401   1.647 -1.7790 -0.0188 -1.2826
   61MOL   H32426844   4.671   0.475   1.773 -0.3371  0.3799  1.7757
   61MOL   H32526845   4.597   0.433   1.920  0.6868  0.2447  0.0238
   61MOL   H32626846   4.642   0.251   1.680  0.9872 -0.9160 -0.6619
   61MOL   H32726847   4.753   0.251   1.827 -0.4525 -1.1717 -0.0126
   61MOL   H32826848   4.546   0.152   1.956 -0.7719 -2.7236 -0.0028
   61MOL   H32926849   4.595   0.058   1.820  0.7715  0.2444 -1.3979
   61MOL   H33026850   4.208   0.098   1.985 -0.3302 -0.9555 -1.2967
   61MOL   H33126851   4.370   0.060   2.023 -0.5673  2.4582 -0.8299
   61MOL   C33226852   4.233   7.658   2.018 -0.1263 -1.1851  0.0356
   61MOL   C33326853   4.076   7.664   2.045  0.1499  0.3933 -0.6621
   61MOL   C33426854   4.028   7.736   2.173 -0.0761  0.0140 -0.2132
   61MOL   C33526855   3.873   7.756   2.170  0.8019  0.3213 -0.8631
   61MOL   C33626856   3.801   7.625   2.148  0.3358  1.2054  0.1034
   61MOL   C33726857   3.859   7.541   2.031  0.8846 -0.4006 -0.6080
   61MOL   C33826858   4.013   7.529   2.033 -0.4952  0.1779 -0.0203
   61MOL   C33926859   4.310   7.599   2.144  0.8258  0.1068 -0.1805
   61MOL   H34026860   4.263   7.584   1.944  1.2727 -0.1929 -0.4245
   61MOL   H34126861   4.033   7.720   1.962  2.7899  1.3353 -1.4267
   61MOL   H34226862   4.042   7.678   2.264 -0.7949  0.3167  0.0941
   61MOL   H34326863   4.069   0.065   2.184  0.8436 -0.4380  0.6181
   61MOL   H34426864   3.849   0.028   2.266 -0.2719 -1.7596 -0.1385
   61MOL   H34526865   3.845   0.056   2.093  2.2363  1.5957 -0.1990
   61MOL   H34626866   3.789   7.567   2.239 -1.5381  3.0471  1.0691
   61MOL   H34726867   3.695   7.642   2.127  0.6158 -0.0292 -2.5981
   61MOL   H34826868   3.828   7.582   1.935  1.1174  0.2598 -0.4004
   61MOL   H34926869   3.829   7.436   2.040  0.4479 -0.4324 -2.3520
   61MOL   H35026870   4.045   7.480   1.941  1.3152 -0.6387  1.0094
   61MOL   H35126871   4.041   7.462   2.115 -1.7141  0.6514  0.7931
   61MOL   H35226872   4.253   7.507   2.158 -0.1145  0.7834  0.4991
   61MOL   H35326873   4.288   7.669   2.224  2.2161 -0.8190  1.0235
   61MOL   C35426874   4.461   7.579   2.157  0.9672  0.8093  0.3638
   61MOL   C35526875   4.529   7.524   2.025  0.1011  0.0947  0.1562
   61MOL   C35626876   4.476   7.381   2.003  0.8278 -0.2082  0.8114
   61MOL   C35726877   4.528   7.324   1.872  0.4137  0.0600  0.1954
   61MOL   C35826878   4.681   7.325   1.866 -0.0828 -0.4843  0.0817
   61MOL   C35926879   4.731   7.467   1.887  0.0148 -1.0683 -0.6601
   61MOL   C36026880   4.681   7.521   2.022  0.5311  0.5073 -0.3697
   61MOL   C36126881   4.482   7.508   2.294 -0.6140  0.1228 -1.0399
   61MOL   H36226882   4.501   7.679   2.176  0.4742  0.7412  1.8255
   61MOL   H36326883   4.496   7.584   1.941  1.6982  0.3283 -0.3129
   61MOL   H36426884   4.367   7.371   2.005  0.8034  0.2849  1.8857
   61MOL   H36526885   4.510   7.311   2.079  1.6011 -0.3797  0.3161
   61MOL   H36626886   4.498   7.220   1.870 -1.3637  0.5040  2.2041
   61MOL   H36726887   4.484   7.368   1.783  2.1573  1.4212 -0.0338
   61MOL   H36826888   4.708   7.255   1.946 -0.2671 -0.0705  0.5082
   61MOL   H36926889   4.715   7.278   1.774  0.5929  2.7429 -1.3686
   61MOL   H37026890   4.839   7.470   1.873  0.3869  0.1876  2.0412
   61MOL   H37126891   4.689   7.530   1.808 -2.1318 -2.2307 -0.4760
   61MOL   H37226892   4.717   7.621   2.044  1.9400 -0.2537  0.9631
   61MOL   H37326893   4.718   7.448   2.095 -1.1235  0.5166  0.4981
   61MOL   H37426894   4.449   7.406   2.274  1.6215 -1.5356  3.1849
   61MOL   H37526895   4.407   7.541   2.365 -0.4216 -1.0755 -0.2740
   61MOL   C37626896   4.621   7.507   2.362  0.0848  0.0359  0.1748
   61MOL   C37726897   4.637   7.645   2.450  0.4734  0.4074 -0.4913
   61MOL   C37826898   4.777   7.707   2.435  0.2677  0.4307  0.0191
   61MOL   C37926899   4.794   0.065   2.516 -0.1296 -0.3110 -0.3561
   61MOL   C38026900   4.760   0.042   2.663  1.2964 -0.5010 -0.2555
   61MOL   C38126901   4.616   7.760   2.672  0.2405  0.2250  0.4091
   61MOL   C38226902   4.594   7.630   2.596  0.6498 -0.0829  0.1995
   61MOL   C38326903   4.641   7.382   2.451  0.3237  0.2395  0.6162
   61MOL   H38426904   4.703   7.510   2.291 -0.0314  1.6760  0.0868
   61MOL   H38526905   4.573   7.723   2.407 -1.1625 -0.3813  0.4650
   61MOL   H38626906   4.855   7.640   2.471 -1.2565 -1.9372 -0.9386
   61MOL   H38726907   4.789   7.730   2.329 -0.3132  1.8687  0.2627
   61MOL   H38826908   4.730   0.141   2.473  1.5947  0.5517 -1.4670
   61MOL   H38926909   4.897   0.102   2.514  0.8743 -3.0491 -2.3430
   61MOL   H39026910   4.835   7.744   2.700 -0.1085 -1.7433  0.3326
   61MOL   H39126911   4.773   0.137   2.714 -1.8976  0.3839 -0.9762
   61MOL   H39226912   4.584   7.746   2.775  0.5907  0.0506  0.4932
   61MOL   H39326913   4.548   0.066   2.636 -0.2030 -0.4823 -0.2985
   61MOL   H39426914   4.633   7.551   2.659 -4.7570 -1.2458  2.3502
   61MOL   H39526915   4.489   7.601   2.594  0.8453 -0.7186 -0.9684
   61MOL   H39626916   4.557   7.383   2.521  0.6004  1.6610  0.9671
   61MOL   H39726917   4.729   7.390   2.515 -0.6201 -1.3600  2.1381
   61MOL   C39826918   4.660   7.238   2.384  0.0303  0.7003 -0.1828
   61MOL   C39926919   4.803   7.237   2.317  0.1740  0.0053  0.9216
   61MOL   C40026920   4.917   7.242   2.419 -0.4432  0.0854 -0.0764
   61MOL   C40126921   5.060   7.235   2.355 -0.3491  0.1645  0.6615
   61MOL   C40226922   5.068   7.110   2.265  0.4407 -0.3538  0.7313
   61MOL   C40326923   4.961   7.121   2.149  0.4992 -0.2328  0.0183
   61MOL   C40426924   4.818   7.118   2.214  0.5238 -1.3766  0.2721
   61MOL   C40526925   4.638   7.124   2.486  0.3542 -0.1613 -0.2698
   61MOL   H40626926   4.590   7.229   2.302  0.3943  0.1022 -0.4275
   61MOL   H40726927   4.814   7.328   2.258 -1.2126 -0.0691  0.5293
   61MOL   H40826928   4.910   7.160   2.490  0.3764 -1.1764 -1.4145
   61MOL   H40926929   4.918   7.328   2.486  0.2307 -0.2846  0.3982
   61MOL   H41026930   5.132   7.233   2.437 -1.3820 -2.4973  1.5613
   61MOL   H41126931   5.080   7.324   2.296  1.5040 -0.8541 -0.2832
   61MOL   H41226932   5.043   7.026   2.331  0.7619 -0.2389  1.0018
   61MOL   H41326933   5.167   7.104   2.219  1.0074 -0.3885  1.9100
   61MOL   H41426934   4.981   7.217   2.100 -2.4601  0.7802  0.6585
   61MOL   H41526935   4.974   7.033   2.086 -0.1126  0.2485 -0.8006
   61MOL   H41626936   4.747   7.134   2.133  1.6608 -0.6408 -0.6036
   61MOL   H41726937   4.807   7.016   2.251 -0.0823 -1.2482  0.4461
   61MOL   H41826938   4.704   7.038   2.472  1.0715  0.7430 -2.6685
   61MOL   H41926939   4.686   7.155   2.579 -0.5744  2.2916 -0.5943
   61MOL   C42026940   4.499   7.077   2.517 -0.2258  0.2443 -0.2943
   61MOL   C42126941   4.494   6.971   2.630 -0.5015  0.4769 -0.2134
   61MOL   C42226942   4.510   6.824   2.582  0.0194 -0.5488 -0.2728
   61MOL   C42326943   4.523   6.721   2.703 -0.2826  0.0124 -0.1073
   61MOL   C42426944   4.405   6.739   2.798 -0.3961  0.1081 -1.1964
   61MOL   C42526945   4.384   6.885   2.848 -0.0937 -0.2163 -0.2198
   61MOL   C42626946   4.368   6.979   2.726  0.1419 -0.0017 -0.5281
   61MOL   C42726947   4.421   7.039   2.390 -0.3993 -0.4385  0.4419
   61MOL   H42826948   4.460   7.168   2.562  1.4325  0.1608  1.3728
   61MOL   H42926949   4.574   6.996   2.699 -1.4019  0.2722  0.9288
   61MOL   H43026950   4.430   6.779   2.523  2.1981 -1.7822 -2.3977
   61MOL   H43126951   4.593   6.814   2.512  0.3646 -1.0096  0.1974
   61MOL   H43226952   4.523   6.615   2.681 -2.2717  0.5394 -2.9853
   61MOL   H43326953   4.613   6.745   2.760  0.2340  2.1300 -1.7369
   61MOL   H43426954   4.419   6.669   2.880  0.9859  0.8447 -0.7936
   61MOL   H43526955   4.316   6.703   2.745  1.6412 -2.8073 -2.7280
   61MOL   H43626956   4.476   6.908   2.901  1.9763 -3.0202 -2.4225
   61MOL   H43726957   4.300   6.884   2.916  0.9769  1.8349  1.1929
   61MOL   H43826958   4.268   6.970   2.685  0.9482 -0.8632 -2.3349
   61MOL   H43926959   4.369   7.080   2.768  0.6528  1.0187 -2.9424
   61MOL   H44026960   4.386   7.127   2.335  1.7465 -0.5650 -1.1748
   61MOL   H44126961   4.484   6.971   2.333 -0.8172  0.3402 -0.9974
   61MOL   H44226962   4.330   6.988   2.422 -0.0767 -0.6012  1.1054
   62MOL     C126963   1.738   3.183   5.635  0.1633  0.0170  0.5326
   62MOL     C226964   1.666   3.043   5.642  0.8330  0.2416 -0.0045
   62MOL     C326965   1.649   2.993   5.786 -0.4492 -0.0783 -0.7614
   62MOL     C426966   1.569   2.862   5.795 -0.2292  0.2733  0.3479
   62MOL     C526967   1.645   2.747   5.721 -0.2836 -0.8699 -0.0277
   62MOL     C626968   1.653   2.801   5.576 -0.5451 -1.2487 -0.5305
   62MOL     C726969   1.736   2.933   5.568 -0.5288  0.4696 -0.7416
   62MOL     C826970   1.731   3.256   5.503 -0.4397  0.2671  0.1838
   62MOL     H926971   1.699   3.242   5.718 -0.0800 -0.0893  0.4940
   62MOL    H1026972   1.564   3.051   5.604  1.5655  0.5007 -1.9613
   62MOL    H1126973   1.744   2.982   5.839 -0.9873  2.4418  0.8068
   62MOL    H1226974   1.593   3.063   5.848 -1.4333  0.6700 -2.4622
   62MOL    H1326975   1.467   2.874   5.759 -0.1613 -0.1131  0.0205
   62MOL    H1426976   1.569   2.842   5.902 -0.7605  0.1376  0.3217
   62MOL    H1526977   1.588   2.654   5.721 -1.0685 -0.4472 -2.7600
   62MOL    H1626978   1.750   2.735   5.748 -0.6276 -0.0378  1.7212
   62MOL    H1726979   1.707   2.731   5.512 -1.2621 -1.0025 -1.4207
   62MOL    H1826980   1.554   2.809   5.531 -0.0025  0.5158 -1.4843
   62MOL    H1926981   1.738   2.953   5.461  1.2318 -1.6006 -1.1256
   62MOL    H2026982   1.839   2.924   5.601 -0.0594  0.8079 -2.1040
   62MOL    H2126983   1.628   3.262   5.469 -0.7708 -0.5868  1.0231
   62MOL    H2226984   1.777   3.205   5.419 -1.1638  0.6772 -0.4744
   62MOL    H2326985   1.843   3.179   5.666 -0.0940 -1.3845  1.3188
   62MOL    C2426986   1.802   3.399   5.498  0.4699  0.1989  0.6148
   62MOL    C2526987   1.951   3.409   5.536 -0.2145  0.4059 -0.1284
   62MOL    C2626988   2.005   3.549   5.541 -0.0107  0.2788 -0.0991
   62MOL    C2726989   2.162   3.564   5.561 -0.5942 -0.5009  0.6859
   62MOL    C2826990   2.241   3.473   5.468 -0.7578 -0.3507 -0.9238
   62MOL    C2926991   2.182   3.328   5.457 -0.6381  0.0907 -0.1336
   62MOL    C3026992   2.035   3.330   5.436 -0.3527 -0.4960 -0.2060
   62MOL    C3126993   1.758   3.464   5.362 -0.5620 -0.3039  0.1450
   62MOL    H3226994   1.747   3.451   5.577 -0.1823  0.5468 -0.0587
   62MOL    H3326995   1.960   3.371   5.638  1.3432 -1.8113 -1.0334
   62MOL    H3426996   1.965   3.602   5.628  2.9980  1.8160  0.4327
   62MOL    H3526997   1.960   3.598   5.455 -0.2820  1.7080  0.8375
   62MOL    H3626998   2.188   3.669   5.548 -2.3582 -0.0377  0.7042
   62MOL    H3726999   2.182   3.530   5.663 -2.0918  1.3250  1.6132
   62MOL    H3827000   2.346   3.472   5.497 -0.8604 -1.1351 -0.5644
   62MOL    H3927001   2.237   3.511   5.366 -1.6372  0.5493 -0.5712
   62MOL    H4027002   2.238   3.264   5.388 -2.4182 -2.2359  0.5027
   62MOL    H4127003   2.197   3.281   5.555  1.9493 -0.9069 -0.9561
   62MOL    H4227004   2.022   3.369   5.335 -0.0483  0.4327  0.1100
   62MOL    H4327005   2.000   3.228   5.447  0.2644 -0.6692  0.1679
   62MOL    H4427006   1.748   3.390   5.282 -0.8631  0.3832 -0.4559
   62MOL    H4527007   1.843   3.517   5.318 -1.9316  1.4195 -0.4683
   62MOL    C4627008   1.626   3.544   5.369 -0.0222 -0.6343  0.5530
   62MOL    C4727009   1.525   3.529   5.253  0.0512  0.6124 -0.2991
   62MOL    C4827010   1.449   3.395   5.260  0.8273  0.3977  0.4311
   62MOL    C4927011   1.350   3.374   5.143  0.0301  0.3340 -0.5181
   62MOL    C5027012   1.403   3.415   5.009 -0.5685 -0.6309 -0.3656
   62MOL    C5127013   1.467   3.558   5.015 -0.7196 -0.8284  0.1647
   62MOL    C5227014   1.576   3.563   5.111  0.0668 -0.0494 -0.2308
   62MOL    C5327015   1.669   3.700   5.403  0.2072 -0.6227  0.2189
   62MOL    H5427016   1.588   3.486   5.454 -0.4603 -0.1185  0.7091
   62MOL    H5527017   1.441   3.597   5.266 -0.8578 -0.4220 -0.6224
   62MOL    H5627018   1.532   3.326   5.239  2.0229  2.2081 -0.9754
   62MOL    H5727019   1.412   3.373   5.360  1.7903 -1.1772  0.4606
   62MOL    H5827020   1.256   3.424   5.167 -0.8391 -1.2127 -0.6529
   62MOL    H5927021   1.322   3.269   5.152  2.4727 -0.2475  0.9786
   62MOL    H6027022   1.481   3.349   4.970  1.4102  1.1278  0.5424
   62MOL    H6127023   1.327   3.428   4.932 -0.8707  0.3209  0.0880
   62MOL    H6227024   1.391   3.631   5.044 -0.4643 -0.8374  0.8540
   62MOL    H6327025   1.504   3.578   4.915 -0.5395 -1.6832  0.0558
   62MOL    H6427026   1.653   3.489   5.087  0.0409  0.3218 -1.5205
   62MOL    H6527027   1.623   3.661   5.107  0.2609 -0.1338 -0.0390
   62MOL    H6627028   1.694   3.741   5.304 -0.2501 -0.0241  0.3462
   62MOL    H6727029   1.762   3.706   5.460 -0.1363 -0.4126  0.7581
   62MOL    C6827030   1.555   3.783   5.463  0.2376  0.1809 -1.0426
   62MOL    C6927031   1.507   3.740   5.605  0.0283 -0.7285 -0.0763
   62MOL    C7027032   1.624   3.712   5.704 -0.0282  0.2360 -0.0181
   62MOL    C7127033   1.579   3.662   5.846 -0.3791  0.0943  0.1568
   62MOL    C7227034   1.481   3.765   5.906 -0.4376 -0.0111  0.9844
   62MOL    C7327035   1.360   3.780   5.809 -0.4164  0.6292 -0.0578
   62MOL    C7427036   1.405   3.833   5.669  0.1296 -0.4292 -0.8115
   62MOL    C7527037   1.590   3.932   5.454 -1.0001 -0.3754 -0.3077
   62MOL    H7627038   1.468   3.763   5.400 -0.1779 -0.9960 -0.1109
   62MOL    H7727039   1.458   3.643   5.596 -0.4255 -0.6268  1.2221
   62MOL    H7827040   1.688   3.800   5.711 -2.7457  2.2700  0.1562
   62MOL    H7927041   1.689   3.633   5.666 -2.4677 -1.9365  0.1446
   62MOL    H8027042   1.535   3.562   5.849  0.1210 -0.1133  0.7280
   62MOL    H8127043   1.662   3.639   5.914  0.2287  1.1026 -0.2410
   62MOL    H8227044   1.532   3.860   5.925  0.6927 -0.4264  0.1020
   62MOL    H8327045   1.459   3.723   6.004  0.3769  0.4031  1.3480
   62MOL    H8427046   1.285   3.851   5.844 -0.5666 -0.6499  2.3494
   62MOL    H8527047   1.297   3.690   5.809  0.8298 -0.2539  0.5093
   62MOL    H8627048   1.449   3.932   5.682  2.1669 -1.4000  0.0436
   62MOL    H8727049   1.320   3.836   5.602  1.5946  1.2733 -2.6460
   62MOL    H8827050   1.507   3.992   5.492 -0.8413 -1.1300  1.2842
   62MOL    H8927051   1.680   3.960   5.511 -0.5441 -0.3895 -1.0189
   62MOL    C9027052   1.608   3.997   5.307  0.6438 -0.1992  0.0307
   62MOL    C9127053   1.488   3.972   5.201 -0.4550 -0.3854  0.3777
   62MOL    C9227054   1.364   4.057   5.228  0.3999  0.1835  0.0732
   62MOL    C9327055   1.256   4.029   5.130 -0.1357  0.6811 -0.5304
   62MOL    C9427056   1.304   4.035   4.983 -0.1164 -0.1623 -0.5242
   62MOL    C9527057   1.429   3.949   4.962 -0.1785  0.5967 -0.3543
   62MOL    C9627058   1.540   3.986   5.060  0.6762  0.1362  0.7065
   62MOL    C9727059   1.649   4.146   5.307 -0.0409  0.2100  0.7173
   62MOL    H9827060   1.688   3.940   5.260  0.4470 -1.0070  0.6506
   62MOL    H9927061   1.464   3.865   5.207  0.3461 -0.7149 -1.8597
   62MOL   H10027062   1.383   4.164   5.232 -1.2702  0.4631  1.0757
   62MOL   H10127063   1.327   4.026   5.326 -0.2639  0.7100 -0.0139
   62MOL   H10227064   1.163   4.083   5.145 -1.0705 -1.4392  1.4592
   62MOL   H10327065   1.223   3.927   5.148  1.1932  0.7541  2.6947
   62MOL   H10427066   1.319   4.139   4.955  0.1660 -0.2261 -0.6141
   62MOL   H10527067   1.218   4.009   4.922 -0.6148  1.3792 -0.4956
   62MOL   H10627068   1.408   3.842   4.969  1.9322  0.1855  0.1491
   62MOL   H10727069   1.475   3.971   4.866  2.8471  3.1423  1.5694
   62MOL   H10827070   1.625   3.921   5.041  1.3112  1.7217 -2.1908
   62MOL   H10927071   1.580   4.083   5.033 -0.8849  0.4670 -0.4961
   62MOL   H11027072   1.678   4.167   5.204 -1.9728 -0.3715  0.0479
   62MOL   H11127073   1.563   4.212   5.320  1.7929  2.7086  0.4854
   62MOL   C11227074   1.774   4.190   5.385 -0.2978  0.1540  0.0317
   62MOL   C11327075   1.791   4.346   5.376 -0.5523 -0.1092  0.4690
   62MOL   C11427076   1.667   4.432   5.392 -0.0259  0.4156  0.0689
   62MOL   C11527077   1.695   4.581   5.382  0.1708  0.4149 -1.0738
   62MOL   C11627078   1.767   4.617   5.256  0.2048 -0.3512 -0.4814
   62MOL   C11727079   1.895   4.535   5.242 -0.4580  0.2939  0.4909
   62MOL   C11827080   1.869   4.384   5.253  0.2676 -0.2511  0.0681
   62MOL   C11927081   1.903   4.096   5.372 -0.4253  0.7941 -0.3258
   62MOL   H12027082   1.747   4.173   5.490  1.9436 -1.1927  0.4326
   62MOL   H12127083   1.851   4.381   5.460 -0.1873  4.8360 -1.6797
   62MOL   H12227084   1.614   4.405   5.484 -0.6199  0.3416 -0.2913
   62MOL   H12327085   1.591   4.424   5.314 -0.9740  2.8521  0.6782
   62MOL   H12427086   1.602   4.638   5.383 -1.6003 -2.3691 -2.2603
   62MOL   H12527087   1.762   4.608   5.464  0.0116 -1.6044 -0.2423
   62MOL   H12627088   1.707   4.578   5.175 -0.9992  0.4372  0.0170
   62MOL   H12727089   1.786   4.723   5.243 -1.3839 -0.0483 -0.4766
   62MOL   H12827090   1.936   4.560   5.144 -1.9297  2.4056  0.3882
   62MOL   H12927091   1.971   4.547   5.319 -0.7663 -4.1137  1.5914
   62MOL   H13027092   1.967   4.337   5.248 -1.0380 -3.0601  0.3331
   62MOL   H13127093   1.813   4.361   5.163  1.6609 -1.2649 -0.5602
   62MOL   H13227094   1.947   4.107   5.273  0.2366 -0.6794 -0.2015
   62MOL   H13327095   1.872   3.992   5.383 -0.9997  1.1102  1.2764
   62MOL   C13427096   2.007   4.110   5.481 -0.8969  0.5296 -0.1102
   62MOL   C13527097   2.146   4.056   5.423 -0.1924 -0.1944 -0.0514
   62MOL   C13627098   2.230   4.139   5.315  0.0678 -0.4309  0.6629
   62MOL   C13727099   2.372   4.073   5.292 -0.1291  0.3575 -0.0649
   62MOL   C13827100   2.357   3.941   5.223  0.3412  0.3339 -0.0574
   62MOL   C13927101   2.271   3.849   5.317  0.5601 -0.9026 -0.6990
   62MOL   C14027102   2.142   3.912   5.366  0.8115  0.8407 -0.0062
   62MOL   C14127103   1.965   4.046   5.610 -0.0549 -0.6186 -0.4172
   62MOL   H14227104   2.012   4.215   5.510 -1.2313 -0.1645  2.6309
   62MOL   H14327105   2.213   4.070   5.507  0.5354 -1.0230 -0.4807
   62MOL   H14427106   2.178   4.148   5.220  0.0035  0.9809  0.8189
   62MOL   H14527107   2.249   4.244   5.339 -1.4299  0.1125 -0.4215
   62MOL   H14627108   2.434   4.061   5.381  0.4646 -1.5867 -0.7014
   62MOL   H14727109   2.445   4.133   5.239 -1.5522  0.4733 -1.9575
   62MOL   H14827110   2.300   3.948   5.131  1.4936 -2.2692 -0.9865
   62MOL   H14927111   2.455   3.896   5.210  0.3330  0.7150 -1.4807
   62MOL   H15027112   2.321   3.826   5.412  1.5573  1.7014 -0.5451
   62MOL   H15127113   2.255   3.753   5.270 -0.4619 -0.2796 -1.6449
   62MOL   H15227114   2.090   3.912   5.270  2.4400 -0.6120 -0.9120
   62MOL   H15327115   2.080   3.847   5.428 -0.3352  0.6909 -1.2795
   62MOL   H15427116   1.967   3.938   5.602 -3.3696 -0.7244 -0.3630
   62MOL   H15527117   1.861   4.069   5.634  0.2577  0.1189  0.2722
   62MOL   C15627118   2.056   4.083   5.734 -0.0364  0.8936 -0.0426
   62MOL   C15727119   2.045   3.984   5.852 -0.2105 -0.2918 -0.6448
   62MOL   C15827120   1.901   3.953   5.888 -0.0498 -0.2090  0.1113
   62MOL   C15927121   1.882   3.844   6.000 -0.8189 -0.2001 -0.1942
   62MOL   C16027122   1.952   3.714   5.963 -0.0068 -0.6381  0.6396
   62MOL   C16127123   2.106   3.744   5.930 -0.0208  0.4718  0.2363
   62MOL   C16227124   2.114   3.850   5.816  0.0031 -0.0785  0.1173
   62MOL   C16327125   2.035   4.232   5.783  0.2728  1.3221 -0.0078
   62MOL   H16427126   2.161   4.072   5.707  0.0051 -0.0600  0.4931
   62MOL   H16527127   2.100   4.029   5.934 -0.7839  0.4813 -0.6802
   62MOL   H16627128   1.852   4.048   5.905  1.0094  0.3020  0.3972
   62MOL   H16727129   1.852   3.914   5.799 -2.4268  1.4716  0.6508
   62MOL   H16827130   1.931   3.891   6.085 -0.4209 -1.0541  0.0481
   62MOL   H16927131   1.775   3.823   6.010 -1.5402  2.0798 -2.5385
   62MOL   H17027132   1.919   3.680   5.865 -2.8446  1.5648  0.7694
   62MOL   H17127133   1.938   3.637   6.039 -0.8385 -1.1453 -0.0231
   62MOL   H17227134   2.150   3.651   5.895 -0.2140 -0.6543  2.8861
   62MOL   H17327135   2.157   3.771   6.022  0.7510 -1.8448  0.5256
   62MOL   H17427136   2.220   3.860   5.795  0.6749 -1.1728  2.8610
   62MOL   H17527137   2.070   3.802   5.728 -0.8075  0.6789  0.1055
   62MOL   H17627138   2.017   4.238   5.891 -1.1965 -0.5054 -0.1292
   62MOL   H17727139   1.941   4.268   5.743 -0.4201  2.0202  2.1854
   62MOL   C17827140   2.156   4.325   5.774 -0.0177 -1.1560 -0.8046
   62MOL   C17927141   2.121   4.471   5.804 -0.0655  0.0488 -0.5821
   62MOL   C18027142   2.061   4.490   5.941  0.5255 -0.5167 -0.6982
   62MOL   C18127143   2.042   4.642   5.967 -0.2378 -0.0893 -0.0998
   62MOL   C18227144   1.951   4.707   5.868 -0.2415 -0.0794  0.3570
   62MOL   C18327145   2.006   4.679   5.729 -0.2112 -0.2751 -0.2735
   62MOL   C18427146   2.036   4.531   5.695  0.2507  0.0837 -0.5274
   62MOL   C18527147   2.276   4.283   5.863  0.4563 -0.0921 -0.3178
   62MOL   H18627148   2.191   4.332   5.671  0.8037  0.1077 -0.4521
   62MOL   H18727149   2.215   4.527   5.806 -0.9218  1.5315 -1.3862
   62MOL   H18827150   1.967   4.435   5.935  1.4933 -2.3821  0.6412
   62MOL   H18927151   2.121   4.457   6.026  1.0110  1.1800 -0.3579
   62MOL   H19027152   2.139   4.689   5.959 -0.5538  0.5321 -0.3105
   62MOL   H19127153   2.019   4.670   6.070  2.2269  1.6118  0.0331
   62MOL   H19227154   1.850   4.670   5.885 -0.6064  1.8011  2.6669
   62MOL   H19327155   1.964   4.812   5.894  2.2172 -0.4835  0.8970
   62MOL   H19427156   2.098   4.736   5.717 -0.6026  0.4940  0.2960
   62MOL   H19527157   1.935   4.720   5.658 -0.6833  1.0605  0.9365
   62MOL   H19627158   1.935   4.490   5.690 -0.5921  1.9258  0.5928
   62MOL   H19727159   2.078   4.519   5.596 -0.0034 -2.4392 -0.3477
   62MOL   H19827160   2.281   4.348   5.950 -0.6893 -0.2528 -0.1368
   62MOL   H19927161   2.246   4.191   5.912  0.4711  1.6321  3.0416
   62MOL   C20027162   2.416   4.261   5.791 -0.7627  0.5447  0.0745
   62MOL   C20127163   2.470   4.385   5.713 -0.1626  0.1997  0.3465
   62MOL   C20227164   2.505   4.507   5.807  0.0803 -0.0516 -0.2282
   62MOL   C20327165   2.555   4.637   5.729  0.0247 -0.2117 -0.0179
   62MOL   C20427166   2.643   4.615   5.609 -0.1636  0.3370 -0.1284
   62MOL   C20527167   2.606   4.487   5.525  0.1268 -0.2431  0.4323
   62MOL   C20627168   2.584   4.359   5.616 -0.0103 -0.0575  1.0594
   62MOL   C20727169   2.528   4.211   5.881  0.0835 -0.0115  0.4436
   62MOL   H20827170   2.400   4.188   5.712  3.1987 -0.6488  0.2549
   62MOL   H20927171   2.382   4.406   5.653 -1.0131 -5.0451 -0.5210
   62MOL   H21027172   2.595   4.492   5.865 -0.5096  0.0536  0.7147
   62MOL   H21127173   2.426   4.537   5.875 -1.1778 -0.8277 -1.3215
   62MOL   H21227174   2.463   4.683   5.693 -1.3994 -2.7901  0.1904
   62MOL   H21327175   2.599   4.709   5.798 -0.4449 -1.3849  1.5614
   62MOL   H21427176   2.637   4.701   5.543  2.3147  1.3676  0.9264
   62MOL   H21527177   2.746   4.598   5.640 -0.3037  1.8433  1.2342
   62MOL   H21627178   2.508   4.509   5.483  0.2258  0.0066  0.3318
   62MOL   H21727179   2.678   4.471   5.445 -0.7954  0.1782 -0.4997
   62MOL   H21827180   2.569   4.278   5.545 -1.1890 -0.6772  1.9896
   62MOL   H21927181   2.673   4.330   5.672  0.4322  1.5452  1.2055
   62MOL   H22027182   2.630   4.237   5.855  0.5219 -1.1437  1.0046
   62MOL   H22127183   2.513   4.281   5.963  1.2891 -0.0460  0.6963
   62MOL   C22227184   2.527   4.055   5.910  0.1411 -0.3335  0.1127
   62MOL   C22327185   2.594   3.969   5.803 -0.0171  0.5948  0.4176
   62MOL   C22427186   2.728   4.021   5.737  1.0275 -0.2697 -0.0073
   62MOL   C22527187   2.798   3.926   5.639 -0.6425  0.0218 -0.4641
   62MOL   C22627188   2.697   3.886   5.531 -0.1758  0.3575 -0.5471
   62MOL   C22727189   2.574   3.825   5.595  0.2590  0.4062 -0.3937
   62MOL   C22827190   2.502   3.925   5.689 -0.1482 -0.5918  0.0656
   62MOL   C22927191   2.583   4.030   6.054  0.9959 -0.1397 -0.0250
   62MOL   H23027192   2.423   4.022   5.918 -0.1092  1.0969  3.8986
   62MOL   H23127193   2.630   3.882   5.857 -1.1653 -0.0007  0.2564
   62MOL   H23227194   2.718   4.117   5.687  0.6071 -0.1465  0.3051
   62MOL   H23327195   2.799   4.055   5.813 -1.5323 -0.7861  2.7263
   62MOL   H23427196   2.832   3.838   5.693 -2.4175 -0.3340  0.1287
   62MOL   H23527197   2.886   3.972   5.596 -1.7194  0.4027 -2.3265
   62MOL   H23627198   2.681   3.974   5.469 -0.8427  0.6203 -0.0122
   62MOL   H23727199   2.750   3.815   5.468  1.6154  2.0432 -0.9589
   62MOL   H23827200   2.603   3.733   5.645 -0.0977  0.8045  0.5425
   62MOL   H23927201   2.508   3.793   5.514  1.5935 -0.7713 -1.0408
   62MOL   H24027202   2.455   4.000   5.626 -0.8835 -1.2949 -0.2248
   62MOL   H24127203   2.420   3.872   5.738 -0.6037 -0.1117 -0.1738
   62MOL   H24227204   2.673   4.090   6.050 -0.3297  1.8181 -2.5521
   62MOL   H24327205   2.622   3.929   6.070 -1.2738 -0.9142  0.8590
   62MOL   C24427206   2.494   4.061   6.178 -0.8578 -0.4132  0.4411
   62MOL   C24527207   2.566   4.124   6.293  0.0941  0.0686  0.2627
   62MOL   C24627208   2.630   4.260   6.257  0.2664  0.0076  0.1939
   62MOL   C24727209   2.674   4.334   6.380 -0.1017 -0.2101 -0.1094
   62MOL   C24827210   2.772   4.254   6.464  0.1365  0.2072 -0.6234
   62MOL   C24927211   2.722   4.106   6.484 -0.1365 -0.1832  0.4888
   62MOL   C25027212   2.672   4.036   6.357 -0.4251 -0.0307  0.5820
   62MOL   C25127213   2.395   3.944   6.212 -0.7215 -0.1802  0.1106
   62MOL   H25227214   2.441   4.146   6.135  0.0453  0.0536  0.2281
   62MOL   H25327215   2.487   4.153   6.362 -2.1446 -1.2446 -1.7084
   62MOL   H25427216   2.550   4.320   6.215 -1.4180 -0.6809  2.3261
   62MOL   H25527217   2.708   4.249   6.181 -1.1327  1.5201 -1.4967
   62MOL   H25627218   2.730   4.423   6.354 -0.5908  0.1195 -0.0526
   62MOL   H25727219   2.586   4.351   6.442  0.3956  0.9256  0.2987
   62MOL   H25827220   2.867   4.263   6.411  0.6224  2.5460  0.5738
   62MOL   H25927221   2.775   4.292   6.566  0.8838  0.3744 -0.6998
   62MOL   H26027222   2.639   4.116   6.554  1.9152 -0.5525  3.0700
   62MOL   H26127223   2.789   4.044   6.543  0.5150  0.1491  0.1025
   62MOL   H26227224   2.765   4.036   6.300  0.0352  1.0128  1.3164
   62MOL   H26327225   2.625   3.938   6.368 -2.5072  0.8452 -0.3754
   62MOL   H26427226   2.461   3.858   6.226 -0.1901 -0.0114 -1.2572
   62MOL   H26527227   2.324   3.920   6.132  0.1750  1.5960 -1.2326
   62MOL   C26627228   2.316   3.957   6.344  0.0149  0.2156  0.3039
   62MOL   C26727229   2.226   4.083   6.342  0.6381 -0.7845  0.1277
   62MOL   C26827230   2.163   4.124   6.474  0.2512 -0.6718 -0.2973
   62MOL   C26927231   2.103   4.262   6.453 -0.4769 -0.0037  0.3415
   62MOL   C27027232   1.993   4.263   6.342 -0.0500  0.6624  0.3883
   62MOL   C27127233   2.039   4.207   6.210 -0.0626  0.4443 -0.0376
   62MOL   C27227234   2.115   4.077   6.231 -0.1945  0.3610 -0.5300
   62MOL   C27327235   2.242   3.822   6.368  0.1611  0.7002  0.0452
   62MOL   H27427236   2.390   3.959   6.424 -0.0166 -0.2189  0.3419
   62MOL   H27527237   2.296   4.162   6.315 -1.3678  0.6861 -0.8834
   62MOL   H27627238   2.091   4.061   6.527  0.5506  0.6662  1.8076
   62MOL   H27727239   2.242   4.140   6.548 -0.4742 -0.2059  0.3954
   62MOL   H27827240   2.180   4.333   6.424  1.3247 -0.8612  2.8994
   62MOL   H27927241   2.063   4.296   6.548  1.0132 -0.0611  1.0008
   62MOL   H28027242   1.910   4.201   6.376  1.1530 -0.5241  1.2211
   62MOL   H28127243   1.965   4.367   6.331  0.3751  0.7040 -0.3284
   62MOL   H28227244   2.106   4.287   6.178  1.2001 -0.9642 -0.9622
   62MOL   H28327245   1.961   4.197   6.134 -2.7477  1.0701  2.5451
   62MOL   H28427246   2.155   4.054   6.133 -3.1561 -1.3117 -1.4058
   62MOL   H28527247   2.048   3.995   6.258  1.0435 -0.4307  0.1527
   62MOL   H28627248   2.184   3.788   6.282 -0.5600  0.5715  0.5757
   62MOL   H28727249   2.170   3.832   6.450  0.1570 -1.8169  0.3817
   62MOL   C28827250   2.331   3.699   6.418  0.0277  0.9589 -0.0237
   62MOL   C28927251   2.246   3.570   6.415  0.8647  0.3785  0.9629
   62MOL   C29027252   2.118   3.571   6.500  0.1816  0.1643 -0.2670
   62MOL   C29127253   2.068   3.424   6.501 -0.6491 -0.1519 -0.2049
   62MOL   C29227254   2.043   3.370   6.361 -0.3647  0.2758 -0.8162
   62MOL   C29327255   2.172   3.384   6.274 -0.0948 -0.1867 -0.1845
   62MOL   C29427256   2.215   3.526   6.268 -0.2366  0.0716  0.4236
   62MOL   C29527257   2.407   3.718   6.549 -0.5037  0.1884  1.1502
   62MOL   H29627258   2.411   3.679   6.346 -1.9828 -3.3283 -1.2439
   62MOL   H29727259   2.310   3.490   6.449  0.3024 -1.2449 -1.6232
   62MOL   H29827260   2.139   3.621   6.594 -1.6587  0.9294 -0.2434
   62MOL   H29927261   2.044   3.637   6.455  0.1787 -0.9863 -2.0012
   62MOL   H30027262   2.150   3.369   6.546  0.6624  1.5476 -0.4517
   62MOL   H30127263   1.988   3.414   6.574 -1.8432 -4.3359 -1.9677
   62MOL   H30227264   1.963   3.416   6.303 -0.5885  0.5184 -0.3169
   62MOL   H30327265   2.015   3.265   6.362 -2.1336  0.7125 -1.5285
   62MOL   H30427266   2.149   3.347   6.175 -2.0140  0.0955  0.1455
   62MOL   H30527267   2.255   3.321   6.306  1.1087  1.2818 -0.3147
   62MOL   H30627268   2.131   3.574   6.217 -0.6503 -1.9016 -0.8203
   62MOL   H30727269   2.307   3.521   6.211  0.2191  1.1394  1.0501
   62MOL   H30827270   2.418   3.826   6.565 -0.5128  0.5687 -1.2600
   62MOL   H30927271   2.356   3.674   6.635  0.1698 -2.5765  0.1608
   62MOL   C31027272   2.559   3.679   6.549 -0.3137 -0.5237  0.4532
   62MOL   C31127273   2.632   3.758   6.664 -0.1802 -0.2732 -0.6523
   62MOL   C31227274   2.586   3.726   6.810  0.4127  0.1642  0.0548
   62MOL   C31327275   2.664   3.807   6.916 -0.3336  0.3523 -0.6056
   62MOL   C31427276   2.820   3.802   6.901 -0.2427 -0.1287  0.0545
   62MOL   C31527277   2.866   3.833   6.759  0.1741  0.2066  0.4864
   62MOL   C31627278   2.789   3.750   6.653  0.0534 -0.4004 -0.8360
   62MOL   C31727279   2.580   3.530   6.566 -0.1788  0.0229 -0.0395
   62MOL   H31827280   2.603   3.710   6.454 -1.4028 -1.7323 -0.4785
   62MOL   H31927281   2.609   3.865   6.659 -1.6135 -0.5531 -0.4020
   62MOL   H32027282   2.480   3.737   6.830  0.2701  1.4651 -1.3625
   62MOL   H32127283   2.613   3.625   6.841  0.9746  0.8208  1.7627
   62MOL   H32227284   2.636   3.778   7.017 -0.7903  1.8039 -0.3020
   62MOL   H32327285   2.637   3.911   6.893  1.2212  0.9859  0.3436
   62MOL   H32427286   2.867   3.863   6.978  0.0828 -0.3672  0.0457
   62MOL   H32527287   2.843   3.699   6.929 -1.1574 -0.0681  1.0614
   62MOL   H32627288   2.858   3.940   6.742  1.1076  0.0034 -1.3618
   62MOL   H32727289   2.968   3.794   6.753  0.6118  1.1582  1.5097
   62MOL   H32827290   2.822   3.646   6.663 -2.6491 -1.3186 -1.2681
   62MOL   H32927291   2.823   3.780   6.554 -0.4961  0.3505 -0.7949
   62MOL   H33027292   2.480   3.490   6.582  0.2701 -1.0766  0.0991
   62MOL   H33127293   2.644   3.503   6.649 -0.0865 -0.1868 -0.1786
   62MOL   C33227294   2.625   3.447   6.441 -0.1848 -0.8088 -0.1874
   62MOL   C33327295   2.561   3.302   6.432  0.0398 -0.1429 -0.1626
   62MOL   C33427296   2.608   3.215   6.555  0.0080 -0.8085 -0.5903
   62MOL   C33527297   2.543   3.076   6.562 -0.1000 -0.2837 -0.9571
   62MOL   C33627298   2.537   3.001   6.432  0.1005 -0.0214  0.3310
   62MOL   C33727299   2.485   3.094   6.319 -0.2539  0.5910 -0.3916
   62MOL   C33827300   2.571   3.224   6.296  0.0693 -0.3096 -0.3741
   62MOL   C33927301   2.780   3.451   6.415  0.1360  0.1798 -0.8882
   62MOL   H34027302   2.590   3.506   6.356 -1.4270 -1.6937 -0.3064
   62MOL   H34127303   2.456   3.324   6.449 -0.3936 -2.7299  0.6940
   62MOL   H34227304   2.713   3.192   6.543  0.5325  2.0190 -1.7907
   62MOL   H34327305   2.585   3.266   6.648 -0.0520 -1.2431 -0.3659
   62MOL   H34427306   2.585   3.010   6.637  0.1984  0.9900  0.0255
   62MOL   H34527307   2.439   3.089   6.593  1.0265  0.0559  2.9149
   62MOL   H34627308   2.634   2.966   6.398  0.0738 -0.2351  0.4671
   62MOL   H34727309   2.482   2.907   6.435  1.6356 -1.0059 -1.5006
   62MOL   H34827310   2.383   3.128   6.337 -0.6192 -0.7464  0.0885
   62MOL   H34927311   2.480   3.046   6.221 -1.9828 -1.5940  0.7171
   62MOL   H35027312   2.518   3.292   6.228 -4.3209 -4.4051 -1.3060
   62MOL   H35127313   2.671   3.200   6.261 -0.1965 -1.2733 -0.4958
   62MOL   H35227314   2.816   3.364   6.471 -1.1492  1.6918  2.4560
   62MOL   H35327315   2.824   3.539   6.461  0.5016 -1.3973  1.9529
   62MOL   C35427316   2.835   3.438   6.275  0.3552 -0.2205  0.5199
   62MOL   C35527317   2.982   3.379   6.274  0.1135  0.6277 -0.1714
   62MOL   C35627318   2.976   3.220   6.275  0.3291 -0.5742  0.2474
   62MOL   C35727319   3.115   3.164   6.275  0.0727  0.4744 -0.1734
   62MOL   C35827320   3.215   3.223   6.379 -0.5433  0.2300  0.2307
   62MOL   C35927321   3.216   3.379   6.375  0.1887  0.2017 -0.0595
   62MOL   C36027322   3.070   3.433   6.386 -0.0103  0.1193 -0.1570
   62MOL   C36127323   2.830   3.577   6.204  0.4603  0.6839 -0.4759
   62MOL   H36227324   2.773   3.368   6.219 -1.4367  2.1826 -0.6057
   62MOL   H36327325   3.042   3.407   6.188  0.8938  1.1475  0.5411
   62MOL   H36427326   2.914   3.176   6.196  0.2594  0.5298 -0.3159
   62MOL   H36527327   2.930   3.186   6.368  2.0304 -1.0339  0.9335
   62MOL   H36627328   3.109   3.056   6.287  0.7963  0.3454 -0.9030
   62MOL   H36727329   3.167   3.182   6.181  2.0214 -2.5427  0.2462
   62MOL   H36827330   3.186   3.196   6.481 -1.7352  0.2240 -0.1050
   62MOL   H36927331   3.315   3.184   6.359 -1.3328 -2.1122  0.6899
   62MOL   H37027332   3.276   3.421   6.456 -0.6397 -0.6184  1.0086
   62MOL   H37127333   3.261   3.400   6.278 -1.3988 -0.1118 -0.8750
   62MOL   H37227334   3.068   3.542   6.393 -4.4405  0.1618 -0.9329
   62MOL   H37327335   3.033   3.386   6.477 -0.0399  1.4909  0.5585
   62MOL   H37427336   2.923   3.627   6.232 -0.3840  0.2636  3.3537
   62MOL   H37527337   2.758   3.646   6.246 -0.2840  0.7181 -1.7785
   62MOL   C37627338   2.832   3.568   6.047 -0.0013  0.2234 -0.5666
   62MOL   C37727339   2.698   3.514   5.991 -0.1518 -0.2674 -0.0237
   62MOL   C37827340   2.704   3.484   5.841 -0.3375 -0.0204 -0.1386
   62MOL   C37927341   2.575   3.409   5.798  0.3456 -0.1860  0.2706
   62MOL   C38027342   2.450   3.495   5.808 -0.4386  0.0948 -0.0250
   62MOL   C38127343   2.439   3.535   5.958  0.5552  0.6911 -1.1199
   62MOL   C38227344   2.573   3.607   6.009 -0.2291 -0.5982 -0.8353
   62MOL   C38327345   2.878   3.708   5.985  0.3513 -0.0436  0.1029
   62MOL   H38427346   2.911   3.498   6.021 -1.7620 -1.0054 -2.8216
   62MOL   H38527347   2.689   3.414   6.035  2.1845  0.1845  1.5857
   62MOL   H38627348   2.704   3.580   5.788 -0.0960 -0.0236 -0.1413
   62MOL   H38727349   2.795   3.426   5.833 -0.8042 -0.8075  0.2466
   62MOL   H38827350   2.565   3.315   5.854 -1.7894 -1.4643 -2.1519
   62MOL   H38927351   2.599   3.374   5.698  0.2266 -1.1199  0.5589
   62MOL   H39027352   2.450   3.578   5.737 -0.6271  2.1953  2.3735
   62MOL   H39127353   2.375   3.419   5.787 -0.4622  0.0750  0.1357
   62MOL   H39227354   2.367   3.617   5.964 -1.3785 -1.0426 -0.0561
   62MOL   H39327355   2.408   3.451   6.021  0.6167  1.9001  0.5695
   62MOL   H39427356   2.593   3.695   5.948  2.7642 -0.8167 -0.2149
   62MOL   H39527357   2.539   3.633   6.109  1.3094  0.8415 -0.6590
   62MOL   H39627358   2.841   3.791   6.045 -1.3579 -0.1234 -0.7953
   62MOL   H39727359   2.821   3.732   5.895  0.3183 -2.9125 -0.6797
   62MOL   C39827360   3.028   3.734   5.962  0.1495 -0.2023 -0.6754
   62MOL   C39927361   3.088   3.638   5.853  0.1885 -0.2127  0.4394
   62MOL   C40027362   3.049   3.676   5.711  0.2659  0.5573  0.2063
   62MOL   C40127363   3.103   3.580   5.609  0.6064 -0.3886  0.1282
   62MOL   C40227364   3.254   3.570   5.614 -0.2618  0.0535 -0.2714
   62MOL   C40327365   3.296   3.521   5.753  0.4739 -0.4419 -0.3600
   62MOL   C40427366   3.246   3.614   5.863  0.1775 -0.1974  0.4137
   62MOL   C40527367   3.050   3.885   5.939  0.4042 -0.1117  0.6041
   62MOL   H40627368   3.080   3.704   6.053  1.3960 -2.1739 -2.0005
   62MOL   H40727369   3.060   3.536   5.877  3.3637 -1.6538 -1.5295
   62MOL   H40827370   3.076   3.779   5.690 -0.0309  0.9103  1.4847
   62MOL   H40927371   2.943   3.663   5.695  0.4860 -0.0295 -0.8122
   62MOL   H41027372   3.084   3.623   5.511  0.6562  0.2300  0.3864
   62MOL   H41127373   3.064   3.480   5.623 -0.2447 -0.0137  0.4471
   62MOL   H41227374   3.292   3.671   5.594 -2.0835  0.6475 -0.8473
   62MOL   H41327375   3.290   3.498   5.540 -0.5465  0.1198 -0.4787
   62MOL   H41427376   3.252   3.425   5.778  3.0212 -1.4185  0.4736
   62MOL   H41527377   3.400   3.493   5.761  1.2129  2.0820 -0.5302
   62MOL   H41627378   3.262   3.578   5.965 -1.0773 -0.4511  0.5323
   62MOL   H41727379   3.301   3.708   5.859 -0.6233  0.2111 -1.0331
   62MOL   H41827380   3.134   3.886   5.869 -1.2540  1.9102 -1.4234
   62MOL   H41927381   2.974   3.927   5.874  0.5122  0.7695  1.0430
   62MOL   C42027382   3.064   3.980   6.054 -0.2350  0.2195  0.3333
   62MOL   C42127383   3.022   4.125   6.023  0.3271  0.4071 -0.2553
   62MOL   C42227384   3.114   4.187   5.911  0.2170 -0.0047  0.1829
   62MOL   C42327385   3.077   4.330   5.866  0.2501  0.1908 -0.8293
   62MOL   C42427386   3.064   4.426   5.982  0.3801 -0.5567 -0.4847
   62MOL   C42527387   2.979   4.369   6.102  0.4390 -0.1092 -0.2878
   62MOL   C42627388   3.008   4.220   6.137 -0.5833  0.2822 -0.2233
   62MOL   C42727389   3.198   3.970   6.120 -0.8238 -0.5550 -0.6097
   62MOL   H42827390   2.991   3.954   6.131 -0.7408  1.2563  0.2098
   62MOL   H42927391   2.921   4.127   5.982  0.9991  2.8238 -1.9702
   62MOL   H43027392   3.220   4.202   5.930 -0.0745 -1.6322  3.2935
   62MOL   H43127393   3.123   4.116   5.828 -0.1395 -0.5958  0.6529
   62MOL   H43227394   3.136   4.377   5.787  1.8432 -1.6364 -0.7622
   62MOL   H43327395   2.976   4.326   5.826  0.5886  0.1978 -1.7051
   62MOL   H43427396   3.019   4.521   5.951 -2.5972 -1.6970  0.2359
   62MOL   H43527397   3.167   4.448   6.009  1.3585 -2.1896 -2.7176
   62MOL   H43627398   2.874   4.366   6.072  1.1743  1.5115 -3.1578
   62MOL   H43727399   2.967   4.423   6.196  0.5633 -1.3311  0.4402
   62MOL   H43827400   3.103   4.224   6.191 -0.3238 -0.9672 -0.5788
   62MOL   H43927401   2.929   4.186   6.203 -1.2158 -0.3639 -1.3022
   62MOL   H44027402   3.278   4.017   6.063  0.1482 -0.1440  1.0715
   62MOL   H44127403   3.199   4.017   6.218 -0.7336 -1.9956  0.1031
   62MOL   H44227404   3.211   3.864   6.141  1.8543  0.2856  2.3995
   63MOL     C127405   1.943   0.198   0.551 -0.2520 -0.2330  0.7437
   63MOL     C227406   1.815   0.260   0.615 -0.1122  0.4640  0.2779
   63MOL     C327407   1.740   0.342   0.510 -0.2608  0.0718  0.1658
   63MOL     C427408   1.607   0.396   0.572 -0.0335 -0.1989 -0.2186
   63MOL     C527409   1.636   0.488   0.693  0.0777 -0.1573  0.3815
   63MOL     C627410   1.722   0.419   0.803  0.2120 -0.1980 -0.7789
   63MOL     C727411   1.841   0.351   0.740 -0.2763  0.6324 -0.4474
   63MOL     C827412   1.915   0.079   0.452 -0.7188 -0.5690 -0.5130
   63MOL     H927413   2.003   0.268   0.494  0.3229 -1.9601 -0.8038
   63MOL    H1027414   1.748   0.177   0.635  1.0558 -0.7061 -0.5724
   63MOL    H1127415   1.799   0.423   0.466 -0.4230 -0.7241 -1.5511
   63MOL    H1227416   1.701   0.291   0.423 -1.9471  1.7482 -0.1113
   63MOL    H1327417   1.545   0.309   0.595  1.8804 -1.2332  1.2147
   63MOL    H1427418   1.542   0.460   0.513  0.5501  1.0620  0.4920
   63MOL    H1527419   1.547   0.537   0.733  1.2906  1.4453  1.2054
   63MOL    H1627420   1.705   0.565   0.658 -2.1360  1.4679 -0.5760
   63MOL    H1727421   1.763   0.493   0.871  2.9645 -2.1197 -0.2687
   63MOL    H1827422   1.655   0.348   0.852  0.3158  1.1310  1.3258
   63MOL    H1927423   1.892   0.294   0.818  0.4884  1.6157 -0.2155
   63MOL    H2027424   1.917   0.426   0.721  0.6561 -0.3567 -0.6297
   63MOL    H2127425   1.845   0.109   0.374 -0.9190 -0.9741 -0.4926
   63MOL    H2227426   1.850   0.018   0.514 -2.0196  1.0930 -0.2007
   63MOL    H2327427   2.011   0.172   0.633  0.8232  1.1075  0.2783
   63MOL    C2427428   2.043   0.012   0.399 -0.3473 -0.8366 -0.4229
   63MOL    C2527429   2.030   7.636   0.360  0.0169  0.2545  0.5094
   63MOL    C2627430   1.914   7.609   0.256 -0.1296  0.6908  0.7396
   63MOL    C2727431   1.921   7.461   0.211  0.2686 -0.1056  0.6040
   63MOL    C2827432   1.899   7.367   0.342  0.7552 -0.0073 -0.2112
   63MOL    C2927433   2.004   7.398   0.454 -0.3384 -0.1895  0.2427
   63MOL    C3027434   2.012   7.552   0.487 -0.6757 -0.7159 -0.4432
   63MOL    C3127435   2.120   0.082   0.296 -0.4429  0.6491  0.2978
   63MOL    H3227436   2.107   0.010   0.487  1.6204 -0.4116 -1.8194
   63MOL    H3327437   2.124   7.610   0.312 -1.1372 -0.7193 -1.2647
   63MOL    H3427438   1.927   7.671   0.168  0.4706 -2.2554 -1.3115
   63MOL    H3527439   1.813   7.624   0.293 -0.4298 -1.2390  0.7800
   63MOL    H3627440   1.831   7.439   0.154 -0.4438  3.1413  0.3914
   63MOL    H3727441   2.009   7.427   0.157 -0.0335 -2.9852  1.8232
   63MOL    H3827442   1.915   7.264   0.311 -2.2579 -0.6069  0.1386
   63MOL    H3927443   1.797   7.379   0.379  0.3337  0.2752 -1.4504
   63MOL    H4027444   1.967   7.337   0.537  0.6906 -1.3183 -0.1147
   63MOL    H4127445   2.102   7.364   0.422 -0.9815 -0.2053 -1.8047
   63MOL    H4227446   1.927   7.584   0.546 -1.6344  0.5989 -2.4600
   63MOL    H4327447   2.096   7.578   0.551  0.1900 -0.5881 -1.5953
   63MOL    H4427448   2.055   0.153   0.245 -1.4664  0.1517  0.9021
   63MOL    H4527449   2.128   0.025   0.203 -0.7213  3.0505 -1.2584
   63MOL    C4627450   2.265   0.133   0.331 -0.4975  0.2292 -0.3921
   63MOL    C4727451   2.302   0.250   0.232  0.5630  0.8597 -0.1008
   63MOL    C4827452   2.236   0.386   0.255 -0.7553 -0.2854 -0.7357
   63MOL    C4927453   2.292   0.494   0.155 -0.0937 -0.9206 -0.3897
   63MOL    C5027454   2.290   0.446   0.005 -0.3054 -0.3800  0.0398
   63MOL    C5127455   2.357   0.311   7.759  0.4698  0.4786  0.2188
   63MOL    C5227456   2.291   0.207   0.079  0.2833 -0.1617 -0.7875
   63MOL    C5327457   2.368   0.019   0.340  0.3956 -0.4347 -0.4999
   63MOL    H5427458   2.252   0.166   0.434 -1.0830  1.3018 -0.8024
   63MOL    H5527459   2.406   0.274   0.254  0.5576 -0.1218  1.0182
   63MOL    H5627460   2.128   0.379   0.241 -0.9998  0.2682  0.8526
   63MOL    H5727461   2.254   0.422   0.356  0.1944 -0.2850 -0.8960
   63MOL    H5827462   2.393   0.521   0.184 -0.3272  0.2676 -0.6217
   63MOL    H5927463   2.223   0.578   0.162 -1.6058 -2.2240  0.7563
   63MOL    H6027464   2.188   0.431   7.740 -1.3172 -0.2854  2.7001
   63MOL    H6127465   2.344   0.510   7.708 -0.2138 -1.8665 -1.2906
   63MOL    H6227466   2.458   0.306   0.026  0.3327 -2.2716  0.3356
   63MOL    H6327467   2.349   0.276   7.656  0.2161 -1.2575  0.7969
   63MOL    H6427468   2.184   0.205   0.060  0.3584  3.1846 -1.9979
   63MOL    H6527469   2.343   0.112   0.063  0.8883 -0.2677  1.6642
   63MOL    H6627470   2.388   7.755   0.239  3.6466  0.5274 -0.2652
   63MOL    H6727471   2.330   7.699   0.385  0.3502 -0.2032 -0.0539
   63MOL    C6827472   2.509   0.047   0.393 -0.0475  0.0822 -0.1657
   63MOL    C6927473   2.513   0.105   0.536  0.2698 -0.5118  0.1463
   63MOL    C7027474   2.451   0.024   0.649  0.1108  0.1792 -0.6036
   63MOL    C7127475   2.457   0.101   0.784 -0.0633 -0.5145  0.3213
   63MOL    C7227476   2.602   0.129   0.820 -0.4676  0.0109 -0.1473
   63MOL    C7327477   2.669   0.213   0.714 -0.8768 -0.4806  0.0940
   63MOL    C7427478   2.654   0.151   0.570  0.3695  0.5521  0.2602
   63MOL    C7527479   2.605   7.702   0.362 -0.4070  0.9626  0.3541
   63MOL    H7627480   2.554   0.128   0.335  2.6807 -1.3360 -0.1366
   63MOL    H7727481   2.450   0.194   0.544 -0.4437 -0.9030 -0.9678
   63MOL    H7827482   2.505   7.703   0.662  0.9480  0.7237 -0.1604
   63MOL    H7927483   2.347   0.006   0.620  0.1059  1.3994 -1.3909
   63MOL    H8027484   2.403   0.196   0.777  1.3383  0.4947  2.8270
   63MOL    H8127485   2.408   0.050   0.866 -0.9777 -1.3890 -0.7518
   63MOL    H8227486   2.656   0.034   0.829  0.3379  0.6007  1.3511
   63MOL    H8327487   2.595   0.173   0.919 -2.0892  0.1478 -0.3030
   63MOL    H8427488   2.775   0.223   0.736 -0.5311 -2.9194 -0.2143
   63MOL    H8527489   2.623   0.311   0.705 -0.1973 -0.2360 -0.8733
   63MOL    H8627490   2.728   0.073   0.555  0.4705  1.1674 -2.7796
   63MOL    H8727491   2.681   0.229   0.499 -0.7913  0.0057 -0.7988
   63MOL    H8827492   2.706   7.715   0.401  0.1065 -1.1963 -0.2041
   63MOL    H8927493   2.553   7.620   0.412 -0.1817  1.1035  0.8291
   63MOL    C9027494   2.616   7.650   0.214  0.3287 -0.8375 -0.1468
   63MOL    C9127495   2.668   7.763   0.114  0.1529 -0.0347 -0.0706
   63MOL    C9227496   2.799   0.060   0.155 -0.0816 -0.4873 -0.2923
   63MOL    C9327497   2.834   0.173   0.061  0.0427  0.2309 -0.1606
   63MOL    C9427498   2.822   0.137   7.682 -0.0986 -0.2755 -0.8489
   63MOL    C9527499   2.691   0.074   7.649 -0.1348  0.2842 -0.2578
   63MOL    C9627500   2.665   7.727   7.744 -0.0024  0.1666  0.2882
   63MOL    C9727501   2.689   7.511   0.194  0.8169  0.2471  0.6624
   63MOL    H9827502   2.517   7.632   0.173  1.2881 -0.0074 -2.9543
   63MOL    H9927503   2.598   0.075   0.116 -0.0762 -0.2379  1.3592
   63MOL   H10027504   2.872   7.752   0.147  0.6008  0.2720 -1.8491
   63MOL   H10127505   2.789   0.094   0.258  0.4672 -1.3293  0.0515
   63MOL   H10227506   2.939   0.197   0.081  0.6324  0.2658 -3.1094
   63MOL   H10327507   2.768   0.259   0.075  0.2218  0.5780 -1.3693
   63MOL   H10427508   2.890   0.054   7.660  0.8106 -0.0103  0.8722
   63MOL   H10527509   2.838   0.223   7.618 -0.1440  0.6705  0.3987
   63MOL   H10627510   2.607   0.144   7.650  1.5885  2.3820  0.4441
   63MOL   H10727511   2.698   0.033   7.548  2.1339 -1.0351  0.4142
   63MOL   H10827512   2.569   7.678   7.730  1.2968 -2.2617 -0.5799
   63MOL   H10927513   2.740   7.649   7.726  1.0265  1.0550  0.6863
   63MOL   H11027514   2.681   7.488   0.087  0.8320  3.4854 -0.0879
   63MOL   H11127515   2.795   7.536   0.204  1.0315 -0.1508 -0.5384
   63MOL   C11227516   2.648   7.396   0.287 -0.2648  0.1282  0.3222
   63MOL   C11327517   2.740   7.397   0.418  0.0347 -0.3008  0.2036
   63MOL   C11427518   2.888   7.351   0.405 -0.2159 -0.6363  0.5955
   63MOL   C11527519   2.968   7.385   0.532  0.0988 -0.0755 -0.1423
   63MOL   C11627520   2.909   7.319   0.659 -0.9874 -0.1452  0.7305
   63MOL   C11727521   2.756   7.349   0.665 -0.5870  0.0304 -0.0247
   63MOL   C11827522   2.674   7.323   0.538  0.3529 -0.3292  0.0198
   63MOL   C11927523   2.673   7.260   0.219  0.5112 -0.5061 -0.5982
   63MOL   H12027524   2.544   7.408   0.319 -0.3879 -0.2312  0.0497
   63MOL   H12127525   2.751   7.504   0.440 -0.6535 -0.6933  2.5799
   63MOL   H12227526   2.923   7.415   0.324  1.1060 -1.1512  0.7468
   63MOL   H12327527   2.884   7.246   0.377  0.8468 -0.2687 -0.9860
   63MOL   H12427528   3.067   7.341   0.518  0.3328 -0.3895  2.2279
   63MOL   H12527529   2.991   7.489   0.554 -3.3006  0.6575  0.1888
   63MOL   H12627530   2.926   7.212   0.660  0.6800  0.0845 -0.9498
   63MOL   H12727531   2.958   7.357   0.749 -2.8748  0.0151  1.7118
   63MOL   H12827532   2.728   7.274   0.739  0.3287  0.1380  0.4373
   63MOL   H12927533   2.748   7.453   0.697  1.5961  0.1401  0.2621
   63MOL   H13027534   2.568   7.345   0.553  0.0411 -0.9488 -1.2461
   63MOL   H13127535   2.671   7.218   0.508  0.3119  0.5903 -3.4123
   63MOL   H13227536   2.696   7.179   0.287  0.2431  0.8324  1.1142
   63MOL   H13327537   2.767   7.267   0.164 -0.1606  0.3996 -1.6655
   63MOL   C13427538   2.552   7.215   0.124 -0.1488 -0.3381  0.5509
   63MOL   C13527539   2.419   7.190   0.202 -0.2312  0.2826 -0.2276
   63MOL   C13627540   2.427   7.106   0.330 -0.0719  0.1045 -0.1233
   63MOL   C13727541   2.282   7.094   0.397 -1.1626  0.1568 -0.0851
   63MOL   C13827542   2.169   7.061   0.303  0.1597 -0.3156  0.4634
   63MOL   C13927543   2.178   7.153   0.184  0.2955  0.2851  0.0904
   63MOL   C14027544   2.307   7.148   0.106  0.1749  0.0372 -0.0207
   63MOL   C14127545   2.597   7.094   0.039 -0.2531  0.8232 -0.4673
   63MOL   H14227546   2.531   7.294   0.053  1.3935 -0.1350  0.2943
   63MOL   H14327547   2.395   7.293   0.228  1.1577  0.6027 -0.1319
   63MOL   H14427548   2.452   7.004   0.302 -1.5934  0.0665 -1.4667
   63MOL   H14527549   2.497   7.131   0.409 -0.6010  1.3722 -0.0468
   63MOL   H14627550   2.247   7.186   0.445 -2.3618 -0.0060 -0.6248
   63MOL   H14727551   2.292   7.020   0.477 -0.7263 -0.2684 -0.5267
   63MOL   H14827552   2.181   6.961   0.262 -1.9963  0.2155 -1.6073
   63MOL   H14927553   2.070   7.072   0.349 -1.9187 -3.8842 -2.8256
   63MOL   H15027554   2.166   7.258   0.211  0.0584  0.3012 -0.0754
   63MOL   H15127555   2.097   7.115   0.121 -1.1710  0.2241  1.9426
   63MOL   H15227556   2.307   7.048   0.063  1.9639 -1.1396  2.5996
   63MOL   H15327557   2.304   7.215   0.020  0.8660  0.4423  0.2750
   63MOL   H15427558   2.516   7.057   7.748  0.1245  0.8034 -0.9385
   63MOL   H15527559   2.608   7.009   0.106  0.0818 -0.0894 -1.6761
   63MOL   C15627560   2.725   7.104   7.729  0.7918 -0.2490 -0.5126
   63MOL   C15727561   2.718   7.228   7.636 -0.0434 -0.0974  0.2914
   63MOL   C15827562   2.850   7.253   7.574 -0.5159 -0.6744  0.2346
   63MOL   C15927563   2.867   7.377   7.487 -0.1093  0.2938  0.3059
   63MOL   C16027564   2.754   7.381   7.384  0.2220  0.4208  0.0034
   63MOL   C16127565   2.619   7.362   7.450 -0.4477  0.0614  0.2368
   63MOL   C16227566   2.605   7.231   7.527 -0.4473  0.0174 -0.1271
   63MOL   C16327567   2.771   6.973   7.658 -0.4229 -0.3421 -0.6905
   63MOL   H16427568   2.809   7.119   0.024 -0.2168  0.5065  0.5975
   63MOL   H16527569   2.715   7.320   7.695  1.2426  0.3638 -0.3618
   63MOL   H16627570   2.925   7.248   7.653 -1.1833  0.6736  0.9626
   63MOL   H16727571   2.877   7.166   7.513  0.1888 -1.0596  1.0866
   63MOL   H16827572   2.852   7.468   7.544 -1.3192 -0.1154  0.6524
   63MOL   H16927573   2.964   7.378   7.437  0.2723  2.3312  1.0750
   63MOL   H17027574   2.772   7.299   7.314 -1.1678  1.5021 -1.6639
   63MOL   H17127575   2.762   7.475   7.330  0.1840  0.5356  0.1945
   63MOL   H17227576   2.551   7.370   7.365 -1.0431  0.6740  0.7604
   63MOL   H17327577   2.607   7.448   7.517  3.3503  1.1615 -0.4143
   63MOL   H17427578   2.505   7.230   7.572  0.2308  1.1896  1.4750
   63MOL   H17527579   2.629   7.149   7.460  2.6704  0.9121 -0.1804
   63MOL   H17627580   2.877   6.981   7.632 -0.2382 -2.2143 -0.5668
   63MOL   H17727581   2.728   6.967   7.559  0.0580  0.4583 -0.9537
   63MOL   C17827582   2.751   6.834   7.737 -0.4057  0.3447  1.0471
   63MOL   C17927583   2.815   6.718   7.640  0.5256  0.1006 -0.5137
   63MOL   C18027584   2.719   6.625   7.574  0.0840  0.1723  0.0485
   63MOL   C18127585   2.771   6.500   7.493  0.2464  0.4656  0.3234
   63MOL   C18227586   2.858   6.416   7.582 -0.4180 -0.1289 -0.2681
   63MOL   C18327587   2.979   6.505   7.620  0.2944 -0.0938  0.0395
   63MOL   C18427588   2.932   6.634   7.700  0.6008  0.3351  0.4906
   63MOL   C18527589   2.811   6.841   0.106 -0.1566 -0.4751 -0.5853
   63MOL   H18627590   2.644   6.839   7.755 -0.4806  3.1571  0.0985
   63MOL   H18727591   2.854   6.771   7.553 -0.1858 -0.4823 -1.2049
   63MOL   H18827592   2.650   6.584   7.649  0.3670  0.7676  0.6297
   63MOL   H18927593   2.667   6.678   7.494 -0.7299  0.0365  0.4803
   63MOL   H19027594   2.832   6.541   7.413  0.3570  1.6082  0.9755
   63MOL   H19127595   2.681   6.450   7.456  0.5540 -0.2872  0.5786
   63MOL   H19227596   2.797   6.400   7.671 -1.7132 -2.1067 -1.4792
   63MOL   H19327597   2.882   6.322   7.532  2.0156  0.3688 -0.0955
   63MOL   H19427598   3.030   6.552   7.536 -1.3446  1.6754  0.0079
   63MOL   H19527599   3.049   6.456   7.687  0.7329 -2.8784 -2.3503
   63MOL   H19627600   2.916   6.603   0.031 -0.5369 -0.4221  0.0982
   63MOL   H19727601   3.012   6.706   7.717  0.0628  0.3810  2.9946
   63MOL   H19827602   2.920   6.831   0.111 -0.0854  0.6636  0.6452
   63MOL   H19927603   2.801   6.943   0.143 -2.1054 -0.5075 -0.9584
   63MOL   C20027604   2.744   6.739   0.216 -0.0292  0.1948  0.4429
   63MOL   C20127605   2.806   6.761   0.356 -0.2233  0.0089  0.8108
   63MOL   C20227606   2.958   6.720   0.363 -0.1410 -0.1785 -0.2117
   63MOL   C20327607   3.010   6.736   0.504  1.0018  0.3506  0.7606
   63MOL   C20427608   3.008   6.885   0.538  0.1779 -0.3563  0.8744
   63MOL   C20527609   2.861   6.928   0.535 -0.2065 -0.6625 -0.1743
   63MOL   C20627610   2.801   6.916   0.403  0.2667  1.5208  0.1680
   63MOL   C20727611   2.590   6.727   0.226 -0.3479 -0.0035  0.2215
   63MOL   H20827612   2.776   6.642   0.180 -0.5599  0.3454 -0.4659
   63MOL   H20927613   2.748   6.702   0.427  0.2683 -0.7034  0.6236
   63MOL   H21027614   3.017   6.775   0.289  0.7646 -2.0130 -0.9087
   63MOL   H21127615   2.969   6.617   0.328 -2.1418 -0.2208 -0.7673
   63MOL   H21227616   2.951   6.682   0.578  1.0026  0.9650  1.2130
   63MOL   H21327617   3.109   6.690   0.502 -0.1466 -2.2330  0.6262
   63MOL   H21427618   3.049   6.898   0.638  0.2319 -0.5608  0.8786
   63MOL   H21527619   3.074   6.940   0.471  0.4928  0.9040  2.1991
   63MOL   H21627620   2.812   6.878   0.618 -0.5816  0.3450  0.2204
   63MOL   H21727621   2.858   7.034   0.561  1.4872 -0.9911  1.4858
   63MOL   H21827622   2.697   6.948   0.398 -0.4228 -0.2511  2.1979
   63MOL   H21927623   2.863   6.981   0.342 -2.2497  2.1518 -1.7966
   63MOL   H22027624   2.551   6.814   0.279 -0.2776 -0.3670  0.8743
   63MOL   H22127625   2.549   6.731   0.125  0.5221  0.3920 -0.1174
   63MOL   C22227626   2.527   6.600   0.276  0.1706 -0.3434  0.1318
   63MOL   C22327627   2.394   6.620   0.346  0.4900 -0.1556  0.0995
   63MOL   C22427628   2.273   6.667   0.256 -0.3405 -0.0803 -0.0084
   63MOL   C22527629   2.138   6.663   0.333 -0.2989 -0.0591 -0.1697
   63MOL   C22627630   2.148   6.739   0.469 -0.0834  0.0307  0.0999
   63MOL   C22727631   2.272   6.705   0.558  0.3904  0.7858 -0.1744
   63MOL   C22827632   2.399   6.710   0.477 -0.5337 -0.3989  0.0280
   63MOL   C22927633   2.527   6.497   0.166 -0.5029  0.7298  0.3848
   63MOL   H23027634   2.600   6.564   0.349  1.1978  1.1783 -0.1156
   63MOL   H23127635   2.368   6.523   0.390 -0.5500  0.0827  0.0083
   63MOL   H23227636   2.300   6.766   0.218 -1.3079 -0.5322 -1.9670
   63MOL   H23327637   2.256   6.603   0.170  0.3579 -0.1030 -0.1326
   63MOL   H23427638   2.125   6.557   0.358 -0.3362  0.2879  1.2853
   63MOL   H23527639   2.060   6.710   0.273  0.5085  0.3217 -0.9290
   63MOL   H23627640   2.146   6.844   0.440  0.2089 -0.2228 -0.8533
   63MOL   H23727641   2.065   6.718   0.535  0.0020  1.8552  0.8287
   63MOL   H23827642   2.256   6.612   0.614  1.5413  1.5949  1.5213
   63MOL   H23927643   2.280   6.769   0.645 -0.4262  0.3285  0.2417
   63MOL   H24027644   2.411   6.815   0.449  0.0319 -0.0876  1.3675
   63MOL   H24127645   2.481   6.689   0.545 -2.3171 -3.2842  1.4155
   63MOL   H24227646   2.626   6.492   0.121  0.6170 -1.1414  2.9234
   63MOL   H24327647   2.462   6.530   0.084  0.7197  2.0311 -0.0822
   63MOL   C24427648   2.479   6.346   0.196  0.0259 -0.1251  0.2452
   63MOL   C24527649   2.544   6.288   0.324  0.5501 -0.3906  0.0588
   63MOL   C24627650   2.698   6.282   0.326  0.2885 -0.9048  0.2341
   63MOL   C24727651   2.752   6.234   0.461  0.4108 -0.6406 -0.2125
   63MOL   C24827652   2.688   6.104   0.506 -0.6705 -0.2865 -0.1450
   63MOL   C24927653   2.533   6.118   0.518  0.2616  0.3699 -0.6487
   63MOL   C25027654   2.482   6.155   0.373 -0.3610 -0.0584  0.3957
   63MOL   C25127655   2.514   6.258   0.078 -0.4261  0.3317 -0.6833
   63MOL   H25227656   2.370   6.348   0.201 -0.0146 -0.3039 -0.5141
   63MOL   H25327657   2.515   6.359   0.401  1.2172 -2.0264  1.8505
   63MOL   H25427658   2.749   6.375   0.301  1.4615 -1.6465 -0.2190
   63MOL   H25527659   2.731   6.211   0.249  1.2725 -1.1354  0.8578
   63MOL   H25627660   2.860   6.226   0.466  0.5527  1.0142 -0.4229
   63MOL   H25727661   2.727   6.308   0.538 -1.2015 -0.0915 -1.2261
   63MOL   H25827662   2.710   6.033   0.427 -0.2980  0.7963 -1.0327
   63MOL   H25927663   2.733   6.078   0.602  0.8040  1.2682 -0.3855
   63MOL   H26027664   2.512   6.202   0.584 -1.3153  1.3825 -2.3896
   63MOL   H26127665   2.487   6.025   0.552 -0.6345  1.5752  1.4888
   63MOL   H26227666   2.501   6.078   0.299 -0.9007  0.7146 -0.5681
   63MOL   H26327667   2.373   6.162   0.369 -0.4003  0.8244  2.3534
   63MOL   H26427668   2.482   6.160   0.113  1.0173 -0.1810 -0.7840
   63MOL   H26527669   2.622   6.259   0.068 -0.1176  0.2393  2.1943
   63MOL   C26627670   2.447   6.271   7.711 -0.7058  0.1393 -0.4384
   63MOL   C26727671   2.524   6.182   7.602  0.4934  0.0379 -0.3074
   63MOL   C26827672   2.484   6.197   7.448 -0.8710 -0.8660 -0.2345
   63MOL   C26927673   2.551   6.095   7.356 -0.0579  0.0767  0.0780
   63MOL   C27027674   2.526   5.956   7.398  0.1137  0.0397 -0.3807
   63MOL   C27127675   2.585   5.937   7.536 -0.8651  0.8433  0.0788
   63MOL   C27227676   2.521   6.031   7.641 -0.3705  0.2283 -0.1987
   63MOL   C27327677   2.292   6.248   7.715  0.1079  0.8926  0.0296
   63MOL   H27427678   2.467   6.371   7.674 -3.1191  0.4752 -0.8774
   63MOL   H27527679   2.629   6.210   7.610 -0.0308  1.9540  0.2552
   63MOL   H27627680   2.379   6.185   7.424 -1.5341  2.0310  0.9528
   63MOL   H27727681   2.530   6.287   7.405  1.1761 -1.5984  0.3484
   63MOL   H27827682   2.656   6.121   7.345 -0.2952  0.8898 -0.3574
   63MOL   H27927683   2.504   6.121   7.260  1.2906 -0.6013 -0.7839
   63MOL   H28027684   2.419   5.936   7.402  0.1940 -0.3795 -0.2626
   63MOL   H28127685   2.574   5.891   7.325  1.0385  2.8019 -2.3313
   63MOL   H28227686   2.693   5.950   7.532 -0.3435 -2.8662  0.1023
   63MOL   H28327687   2.571   5.832   7.562  0.8203  0.1672 -1.6421
   63MOL   H28427688   2.559   6.006   7.740  0.9628  0.5559 -0.6270
   63MOL   H28527689   2.415   6.010   7.659 -0.3024  0.0221 -0.0331
   63MOL   H28627690   2.253   6.210   0.037 -0.3874 -0.1802 -0.5904
   63MOL   H28727691   2.278   6.160   7.652  3.2680 -0.4193  1.0786
   63MOL   C28827692   2.201   6.370   7.666  0.3683 -0.1630 -0.0196
   63MOL   C28927693   2.049   6.354   7.691  0.2962  0.9353  0.2419
   63MOL   C29027694   1.987   6.224   7.643  0.0860 -0.3293 -0.1068
   63MOL   C29127695   1.839   6.219   7.681 -0.5703 -0.0115  0.1459
   63MOL   C29227696   1.827   6.221   0.058  0.2501 -0.2989 -0.6675
   63MOL   C29327697   1.878   6.356   0.118 -0.9806  0.3200  0.1240
   63MOL   C29427698   2.026   6.368   0.073  0.5376  0.2367 -0.0555
   63MOL   C29527699   2.230   6.395   7.517 -0.1538 -0.4419  0.2986
   63MOL   H29627700   2.229   6.465   7.713  0.5092  0.5257 -1.4677
   63MOL   H29727701   2.000   6.443   7.651 -0.5908  0.7077  0.8092
   63MOL   H29827702   2.009   6.226   7.536  0.3906 -0.9783 -0.0605
   63MOL   H29927703   2.048   6.147   7.689 -0.1167 -0.0277  0.6673
   63MOL   H30027704   1.781   6.300   7.638 -1.5151 -0.6376  0.2308
   63MOL   H30127705   1.791   6.132   7.636 -1.4920  1.0175 -0.8579
   63MOL   H30227706   1.878   6.134   0.098 -1.2166 -1.8659 -2.1107
   63MOL   H30327707   1.726   6.212   0.099  0.0145 -0.7944 -1.3465
   63MOL   H30427708   1.870   6.349   0.227 -0.5656 -3.1276 -0.0207
   63MOL   H30527709   1.818   6.442   0.090  1.0468  1.1024 -1.9163
   63MOL   H30627710   2.080   6.296   0.134 -1.0785  0.1613  1.3374
   63MOL   H30727711   2.059   6.467   0.105 -1.9836  1.4590 -1.1150
   63MOL   H30827712   2.337   6.411   7.502  0.1971 -1.4896  1.5508
   63MOL   H30927713   2.203   6.306   7.460 -0.1347  0.4609 -1.1564
   63MOL   C31027714   2.157   6.513   7.448  0.7879  0.0532 -0.2081
   63MOL   C31127715   2.197   6.649   7.510 -0.5550  0.0175  0.5945
   63MOL   C31227716   2.351   6.678   7.517  0.6569 -0.5570 -0.5041
   63MOL   C31327717   2.385   6.814   7.588  0.3179 -0.4544  0.4437
   63MOL   C31427718   2.314   6.926   7.517 -0.0462 -0.2279 -0.4385
   63MOL   C31527719   2.164   6.911   7.521 -0.7932 -0.1204  0.0595
   63MOL   C31627720   2.119   6.772   7.460 -0.1083  0.3964  0.1654
   63MOL   C31727721   2.193   6.505   7.298  0.8616  0.0059 -0.3197
   63MOL   H31827722   2.048   6.505   7.454  0.8924 -0.6838  0.8514
   63MOL   H31927723   2.167   6.642   7.614 -1.2733 -0.8672  0.3421
   63MOL   H32027724   2.396   6.599   7.578  0.7508  0.0749  0.2547
   63MOL   H32127725   2.393   6.688   7.417 -0.1033  0.3214 -0.7384
   63MOL   H32227726   2.493   6.825   7.587  0.0536  2.7555 -0.7733
   63MOL   H32327727   2.344   6.812   7.689 -0.9794  1.2085 -0.0179
   63MOL   H32427728   2.343   7.020   7.566 -1.0888 -0.0746 -0.1100
   63MOL   H32527729   2.349   6.933   7.414  0.9458  3.3594  0.0567
   63MOL   H32627730   2.132   6.926   7.625  0.3395 -1.4209  0.6173
   63MOL   H32727731   2.115   6.994   7.469  0.6912 -0.1451 -1.3966
   63MOL   H32827732   2.129   6.771   7.352  2.7696 -0.7913  0.3795
   63MOL   H32927733   2.014   6.747   7.476 -0.3968  0.0728 -2.1539
   63MOL   H33027734   2.293   6.464   7.287  1.4655  0.7064  2.3277
   63MOL   H33127735   2.201   6.607   7.262  0.5493 -0.2831 -1.2481
   63MOL   C33227736   2.083   6.439   7.202  0.3863  0.2949 -0.1208
   63MOL   C33327737   2.059   6.292   7.229  0.0035 -0.3946 -0.2423
   63MOL   C33427738   2.179   6.202   7.193 -0.1900  0.5815 -0.0404
   63MOL   C33527739   2.168   6.064   7.268 -0.3177  0.4700  0.5052
   63MOL   C33627740   2.038   5.993   7.225 -0.0749 -0.4594 -0.3954
   63MOL   C33727741   1.910   6.084   7.229 -0.3126  0.8035  0.2543
   63MOL   C33827742   1.925   6.232   7.176 -0.7709  0.2385 -0.3112
   63MOL   C33927743   2.118   6.468   7.055  0.9821 -1.2418 -0.7839
   63MOL   H34027744   1.980   6.470   7.221  0.3389  0.5039 -0.6867
   63MOL   H34127745   2.051   6.276   7.336  1.6385 -2.0284 -0.3343
   63MOL   H34227746   2.192   6.172   7.089  1.7636 -1.8337  0.8562
   63MOL   H34327747   2.275   6.251   7.206 -0.0206 -0.3285  2.5026
   63MOL   H34427748   2.251   5.995   7.257 -1.1839 -0.8599  2.0312
   63MOL   H34527749   2.167   6.077   7.377  1.2272  4.1215  0.1758
   63MOL   H34627750   2.054   5.939   7.132  1.4840  0.9603 -0.9824
   63MOL   H34727751   2.024   5.910   7.294 -0.6639 -1.4677 -1.7123
   63MOL   H34827752   1.876   6.084   7.332 -2.8904 -2.2293 -0.5132
   63MOL   H34927753   1.827   6.030   7.182  0.1124  0.0556  0.3560
   63MOL   H35027754   1.848   6.304   7.203 -1.1192 -0.8012  1.5599
   63MOL   H35127755   1.924   6.218   7.068 -2.0985 -0.0934 -0.2728
   63MOL   H35227756   2.076   6.396   6.984 -4.2946  2.0577 -1.2652
   63MOL   H35327757   2.224   6.443   7.057  1.5380  1.0858  0.5829
   63MOL   C35427758   2.088   6.603   6.997 -0.2139  0.1980  0.0463
   63MOL   C35527759   1.932   6.626   6.974 -0.4651 -0.3912  0.0074
   63MOL   C35627760   1.867   6.533   6.864 -0.3661 -1.0230 -0.6238
   63MOL   C35727761   1.715   6.553   6.856 -0.1763 -0.0509  0.4986
   63MOL   C35827762   1.679   6.700   6.825  0.5501 -0.8721 -0.2417
   63MOL   C35927763   1.736   6.797   6.933  0.1760 -0.4104  0.0684
   63MOL   C36027764   1.891   6.765   6.935 -0.5174 -0.0397  0.2216
   63MOL   C36127765   2.179   6.636   6.875 -0.2132  0.6528 -0.1897
   63MOL   H36227766   2.121   6.664   7.082 -1.0288  0.7388 -0.0163
   63MOL   H36327767   1.880   6.613   7.069  0.2353 -1.0885  0.2989
   63MOL   H36427768   1.888   6.429   6.890  2.7037 -0.2909  0.0148
   63MOL   H36527769   1.905   6.541   6.762  1.9608  1.9924  0.3967
   63MOL   H36627770   1.677   6.496   6.770 -0.4468  2.2284 -0.9347
   63MOL   H36727771   1.657   6.524   6.944  0.6999  1.6039  1.6345
   63MOL   H36827772   1.720   6.733   6.729  0.9030  0.7843  0.4615
   63MOL   H36927773   1.570   6.711   6.825  0.5869 -0.0749  2.6583
   63MOL   H37027774   1.730   6.901   6.901  0.3409 -0.7219 -0.9870
   63MOL   H37127775   1.689   6.786   7.031  0.9789 -0.3514  0.4675
   63MOL   H37227776   1.932   6.834   7.007  2.1012 -0.7066 -0.5907
   63MOL   H37327777   1.934   6.806   6.844 -0.5946  0.5053  0.4297
   63MOL   H37427778   2.177   6.741   6.848  1.1827  0.4188 -1.3233
   63MOL   H37527779   2.138   6.584   6.788  0.8280  1.5795 -1.2567
   63MOL   C37627780   2.337   6.603   6.877 -0.0177 -0.7866  0.5912
   63MOL   C37727781   2.408   6.663   6.753 -0.1327 -0.2284 -0.5145
   63MOL   C37827782   2.422   6.815   6.740 -0.7151 -0.0815 -0.7143
   63MOL   C37927783   2.482   6.875   6.613 -0.5963 -0.2483 -0.0615
   63MOL   C38027784   2.421   6.798   6.491 -0.0393  0.2169  0.3568
   63MOL   C38127785   2.432   6.647   6.508  0.2550  0.4756 -0.1562
   63MOL   C38227786   2.348   6.595   6.624 -0.0241 -0.1882 -0.1596
   63MOL   C38327787   2.410   6.654   7.009 -0.1478  0.8908  1.0085
   63MOL   H38427788   2.341   6.494   6.868 -1.0459 -0.6572 -2.0805
   63MOL   H38527789   2.509   6.621   6.745  0.3779  0.2711  2.7929
   63MOL   H38627790   2.327   6.857   6.772 -0.6359 -0.7159  0.3960
   63MOL   H38727791   2.488   6.843   6.822 -2.1473  0.3564  0.3041
   63MOL   H38827792   2.590   6.866   6.623 -0.9908 -1.6421  4.0289
   63MOL   H38927793   2.474   6.983   6.607  0.6133 -0.1473  0.1161
   63MOL   H39027794   2.320   6.832   6.469  0.4103 -0.3165 -2.7406
   63MOL   H39127795   2.474   6.818   6.398  1.2990  0.1795  1.0868
   63MOL   H39227796   2.384   6.595   6.424 -1.9389  0.2029  1.2160
   63MOL   H39327797   2.539   6.625   6.509  0.5216  1.7569 -0.1758
   63MOL   H39427798   2.248   6.632   6.605  0.6758  1.5155 -0.6587
   63MOL   H39527799   2.352   6.486   6.629  0.1696 -0.3371 -2.5143
   63MOL   H39627800   2.355   6.626   7.098 -0.3108  0.4877  0.7820
   63MOL   H39727801   2.394   6.762   6.999  2.3582  1.2379  0.4103
   63MOL   C39827802   2.562   6.624   7.030  0.4847 -0.1397  0.2979
   63MOL   C39927803   2.635   6.710   7.135 -0.3598  0.0785 -0.0480
   63MOL   C40027804   2.798   6.710   7.135 -0.6612 -0.2063 -0.2727
   63MOL   C40127805   2.863   6.798   7.242  0.3390  0.1117  0.1138
   63MOL   C40227806   2.800   6.936   7.236  0.1215  0.3629 -0.5059
   63MOL   C40327807   2.646   6.931   7.243 -0.2448 -1.0361 -0.8463
   63MOL   C40427808   2.586   6.857   7.133 -0.5267 -0.4908  0.7859
   63MOL   C40527809   2.586   6.476   7.057  0.3343 -0.5010  0.0689
   63MOL   H40627810   2.614   6.660   6.941 -2.7244  0.4816 -1.4304
   63MOL   H40727811   2.604   6.670   7.231  0.1443 -0.7343 -0.2172
   63MOL   H40827812   2.823   6.752   7.038  1.7423 -0.1702  0.3305
   63MOL   H40927813   2.844   6.611   7.138  0.4724  0.2715 -1.8066
   63MOL   H41027814   2.971   6.800   7.233  0.4053 -2.9065 -0.5634
   63MOL   H41127815   2.852   6.751   7.340 -1.0004 -0.5302 -0.3220
   63MOL   H41227816   2.837   6.985   7.146  0.5916  0.2423 -0.3765
   63MOL   H41327817   2.840   7.003   7.312 -1.2122  0.2356  0.3236
   63MOL   H41427818   2.610   6.886   7.335  2.0247 -0.3758  0.3969
   63MOL   H41527819   2.609   7.034   7.239  0.4450 -0.7716 -0.4349
   63MOL   H41627820   2.478   6.874   7.132 -0.3913  0.4351  1.3205
   63MOL   H41727821   2.618   6.900   7.038  1.6556  0.2129  1.8089
   63MOL   H41827822   2.680   6.448   7.105  0.7487 -0.1282 -0.5123
   63MOL   H41927823   2.500   6.433   7.107  0.3743 -1.4776 -0.6888
   63MOL   C42027824   2.609   6.391   6.927 -0.3373  0.0520 -0.3514
   63MOL   C42127825   2.601   6.243   6.953  0.1089 -0.0043 -1.2332
   63MOL   C42227826   2.730   6.180   7.013 -0.0100  0.0632  0.2809
   63MOL   C42327827   2.724   6.022   7.012 -0.2126 -0.5887 -0.3079
   63MOL   C42427828   2.658   5.964   6.887 -0.0913 -0.1356  0.1431
   63MOL   C42527829   2.523   6.038   6.854 -0.3879  0.3121  0.2329
   63MOL   C42627830   2.556   6.178   6.819  0.2326 -0.0437  0.4376
   63MOL   C42727831   2.734   6.442   6.848  0.1745  0.3882  0.7290
   63MOL   H42827832   2.528   6.411   6.856 -0.5071 -2.7106 -1.0052
   63MOL   H42927833   2.529   6.221   7.031  1.1838 -2.0869 -0.7845
   63MOL   H43027834   2.806   6.214   6.943 -0.0970 -1.0519 -0.3535
   63MOL   H43127835   2.755   6.220   7.112 -0.6842 -1.2140  0.9819
   63MOL   H43227836   2.819   5.973   7.035  1.1597  1.8771 -0.4946
   63MOL   H43327837   2.657   5.989   7.091  0.6022  1.1489  1.1581
   63MOL   H43427838   2.650   5.856   6.893 -3.0076 -0.1084 -2.3839
   63MOL   H43527839   2.720   5.979   6.799  1.7683  1.1585  1.6159
   63MOL   H43627840   2.447   6.035   6.932 -0.7422  0.9354 -0.0838
   63MOL   H43727841   2.495   5.993   6.759  0.0700 -0.5205  0.4819
   63MOL   H43827842   2.625   6.187   6.735 -0.2662 -0.2032  0.0121
   63MOL   H43927843   2.460   6.216   6.786 -0.1865  0.3115  2.0121
   63MOL   H44027844   2.822   6.448   6.911  1.1381  0.4036 -0.6093
   63MOL   H44127845   2.749   6.376   6.763 -0.5320 -1.8984  2.3370
   63MOL   H44227846   2.718   6.540   6.803 -1.4701  0.7213  1.9696
   64MOL     C127847   3.855   7.056   6.438  0.1749 -1.1231 -0.4651
   64MOL     C227848   3.766   7.158   6.511 -0.6276  1.2451 -0.1039
   64MOL     C327849   3.642   7.103   6.561  0.5927 -0.2903 -0.8078
   64MOL     C427850   3.556   7.206   6.652 -0.5747  0.3359 -0.8014
   64MOL     C527851   3.524   7.325   6.566 -0.3154  0.1657  0.1084
   64MOL     C627852   3.654   7.381   6.501  0.0177  0.6871  0.0942
   64MOL     C727853   3.731   7.279   6.419  0.1990  0.1767 -0.6351
   64MOL     C827854   4.009   7.061   6.467  0.3579  0.5997  0.3228
   64MOL     H927855   3.818   6.957   6.467 -0.8657 -0.3613  0.9015
   64MOL    H1027856   3.829   7.178   6.598  0.1773 -2.6637  0.3030
   64MOL    H1127857   3.580   7.061   6.481 -0.9371  0.3198  0.0272
   64MOL    H1227858   3.675   7.021   6.625 -0.0286 -0.5796 -0.8549
   64MOL    H1327859   3.601   7.212   6.750  0.3386  0.0445 -1.1963
   64MOL    H1427860   3.461   7.164   6.685  0.4815 -1.7620 -0.3671
   64MOL    H1527861   3.482   7.398   6.635  3.4937  3.1363 -0.5627
   64MOL    H1627862   3.455   7.278   6.496  3.6227 -1.1553 -3.0656
   64MOL    H1727863   3.631   7.467   6.439 -1.3710  1.4405  1.6220
   64MOL    H1827864   3.695   7.426   6.591 -0.8868  2.4638 -0.3563
   64MOL    H1927865   3.826   7.320   6.383  1.2552 -0.7352  1.0369
   64MOL    H2027866   3.676   7.249   6.330  1.7965 -0.7835 -1.3369
   64MOL    H2127867   4.013   7.050   6.576 -1.3425 -1.1827  0.2355
   64MOL    H2227868   4.037   7.164   6.447  2.2950 -0.0632 -0.4475
   64MOL    H2327869   3.843   7.058   6.330 -2.2042 -0.1685 -0.2048
   64MOL    C2427870   4.102   6.961   6.400 -0.1222 -0.3559  0.9356
   64MOL    C2527871   4.258   6.995   6.415  0.2560  0.0670  0.2110
   64MOL    C2627872   4.290   7.133   6.482  0.1547  0.2097 -0.4250
   64MOL    C2727873   4.445   7.154   6.511 -0.1097  0.0271  0.3015
   64MOL    C2827874   4.527   7.132   6.385 -0.4159 -0.4208  0.5342
   64MOL    C2927875   4.493   7.001   6.308 -0.4089 -0.3438  0.2922
   64MOL    C3027876   4.341   6.983   6.286 -0.4686  0.8951  0.0415
   64MOL    C3127877   4.071   6.815   6.417 -0.0846  0.3837 -0.6678
   64MOL    H3227878   4.075   6.970   6.295 -4.7034 -0.5040  2.0307
   64MOL    H3327879   4.296   6.920   6.484 -2.2721 -2.1014 -0.6707
   64MOL    H3427880   4.236   7.146   6.576  0.1933  1.8418 -0.6141
   64MOL    H3527881   4.255   7.205   6.407 -1.0646 -1.8310 -1.8672
   64MOL    H3627882   4.456   7.253   6.554 -0.4784 -0.2710  1.0911
   64MOL    H3727883   4.480   7.078   6.580  1.0415 -0.4838 -0.8254
   64MOL    H3827884   4.635   7.128   6.403 -0.4235  0.8413  0.9756
   64MOL    H3927885   4.515   7.210   6.310 -1.6620 -3.0307 -2.0567
   64MOL    H4027886   4.554   6.996   6.217 -1.2417 -0.6341 -0.2610
   64MOL    H4127887   4.528   6.918   6.369  1.3727 -0.6660 -1.1122
   64MOL    H4227888   4.312   7.071   6.229  0.1642  0.9615 -0.1847
   64MOL    H4327889   4.303   6.892   6.240 -0.1609  0.7898 -0.0011
   64MOL    H4427890   4.136   6.766   6.344  0.9666 -0.0354  0.5250
   64MOL    H4527891   3.970   6.790   6.383 -0.4865  0.4776  0.4193
   64MOL    C4627892   4.100   6.745   6.549 -0.2477  0.0753  0.0763
   64MOL    C4727893   4.202   6.633   6.540 -0.0747 -0.5215  0.1493
   64MOL    C4827894   4.354   6.671   6.504 -1.2126  0.8483 -0.3939
   64MOL    C4927895   4.451   6.554   6.504 -0.6745 -0.0891  0.1209
   64MOL    C5027896   4.398   6.434   6.420 -0.1466 -0.9784 -0.6685
   64MOL    C5127897   4.256   6.405   6.459  0.6801 -0.4338 -0.3686
   64MOL    C5227898   4.162   6.526   6.441 -0.0046  0.5314 -0.1178
   64MOL    C5327899   3.972   6.705   6.628 -0.1860  0.3098 -0.6623
   64MOL    H5427900   4.144   6.818   6.617 -0.3621  1.2950 -1.1513
   64MOL    H5527901   4.189   6.586   6.638 -0.5868  0.0178  0.3414
   64MOL    H5627902   4.364   6.703   6.400  1.0123  1.1711 -0.1207
   64MOL    H5727903   4.382   6.750   6.574 -0.4976 -0.3761  0.7202
   64MOL    H5827904   4.465   6.510   6.602 -0.0336  1.9291  0.9747
   64MOL    H5927905   4.546   6.591   6.465 -0.8751  0.9974  0.6368
   64MOL    H6027906   4.410   6.450   6.313  1.1296 -4.0831 -1.0315
   64MOL    H6127907   4.452   6.344   6.451  0.1840  0.1683  2.2815
   64MOL    H6227908   4.259   6.381   6.565 -0.2710  2.4377  0.3634
   64MOL    H6327909   4.212   6.319   6.408  2.7701 -0.9198 -1.4262
   64MOL    H6427910   4.164   6.564   6.339  1.8047  1.3798  0.2119
   64MOL    H6527911   4.063   6.485   6.458 -0.0170  0.9599  0.8985
   64MOL    H6627912   3.930   6.616   6.582 -0.6388  0.4036 -0.4360
   64MOL    H6727913   3.894   6.777   6.605  0.1820  0.9428  0.0367
   64MOL    C6827914   3.988   6.682   6.783 -0.1431 -0.0166  0.5941
   64MOL    C6927915   3.861   6.730   6.860 -0.0531 -0.3328 -0.1550
   64MOL    C7027916   3.835   6.884   6.865  0.0598 -0.1065  0.0812
   64MOL    C7127917   3.720   6.929   6.954 -0.2918  0.1753 -0.5922
   64MOL    C7227918   3.589   6.838   6.946  0.4999 -0.1569  0.7010
   64MOL    C7327919   3.614   6.694   6.916 -0.0567  0.6095 -0.3128
   64MOL    C7427920   3.726   6.669   6.810  0.5483  0.7215 -0.8397
   64MOL    C7527921   4.020   6.532   6.825  0.9761  0.3634 -0.4225
   64MOL    H7627922   4.071   6.749   6.802 -0.8218  0.3845  2.2618
   64MOL    H7727923   3.880   6.709   6.966  3.8218 -0.7980 -0.8333
   64MOL    H7827924   3.817   6.931   6.768 -1.1889 -2.3034 -0.7646
   64MOL    H7927925   3.923   6.934   6.906  0.2290 -0.0737 -0.3186
   64MOL    H8027926   3.745   6.930   7.060 -1.1437 -0.9457 -0.3657
   64MOL    H8127927   3.690   7.031   6.929 -0.5595  0.2967  0.2025
   64MOL    H8227928   3.532   6.881   6.863  1.9555  4.0054  1.6943
   64MOL    H8327929   3.529   6.846   7.037 -0.5923  0.0342 -0.0240
   64MOL    H8427930   3.525   6.639   6.886  0.9478 -2.8377  2.7589
   64MOL    H8527931   3.639   6.643   7.009 -1.2437 -0.9556 -0.8307
   64MOL    H8627932   3.696   6.717   6.716 -0.9663  2.4640  0.5015
   64MOL    H8727933   3.730   6.562   6.791  0.3463  1.0068 -2.5723
   64MOL    H8827934   3.932   6.471   6.807  2.4901 -1.9581 -0.0773
   64MOL    H8927935   4.094   6.478   6.767 -1.2985 -1.0572 -2.0826
   64MOL    C9027936   4.050   6.510   6.975 -0.7252  0.1595  0.1811
   64MOL    C9127937   4.039   6.360   7.006 -0.1117 -0.0866  0.0502
   64MOL    C9227938   3.898   6.286   6.983 -0.5458  0.5406 -0.9602
   64MOL    C9327939   3.892   6.144   7.043  0.2926 -0.0674 -0.2046
   64MOL    C9427940   4.006   6.060   6.992  0.1346 -0.5382  0.0232
   64MOL    C9527941   4.146   6.126   7.008 -0.5504  0.2521  0.0048
   64MOL    C9627942   4.150   6.263   6.948 -0.1365 -0.4034 -0.1234
   64MOL    C9727943   4.180   6.573   7.020  0.4097  0.0339 -0.7268
   64MOL    H9827944   3.975   6.559   7.036 -2.2914 -2.4124  0.3951
   64MOL    H9927945   4.052   6.352   7.114 -1.4701 -1.1904  0.1467
   64MOL   H10027946   3.895   6.278   6.875  1.9279 -2.5589 -0.8796
   64MOL   H10127947   3.826   6.353   7.029  0.3194 -0.2792  1.6751
   64MOL   H10227948   3.806   6.092   7.000 -0.0331  0.4268 -0.1603
   64MOL   H10327949   3.893   6.133   7.151 -1.2727 -0.2935 -0.1945
   64MOL   H10427950   3.989   6.053   6.884  0.4582 -0.2433 -0.0490
   64MOL   H10527951   4.022   5.957   7.023  4.3217 -0.2952 -1.0598
   64MOL   H10627952   4.179   6.129   7.112  1.0371 -0.1947 -0.4759
   64MOL   H10727953   4.212   6.055   6.957 -1.4350 -1.7898  1.6164
   64MOL   H10827954   4.254   6.286   6.971  0.4676  0.1746 -3.2313
   64MOL   H10927955   4.139   6.242   6.842 -1.7763 -2.5662  0.4271
   64MOL   H11027956   4.257   6.500   6.994  1.2943  0.1352  1.5667
   64MOL   H11127957   4.202   6.662   6.961 -0.9543  0.8986  0.0410
   64MOL   C11227958   4.203   6.604   7.166 -0.5681 -0.0316 -0.0905
   64MOL   C11327959   4.129   6.734   7.198  0.4815 -0.4701 -0.8453
   64MOL   C11427960   4.179   6.868   7.154  0.0727  0.2280  0.9341
   64MOL   C11527961   4.096   6.995   7.189  0.3384 -0.6781 -0.5387
   64MOL   C11627962   4.064   6.995   7.342  0.1154  0.2368  0.2596
   64MOL   C11727963   4.013   6.856   7.384 -0.3987  0.0780 -0.1339
   64MOL   C11827964   4.114   6.741   7.350  0.1193  0.0475  0.4857
   64MOL   C11927965   4.349   6.613   7.200 -0.5785  0.3391  0.4059
   64MOL   H12027966   4.150   6.527   7.222 -0.0330 -0.5533 -0.3036
   64MOL   H12127967   4.030   6.710   7.159  0.1843 -0.1448 -0.2960
   64MOL   H12227968   4.219   6.869   7.052  1.3217  0.1731  1.4263
   64MOL   H12327969   4.273   6.888   7.204 -0.5470 -0.4417  2.3812
   64MOL   H12427970   4.144   7.086   7.153 -0.8147 -0.5122 -1.7034
   64MOL   H12527971   3.995   6.994   7.147  0.1031  0.1023  0.0017
   64MOL   H12627972   4.152   7.016   7.401 -0.3348 -0.1172  1.0569
   64MOL   H12727973   3.994   7.078   7.353  1.2229  1.1832  0.1645
   64MOL   H12827974   3.987   6.859   7.490  0.3289  1.5156  0.0274
   64MOL   H12927975   3.916   6.831   7.342 -0.6017  0.3967  0.1473
   64MOL   H13027976   4.091   6.646   7.397  1.8020 -0.8492 -0.4655
   64MOL   H13127977   4.208   6.780   7.390  0.9559  0.7276 -2.0928
   64MOL   H13227978   4.366   6.672   7.290  0.3559 -0.8764  1.0387
   64MOL   H13327979   4.397   6.673   7.124 -0.0500  0.7122  1.0294
   64MOL   C13427980   4.424   6.469   7.229 -0.3075 -0.3696  0.7193
   64MOL   C13527981   4.380   6.400   7.363  1.1145 -0.5957 -0.2990
   64MOL   C13627982   4.384   6.483   7.492  0.4334 -0.1470  0.1348
   64MOL   C13727983   4.324   6.406   7.612  0.2191  0.1994 -0.4483
   64MOL   C13827984   4.381   6.263   7.641 -1.3228 -0.2210 -0.2398
   64MOL   C13927985   4.374   6.185   7.501  0.2852  0.9202  0.3360
   64MOL   C14027986   4.444   6.268   7.396  0.2389 -0.7555  0.2251
   64MOL   C14127987   4.574   6.488   7.209  0.6030 -0.4669 -0.2727
   64MOL   H14227988   4.377   6.398   7.161  1.7447 -0.9526 -0.1418
   64MOL   H14327989   4.277   6.377   7.335  0.8080 -0.4571  0.6881
   64MOL   H14427990   4.488   6.512   7.507  0.7496 -1.9588  1.5980
   64MOL   H14527991   4.324   6.573   7.473  0.4999 -0.3735 -1.2460
   64MOL   H14627992   4.215   6.400   7.603 -0.0991  0.7473  2.5294
   64MOL   H14727993   4.340   6.468   7.700 -0.6270  0.2576 -0.3246
   64MOL   H14827994   4.484   6.273   7.673 -1.1708  3.6421 -1.7316
   64MOL   H14927995   4.329   6.210   7.722  0.8908  1.5356  2.4027
   64MOL   H15027996   4.272   6.165   7.467  0.9068 -0.6580 -0.6908
   64MOL   H15127997   4.416   6.084   7.505 -2.8866 -0.4874  0.0043
   64MOL   H15227998   4.548   6.285   7.424  0.5060 -0.5545 -0.8899
   64MOL   H15327999   4.459   6.211   7.304 -0.2189 -0.1316 -0.2376
   64MOL   H15428000   4.639   6.414   7.255 -1.0570 -2.2768 -0.8079
   64MOL   H15528001   4.610   6.574   7.266 -1.0178 -0.9301  1.4770
   64MOL   C15628002   4.618   6.494   7.061  0.3573 -0.6805 -0.6822
   64MOL   C15728003   4.588   6.362   6.983  0.4379  0.3301  0.0609
   64MOL   C15828004   4.627   6.374   6.829  0.3335 -0.0936 -0.3538
   64MOL   C15928005   4.563   6.254   6.757  0.3501  0.1653 -0.4100
   64MOL   C16028006   4.593   6.119   6.826  0.8272  0.0204  0.2136
   64MOL   C16128007   4.569   6.115   6.976 -0.2040  0.1482 -0.0975
   64MOL   C16228008   4.636   6.230   7.046  0.9204 -0.0094  0.0229
   64MOL   C16328009   4.765   6.545   7.054 -0.1750 -0.8063  0.2947
   64MOL   H16428010   4.564   6.580   7.020  1.0518 -0.0644 -0.3122
   64MOL   H16528011   4.480   6.352   6.977  0.3028 -0.7247  3.2639
   64MOL   H16628012   4.606   6.472   6.786 -0.9876 -0.1184  0.1969
   64MOL   H16728013   4.735   6.365   6.833  0.4014  1.1559  1.2168
   64MOL   H16828014   4.457   6.283   6.754  0.6864  1.4000 -0.6507
   64MOL   H16928015   4.587   6.255   6.651 -0.9587  1.8700 -0.7275
   64MOL   H17028016   4.694   6.089   6.800  0.5401 -1.1108  0.3782
   64MOL   H17128017   4.529   6.043   6.781  0.2442 -0.2461  1.4762
   64MOL   H17228018   4.619   6.032   7.025  0.5217  0.2129 -0.7243
   64MOL   H17328019   4.461   6.112   6.988 -0.2521  1.2413 -0.1531
   64MOL   H17428020   4.600   6.207   7.146 -4.6266 -1.6118 -2.1807
   64MOL   H17528021   4.745   6.228   7.044  0.8976 -2.1779 -0.0806
   64MOL   H17628022   4.810   6.542   6.955  1.3416  2.2579  0.8464
   64MOL   H17728023   4.824   6.477   7.114  1.1864 -0.7656 -0.9755
   64MOL   C17828024   4.778   6.700   7.090 -0.1828 -0.5322 -0.1678
   64MOL   C17928025   4.864   6.714   7.219 -0.4259 -0.5688 -0.0387
   64MOL   C18028026   4.826   6.848   7.300 -0.1626 -0.4100 -0.0119
   64MOL   C18128027   4.900   6.845   7.435  0.3442 -0.4301  0.4082
   64MOL   C18228028   5.052   6.837   7.410  0.9230  0.1190  0.1423
   64MOL   C18328029   5.087   6.701   7.338  0.2620 -0.3258  0.6341
   64MOL   C18428030   5.011   6.700   7.198 -0.0828 -0.9225  0.3575
   64MOL   C18528031   4.827   6.795   6.976 -0.6398 -0.2851 -0.0570
   64MOL   H18628032   4.685   6.740   7.131  1.9443  2.1376  2.3190
   64MOL   H18728033   4.832   6.625   7.275 -0.6309 -0.8941 -0.6716
   64MOL   H18828034   4.863   6.942   7.257 -0.7207 -0.1058  0.1747
   64MOL   H18928035   4.718   6.853   7.302 -0.0735  2.3979 -0.0182
   64MOL   H19028036   4.876   6.755   7.492 -0.4742  0.7247  1.9416
   64MOL   H19128037   4.879   6.938   7.488  2.3479  0.6995 -0.7322
   64MOL   H19228038   5.085   6.929   7.361  0.7139  0.3352  0.4104
   64MOL   H19328039   5.101   6.859   7.504  0.4430 -0.0053  0.4217
   64MOL   H19428040   5.055   6.616   7.398 -2.1002  0.2410  0.2310
   64MOL   H19528041   5.194   6.693   7.320  0.2255  2.3393 -0.9272
   64MOL   H19628042   5.054   6.787   7.146 -1.2434 -0.7584 -0.3421
   64MOL   H19728043   5.039   6.615   7.136  2.4791  0.5836 -0.6379
   64MOL   H19828044   4.866   6.892   7.007 -0.2558 -0.3949 -0.1936
   64MOL   H19928045   4.913   6.739   6.940  0.9203  1.0928  1.4007
   64MOL   C20028046   4.741   6.813   6.847  0.0062 -0.0523 -0.4048
   64MOL   C20128047   4.608   6.894   6.882  0.0473 -0.2311 -0.3160
   64MOL   C20228048   4.615   7.038   6.934  0.0702  0.1375  0.0513
   64MOL   C20328049   4.471   7.071   6.985 -0.1435 -0.2445 -0.2345
   64MOL   C20428050   4.377   7.080   6.868  0.3868  0.0764 -0.5811
   64MOL   C20528051   4.369   6.945   6.799  0.8179 -0.2768  0.3481
   64MOL   C20628052   4.504   6.875   6.773  0.5912  0.1742 -0.4393
   64MOL   C20728053   4.809   6.876   6.724 -0.1866  0.6742 -0.3409
   64MOL   H20828054   4.706   6.712   6.830  0.1174 -0.1066 -0.3145
   64MOL   H20928055   4.566   6.831   6.961 -1.9966  1.5744  0.0844
   64MOL   H21028056   4.640   7.121   6.869 -0.3689 -0.6701 -1.1673
   64MOL   H21128057   4.691   7.037   7.012 -0.1749 -1.1283  0.2920
   64MOL   H21228058   4.443   6.991   7.053 -1.4855  0.7305  0.3691
   64MOL   H21328059   4.480   7.157   7.052 -2.8549 -0.5774  0.6042
   64MOL   H21428060   4.285   7.127   6.906  1.0490 -0.5578  1.9450
   64MOL   H21528061   4.420   7.151   6.798 -0.4468  2.7554  1.5087
   64MOL   H21628062   4.310   6.875   6.857 -0.2177  0.0285 -0.3241
   64MOL   H21728063   4.313   6.958   6.706  0.0239  0.1331  0.8868
   64MOL   H21828064   4.494   6.770   6.747 -2.1477  0.4006 -0.4371
   64MOL   H21928065   4.538   6.923   6.680 -0.5511 -0.4567 -1.1884
   64MOL   H22028066   4.743   6.857   6.640 -1.5670  0.4198  0.7833
   64MOL   H22128067   4.810   6.983   6.745 -2.8189  0.6910 -0.1464
   64MOL   C22228068   4.948   6.824   6.681 -0.1171 -0.2497 -0.2366
   64MOL   C22328069   4.946   6.671   6.661 -0.3216  0.0432 -0.9760
   64MOL   C22428070   5.085   6.596   6.651 -0.7212 -0.6086 -0.0936
   64MOL   C22528071   5.075   6.439   6.616  0.3239  0.1364  0.6574
   64MOL   C22628072   4.991   6.418   6.489 -0.2820 -0.1160 -0.4004
   64MOL   C22728073   4.851   6.471   6.503 -0.5663  0.1198  0.1801
   64MOL   C22828074   4.848   6.625   6.547  0.2249 -0.6875 -0.1276
   64MOL   C22928075   4.993   6.903   6.564 -0.4520  0.0166  0.2929
   64MOL   H23028076   5.017   6.847   6.762 -1.1973  0.6642  0.4314
   64MOL   H23128077   4.895   6.632   6.748 -0.9553  1.2621 -0.7927
   64MOL   H23228078   5.160   6.644   6.588 -1.1848  1.3274  0.7659
   64MOL   H23328079   5.133   6.605   6.748 -0.2834 -0.2264 -0.3397
   64MOL   H23428080   5.033   6.383   6.700 -0.7105 -0.3132 -0.1382
   64MOL   H23528081   5.172   6.394   6.601  0.3191  0.3872 -0.1428
   64MOL   H23628082   5.027   6.463   6.396  0.8024  0.9221  0.5208
   64MOL   H23728083   4.983   6.310   6.475 -4.0034  0.1497 -0.8237
   64MOL   H23828084   4.797   6.409   6.575 -1.2614 -0.1201 -0.5372
   64MOL   H23928085   4.808   6.446   6.406  0.3170 -5.1865  1.0052
   64MOL   H24028086   4.870   6.690   6.463  0.9567 -0.8646 -0.0765
   64MOL   H24128087   4.748   6.660   6.571  0.7186  0.2974  0.5561
   64MOL   H24228088   4.912   6.907   6.491 -1.1240  1.3958  1.0908
   64MOL   H24328089   5.075   6.851   6.514 -1.4537  0.5186 -1.9301
   64MOL   C24428090   5.064   7.035   6.602 -0.4666  0.1190  0.0584
   64MOL   C24528091   5.068   7.138   6.490  0.0932  1.0974 -0.2120
   64MOL   C24628092   4.934   7.195   6.452  0.0021 -0.0320  0.5450
   64MOL   C24728093   4.963   7.327   6.376 -0.4049 -0.8421 -0.2661
   64MOL   C24828094   5.026   7.295   6.239 -0.1644 -0.4139 -0.0781
   64MOL   C24928095   5.150   7.203   6.256 -0.0588  1.3362  0.0480
   64MOL   C25028096   5.146   7.094   6.366 -0.0965  0.5775 -0.1411
   64MOL   C25128097   5.202   7.017   6.674 -0.1318  0.0149 -0.1847
   64MOL   H25228098   4.997   7.080   6.675 -0.6684  0.2072 -0.1822
   64MOL   H25328099   5.128   7.222   6.525  0.4426  0.7212  0.0836
   64MOL   H25428100   4.882   7.216   6.545  0.9612  0.0764  1.0621
   64MOL   H25528101   4.880   7.128   6.384  0.5631 -0.7047  0.7575
   64MOL   H25628102   4.867   7.375   6.355 -0.0390 -1.4029 -3.3797
   64MOL   H25728103   5.027   7.387   6.441 -0.6944 -0.0725 -0.6892
   64MOL   H25828104   4.953   7.249   6.172 -0.0484 -2.0459  0.8660
   64MOL   H25928105   5.050   7.392   6.196 -0.1851 -1.2458 -2.0143
   64MOL   H26028106   5.227   7.267   6.299 -0.9146  1.2335  1.8136
   64MOL   H26128107   5.196   7.177   6.161 -1.1873  0.3325 -0.2479
   64MOL   H26228108   5.085   7.011   6.332 -2.1764  1.6334  0.9215
   64MOL   H26328109   5.247   7.063   6.392 -0.1514  0.1529 -0.4280
   64MOL   H26428110   5.275   6.975   6.605 -1.6963 -0.5759 -1.5250
   64MOL   H26528111   5.197   6.937   6.748  2.4375  0.0806  0.0974
   64MOL   C26628112   5.273   7.137   6.746 -0.3735  0.2155 -0.0074
   64MOL   C26728113   5.180   7.228   6.822  0.5552 -0.2170  0.3744
   64MOL   C26828114   5.249   7.355   6.868  0.3184  0.0350  0.1250
   64MOL   C26928115   5.150   7.450   6.940 -0.0655  0.3801  0.0589
   64MOL   C27028116   5.094   7.384   7.062  0.2452  0.5489  0.3614
   64MOL   C27128117   5.019   7.252   7.033  0.0328 -0.9614  0.2737
   64MOL   C27228118   5.110   7.164   6.946  0.1520  0.5602  0.4574
   64MOL   C27328119   5.399   7.083   6.833  1.1071 -1.1323  0.0689
   64MOL   H27428120   5.316   7.189   6.661 -2.9003  2.6534  0.1148
   64MOL   H27528121   5.103   7.264   6.753 -1.5966 -2.5619  1.4546
   64MOL   H27628122   5.343   7.355   6.923 -0.2942 -0.4430  1.2071
   64MOL   H27728123   5.283   7.407   6.779  0.2868  2.9148  1.7619
   64MOL   H27828124   5.070   7.477   6.872 -0.4091  0.0696  0.3328
   64MOL   H27928125   5.214   7.535   6.963  0.2959 -0.1184  0.9287
   64MOL   H28028126   5.177   7.349   7.124  1.1834  0.0308 -1.1667
   64MOL   H28128127   5.044   7.461   7.121  0.3389  2.6036 -2.1563
   64MOL   H28228128   4.922   7.264   6.985 -0.1911  1.9348  1.3339
   64MOL   H28328129   4.997   7.206   7.129  0.5917 -0.4361  0.6644
   64MOL   H28428130   5.050   7.083   6.905 -0.2158  1.1104 -0.0968
   64MOL   H28528131   5.185   7.124   7.014  1.3005  2.1566  0.1675
   64MOL   H28628132   5.369   6.992   6.884  0.5406 -0.6217  0.6535
   64MOL   H28728133   5.418   7.157   6.911  0.9576 -0.8976 -0.1168
   64MOL   C28828134   5.528   7.067   6.751  0.2868 -0.1622 -0.2095
   64MOL   C28928135   5.601   6.930   6.782 -0.1918  1.0574 -0.2163
   64MOL   C29028136   5.618   6.906   6.933 -0.4731  0.2255 -0.0440
   64MOL   C29128137   5.677   6.764   6.962 -0.2660 -0.4519  0.2336
   64MOL   C29228138   5.597   6.649   6.888  0.2603  0.4092  0.6057
   64MOL   C29328139   5.594   6.671   6.740  0.1141 -0.3195  0.1780
   64MOL   C29428140   5.524   6.807   6.713  0.1728 -0.3416  0.2297
   64MOL   C29528141   5.620   7.193   6.772  1.2168  0.2758  0.2328
   64MOL   H29628142   5.516   7.062   6.643  1.5795 -0.7716 -0.3245
   64MOL   H29728143   5.695   6.927   6.727 -1.6096  1.3820 -2.7466
   64MOL   H29828144   5.686   6.976   6.981 -1.6194 -1.0115  3.6184
   64MOL   H29928145   5.525   6.903   6.989 -0.5229  1.3253 -0.0671
   64MOL   H30028146   5.782   6.765   6.933 -0.7582 -0.9788 -1.6423
   64MOL   H30128147   5.680   6.739   7.068 -0.9394  4.0660  1.4319
   64MOL   H30228148   5.494   6.641   6.925  0.8700 -2.1959  1.8446
   64MOL   H30328149   5.636   6.548   6.905 -4.0357 -1.4856  0.0011
   64MOL   H30428150   5.526   6.596   6.700 -0.1822  0.3002 -0.5081
   64MOL   H30528151   5.693   6.654   6.699  0.4617  1.0577  0.4274
   64MOL   H30628152   5.418   6.802   6.737  0.4829  1.6469  2.2184
   64MOL   H30728153   5.522   6.823   6.605  1.0758 -1.7695 -0.0075
   64MOL   H30828154   5.553   7.278   6.783 -2.0822 -1.9228 -2.0408
   64MOL   H30928155   5.677   7.182   6.864  1.3545 -1.2762 -0.0233
   64MOL   C31028156   5.712   7.220   6.642  0.2435 -0.2598 -0.4885
   64MOL   C31128157   5.622   7.300   6.542  0.3264 -0.1991  0.5056
   64MOL   C31228158   5.588   7.450   6.570  0.3105  0.2149 -0.1609
   64MOL   C31328159   5.476   7.499   6.477 -0.0076  0.1206  0.1483
   64MOL   C31428160   5.501   7.474   6.323  0.1176  0.0095 -0.7008
   64MOL   C31528161   5.548   7.329   6.295 -0.0778  0.2880  0.0397
   64MOL   C31628162   5.657   7.279   6.392 -0.1417 -0.4709 -0.0318
   64MOL   C31728163   5.847   7.293   6.673  0.4058 -0.1800  0.4407
   64MOL   H31828164   5.734   7.125   6.592  0.7622 -1.0456  1.1753
   64MOL   H31928165   5.521   7.259   6.550 -0.4599  1.5235 -0.4492
   64MOL   H32028166   5.571   7.471   6.676 -0.7733 -0.8774 -0.1045
   64MOL   H32128167   5.675   7.510   6.543 -1.0410  1.9324 -0.8239
   64MOL   H32228168   5.471   7.607   6.488  0.0105  0.1143  0.2206
   64MOL   H32328169   5.377   7.458   6.500  0.1249 -0.2343  0.0898
   64MOL   H32428170   5.408   7.493   6.269  0.7415  1.3054 -1.3484
   64MOL   H32528171   5.576   7.548   6.295  0.8841  0.0808  1.4520
   64MOL   H32628172   5.461   7.266   6.314 -0.1632  0.8161  1.3828
   64MOL   H32728173   5.577   7.318   6.190 -0.7905  1.5604 -0.2947
   64MOL   H32828174   5.754   7.319   6.362  0.8279 -2.7919 -0.1125
   64MOL   H32928175   5.673   7.175   6.364  0.0795 -0.4684  0.0824
   64MOL   H33028176   5.831   7.370   6.748 -1.1188 -0.3267  0.2716
   64MOL   H33128177   5.875   7.353   6.586  0.7564  1.1032  1.4302
   64MOL   C33228178   5.950   7.192   6.738  0.6483 -0.1236  0.3402
   64MOL   C33328179   6.013   7.252   6.867  0.5833  0.8360 -0.3002
   64MOL   C33428180   5.911   7.282   6.979  0.3380  0.3368  0.1673
   64MOL   C33528181   5.973   7.314   7.115 -0.5509 -0.4173 -0.0154
   64MOL   C33628182   6.074   7.432   7.100  0.1282 -0.0897  0.4628
   64MOL   C33728183   6.166   7.413   6.988 -0.2677 -0.0274  0.7383
   64MOL   C33828184   6.098   7.379   6.854  0.9072  0.7684 -0.1545
   64MOL   C33928185   6.070   7.146   6.641  0.2661 -0.1646 -0.2628
   64MOL   H34028186   5.890   7.105   6.761 -0.5030  0.3025 -0.9912
   64MOL   H34128187   6.084   7.175   6.897 -2.1107 -2.0110 -1.0054
   64MOL   H34228188   5.835   7.360   6.970 -1.3111 -1.0442  1.5526
   64MOL   H34328189   5.852   7.193   7.002  3.1385 -1.2423  1.4533
   64MOL   H34428190   5.892   7.334   7.185 -0.7780 -0.2468 -0.3282
   64MOL   H34528191   6.024   7.223   7.148 -1.2432 -0.9792 -0.4797
   64MOL   H34628192   6.017   7.525   7.098  1.2469  0.6219  1.5444
   64MOL   H34728193   6.136   7.441   7.189  0.5419 -0.3019  0.1929
   64MOL   H34828194   6.231   7.332   7.021 -0.7027 -0.1818  1.2165
   64MOL   H34928195   6.220   7.505   6.968  0.8106 -0.3773  1.9630
   64MOL   H35028196   6.172   7.375   6.774  1.4038  2.6333  0.2067
   64MOL   H35128197   6.033   7.462   6.829 -0.2256  0.2843  1.1110
   64MOL   H35228198   6.130   7.080   6.704 -0.9995  0.0033  1.1714
   64MOL   H35328199   6.125   7.234   6.606  0.2642 -1.3104 -3.2065
   64MOL   C35428200   6.034   7.070   6.502 -0.4561 -0.8973  0.3961
   64MOL   C35528201   5.956   6.937   6.523  0.5873 -0.0921  0.1655
   64MOL   C35628202   6.049   6.819   6.569 -0.1170 -0.5008  0.6833
   64MOL   C35728203   5.966   6.692   6.590  0.0769 -0.1065 -0.0244
   64MOL   C35828204   5.889   6.658   6.461  0.2848  0.0727  0.0158
   64MOL   C35928205   5.792   6.768   6.431 -0.2180 -0.2656 -0.3038
   64MOL   C36028206   5.882   6.893   6.400  0.1814 -0.0594 -0.5449
   64MOL   C36128207   6.157   7.058   6.405  0.3410 -0.1556 -0.1864
   64MOL   H36228208   5.965   7.142   6.457 -0.5323 -3.4680 -3.8993
   64MOL   H36328209   5.875   6.958   6.594  0.7743 -0.6573  0.5511
   64MOL   H36428210   6.104   6.845   6.659 -0.1586  3.1568 -0.2507
   64MOL   H36528211   6.126   6.802   6.494 -1.3943 -0.1014 -0.7414
   64MOL   H36628212   6.037   6.612   6.612  2.1011  1.3522 -1.0640
   64MOL   H36728213   5.887   6.703   6.663 -0.8046 -0.8493 -0.8535
   64MOL   H36828214   5.952   6.644   6.373  0.8476  3.2941 -0.1511
   64MOL   H36928215   5.820   6.574   6.470 -1.6919  1.4950 -1.4220
   64MOL   H37028216   5.724   6.749   6.348 -0.5434  1.2174 -0.3935
   64MOL   H37128217   5.727   6.805   6.509 -0.4534 -1.3641  0.0212
   64MOL   H37228218   5.815   6.971   6.364  0.7475  0.4658 -0.4696
   64MOL   H37328219   5.942   6.873   6.312 -1.0268 -2.1772 -0.9447
   64MOL   H37428220   6.118   6.988   6.332 -2.0023 -0.5076  1.3331
   64MOL   H37528221   6.248   7.015   6.449 -0.1059  0.1534  1.0710
   64MOL   C37628222   6.184   7.173   6.311 -0.7537 -0.1773 -0.5689
   64MOL   C37728223   6.338   7.178   6.275 -0.4017 -0.0162 -0.4182
   64MOL   C37828224   6.370   7.063   6.178 -0.6694 -0.4984 -0.2507
   64MOL   C37928225   6.515   7.068   6.136 -0.2272  0.3185 -0.0476
   64MOL   C38028226   6.608   7.069   6.262 -0.2964  0.2029  0.4457
   64MOL   C38128227   6.587   7.194   6.351  0.5184 -0.2745  0.2395
   64MOL   C38228228   6.442   7.211   6.395 -0.2409 -0.5381 -1.2247
   64MOL   C38328229   6.085   7.192   6.190 -0.0074  0.0954 -0.2135
   64MOL   H38428230   6.172   7.263   6.372 -0.0041 -0.0188 -0.6510
   64MOL   H38528231   6.345   7.259   6.204  1.8697 -2.4628 -3.1143
   64MOL   H38628232   6.360   6.962   6.218  1.5453 -0.8315 -0.4492
   64MOL   H38728233   6.308   7.073   6.089 -0.5454  3.9288  0.0526
   64MOL   H38828234   6.536   7.158   6.078  0.4654 -0.2188 -0.6594
   64MOL   H38928235   6.543   6.979   6.079 -1.5077 -1.0325  1.3641
   64MOL   H39028236   6.590   6.981   6.325 -0.9640  0.6906  0.9358
   64MOL   H39128237   6.709   7.059   6.223 -0.8519  1.4099 -1.3322
   64MOL   H39228238   6.660   7.208   6.430  1.4396  1.6971 -0.9262
   64MOL   H39328239   6.599   7.277   6.282 -0.3072 -2.1894 -2.2941
   64MOL   H39428240   6.423   7.146   6.481 -1.0031  0.2348 -0.8059
   64MOL   H39528241   6.413   7.309   6.433 -0.1069 -1.1633  0.5836
   64MOL   H39628242   5.986   7.174   6.231 -0.2508  1.1315 -0.3293
   64MOL   H39728243   6.108   7.108   6.125  1.6076 -1.4306  2.2691
   64MOL   C39828244   6.088   7.319   6.114 -0.0295  0.2982  0.0386
   64MOL   C39928245   6.002   7.314   5.984 -0.0671  0.6880 -0.8681
   64MOL   C40028246   6.068   7.228   5.878  0.1461  0.6369 -0.2481
   64MOL   C40128247   5.979   7.219   5.756 -0.2078  0.3782  0.6973
   64MOL   C40228248   5.827   7.186   5.783 -0.3647  0.2056 -0.4042
   64MOL   C40328249   5.769   7.268   5.899  0.5912  0.3143  0.0476
   64MOL   C40428250   5.865   7.254   6.023 -0.1831 -0.0140  0.5581
   64MOL   C40528251   6.043   7.444   6.195  1.0267 -0.9507  0.5035
   64MOL   H40628252   6.191   7.329   6.078  0.6709 -0.7106  1.7036
   64MOL   H40728253   5.989   7.411   5.937 -3.3823  1.3661  1.3116
   64MOL   H40828254   6.100   7.127   5.901 -1.1911  0.3211  0.2641
   64MOL   H40928255   6.165   7.270   5.849  0.5539 -0.6359 -0.7589
   64MOL   H41028256   6.023   7.150   5.684  1.4047  0.2159  1.8038
   64MOL   H41128257   5.985   7.310   5.697  0.3447  0.0287  0.2086
   64MOL   H41228258   5.819   7.081   5.809 -2.0804 -0.2015 -2.4466
   64MOL   H41328259   5.763   7.197   5.696  1.4445 -0.7827 -1.9056
   64MOL   H41428260   5.764   7.368   5.857  0.2276 -0.2477 -1.2591
   64MOL   H41528261   5.666   7.244   5.924  0.9694 -0.2598  1.1094
   64MOL   H41628262   5.814   7.304   6.105  0.0542  2.2201 -0.5968
   64MOL   H41728263   5.872   7.149   6.050 -1.5174 -0.1422  0.4616
   64MOL   H41828264   5.965   7.509   6.155  2.1993  1.0255  1.3573
   64MOL   H41928265   6.012   7.404   6.292  1.3011 -4.1814 -0.6853
   64MOL   C42028266   6.154   7.542   6.218  0.4827  0.4360 -0.1869
   64MOL   C42128267   6.134   7.627   6.343  0.5098 -0.4805 -0.5906
   64MOL   C42228268   6.171   7.566   6.472  0.4502  0.3217  0.8844
   64MOL   C42328269   6.179   7.672   6.582  0.2538 -0.5491  0.3344
   64MOL   C42428270   6.056   7.764   6.606  0.4579  0.4127 -0.1035
   64MOL   C42528271   6.003   0.038   6.473 -0.3093 -0.8032  0.3045
   64MOL   C42628272   6.002   7.698   6.365  0.2611 -0.1734 -0.2383
   64MOL   C42728273   6.169   7.643   6.096 -0.3939  0.1482  0.0327
   64MOL   H42828274   6.253   7.498   6.234 -0.1980 -0.8743  0.5616
   64MOL   H42928275   6.207   7.706   6.324  3.8031 -3.0918  0.7900
   64MOL   H43028276   6.108   7.484   6.504 -1.9382  1.8799  0.2934
   64MOL   H43128277   6.273   7.527   6.469  0.2748 -0.1109  0.3414
   64MOL   H43228278   6.208   7.626   6.677  1.1786 -2.3409 -0.7685
   64MOL   H43328279   6.257   7.747   6.567 -2.1853  1.6019 -2.2366
   64MOL   H43428280   6.072   0.076   6.673 -2.2287  0.7060  0.2367
   64MOL   H43528281   5.974   7.704   6.646  2.6134 -1.6541  1.3356
   64MOL   H43628282   6.067   0.121   6.444 -2.2135  1.0061  1.1454
   64MOL   H43728283   5.902   0.077   6.489 -0.2941 -0.6413 -0.0082
   64MOL   H43828284   5.933   7.623   6.401 -1.3820  1.3543 -0.1206
   64MOL   H43928285   5.945   7.744   6.285 -2.0871 -0.4053  1.2665
   64MOL   H44028286   6.172   7.592   6.000  0.5367  1.9079 -0.9015
   64MOL   H44128287   6.092   7.721   6.096 -0.5020  0.0495 -1.2749
   64MOL   H44228288   6.258   7.705   6.107  0.4293 -1.2921  1.6797
   65MOL     C128289   4.037   4.912   4.203 -0.4566 -0.7278  0.3524
   65MOL     C228290   4.004   4.770   4.243 -0.6496 -0.4813  0.5264
   65MOL     C328291   4.136   4.691   4.235  0.3548 -0.3112 -0.6960
   65MOL     C428292   4.127   4.552   4.293  0.0642 -0.3388  0.4227
   65MOL     C528293   4.005   4.483   4.223 -0.1498 -0.6626 -0.4397
   65MOL     C628294   3.871   4.565   4.225  0.9905  1.0626 -1.0121
   65MOL     C728295   3.886   4.701   4.169  0.0032 -0.0712 -0.3172
   65MOL     C828296   3.925   5.021   4.236 -0.8430  0.0722  0.6843
   65MOL     H928297   4.124   4.937   4.263 -0.1210  0.8474 -0.7576
   65MOL    H1028298   3.972   4.774   4.347  2.6515 -0.3724  1.6148
   65MOL    H1128299   4.181   4.695   4.137  0.1661  1.0726 -0.7318
   65MOL    H1228300   4.206   4.735   4.306  0.1819 -2.0907  0.6423
   65MOL    H1328301   4.113   4.557   4.401  1.1120  1.5160  0.5008
   65MOL    H1428302   4.223   4.504   4.273 -0.5505 -1.0669 -0.8843
   65MOL    H1528303   3.972   4.391   4.272  0.4579 -0.0694  1.1195
   65MOL    H1628304   4.027   4.464   4.118 -1.4719  2.2999 -1.3060
   65MOL    H1728305   3.793   4.513   4.169 -1.1262  2.1799  0.8085
   65MOL    H1828306   3.825   4.572   4.324  1.8360  0.5127 -0.5770
   65MOL    H1928307   3.800   4.767   4.177  0.9717  1.1325  0.5228
   65MOL    H2028308   3.902   4.702   4.061 -0.1736  0.4574 -0.3394
   65MOL    H2128309   3.923   5.024   4.345 -0.6819  0.4635  0.6771
   65MOL    H2228310   3.831   4.974   4.206 -1.8044  2.5892 -0.3963
   65MOL    H2328311   4.085   4.926   4.106  1.8030  0.7528  1.6492
   65MOL    C2428312   3.928   5.168   4.188  0.0941 -0.5743  0.3140
   65MOL    C2528313   3.817   5.260   4.249 -0.1921  0.4425  0.2593
   65MOL    C2628314   3.677   5.191   4.256 -0.4140  0.0072 -0.0815
   65MOL    C2728315   3.562   5.280   4.300 -0.1631  0.5080  0.0943
   65MOL    C2828316   3.553   5.412   4.230  0.2084 -0.2475 -0.5125
   65MOL    C2928317   3.688   5.483   4.233 -0.3852  0.1792  1.0747
   65MOL    C3028318   3.800   5.396   4.172  0.5255 -0.0736  0.0105
   65MOL    C3128319   4.073   5.226   4.212  0.2101  0.1312  0.1916
   65MOL    H3228320   3.900   5.155   4.083  1.7881 -2.7044  0.1048
   65MOL    H3328321   3.849   5.282   4.351  0.8377 -0.8373  0.2255
   65MOL    H3428322   3.676   5.116   4.336  0.2423 -3.5057 -3.2248
   65MOL    H3528323   3.653   5.147   4.159 -1.4094  1.5652 -0.5614
   65MOL    H3628324   3.468   5.229   4.285  0.5949 -0.7439 -0.4301
   65MOL    H3728325   3.569   5.301   4.407 -0.3736 -2.2560  0.6806
   65MOL    H3828326   3.478   5.471   4.282 -0.3473 -1.4021  0.0064
   65MOL    H3928327   3.522   5.413   4.126 -2.0538 -0.2909  0.1416
   65MOL    H4028328   3.681   5.575   4.175  3.8285 -0.7400 -1.0337
   65MOL    H4128329   3.706   5.525   4.332  0.6562 -0.0723  0.9890
   65MOL    H4228330   3.772   5.376   4.069 -1.8181  2.4496  0.1255
   65MOL    H4328331   3.890   5.456   4.187 -0.0311  0.3203  1.9100
   65MOL    H4428332   4.112   5.181   4.304 -1.1759  0.1155  0.7848
   65MOL    H4528333   4.052   5.332   4.224 -0.6779  0.1557 -1.4754
   65MOL    C4628334   4.167   5.208   4.093 -0.6795 -0.2236  0.5037
   65MOL    C4728335   4.319   5.215   4.114 -0.3362 -0.3447 -0.2245
   65MOL    C4828336   4.370   5.116   4.217  0.6330 -0.9230  0.1808
   65MOL    C4928337   4.521   5.118   4.245 -0.3876 -0.3242  0.2025
   65MOL    C5028338   4.575   5.261   4.278  0.6400 -0.5515  0.5478
   65MOL    C5128339   4.516   5.363   4.179  0.2933 -0.5768 -0.0939
   65MOL    C5228340   4.366   5.353   4.158  0.8385 -0.0665 -0.8661
   65MOL    C5328341   4.117   5.313   3.991  0.1295 -0.2646  0.0684
   65MOL    H5428342   4.146   5.107   4.058  0.4719 -0.1303 -0.4914
   65MOL    H5528343   4.368   5.202   4.017 -2.6180 -0.3761 -1.4219
   65MOL    H5628344   4.304   5.131   4.302 -1.3091  0.3655 -1.4789
   65MOL    H5728345   4.350   5.016   4.179  1.4058 -0.6922 -0.8704
   65MOL    H5828346   4.571   5.080   4.157  1.4516  3.7860 -0.6268
   65MOL    H5928347   4.537   5.049   4.328  0.8078 -0.9855 -0.5791
   65MOL    H6028348   4.559   5.295   4.380  0.7611 -1.1841  0.7798
   65MOL    H6128349   4.683   5.257   4.271  0.7713  1.0758  1.3102
   65MOL    H6228350   4.560   5.342   4.081 -0.3288 -0.8783 -0.3126
   65MOL    H6328351   4.553   5.461   4.207 -1.6364  0.7914 -2.1777
   65MOL    H6428352   4.310   5.375   4.248  1.2058  0.4517 -0.7629
   65MOL    H6528353   4.344   5.430   4.085  0.7222  2.1653  1.4534
   65MOL    H6628354   4.145   5.411   4.031 -2.8282 -0.4233  2.7246
   65MOL    H6728355   4.008   5.319   3.999  0.3436  2.6627  1.7112
   65MOL    C6828356   4.161   5.300   3.845 -0.0287 -0.0491  0.2773
   65MOL    C6928357   4.086   5.185   3.774 -1.1582  0.3729  0.0519
   65MOL    C7028358   3.939   5.218   3.727  0.3221 -1.2581  0.5841
   65MOL    C7128359   3.858   5.103   3.663 -0.3475  0.0416  0.0334
   65MOL    C7228360   3.945   5.034   3.551  0.2592 -0.6974 -0.1240
   65MOL    C7328361   4.079   4.989   3.614  0.4364 -0.0690 -0.1647
   65MOL    C7428362   4.163   5.108   3.665 -0.2503 -0.4119 -0.2628
   65MOL    C7528363   4.149   5.437   3.769  0.1267  0.7111  0.4651
   65MOL    H7628364   4.264   5.267   3.837 -0.3286 -1.4191  1.8791
   65MOL    H7728365   4.075   5.111   3.854 -1.7700  1.8489  1.3683
   65MOL    H7828366   3.944   5.289   3.644  2.3843 -2.5707 -0.4607
   65MOL    H7928367   3.882   5.260   3.810 -2.1831 -1.7282 -0.8472
   65MOL    H8028368   3.844   5.034   3.746 -0.0114  0.1300  0.1694
   65MOL    H8128369   3.760   5.143   3.641  0.4985  0.4557 -3.1869
   65MOL    H8228370   3.957   5.103   3.468 -2.7734  0.5310  0.3867
   65MOL    H8328371   3.896   4.944   3.514 -1.3015  0.6119 -1.3389
   65MOL    H8428372   4.134   4.940   3.533  0.7551 -2.0333  1.2111
   65MOL    H8528373   4.062   4.919   3.695 -0.2419  1.2439  0.8344
   65MOL    H8628374   4.213   5.161   3.583  0.0768 -0.8075 -0.3212
   65MOL    H8728375   4.247   5.054   3.709 -0.4758 -2.7407 -2.5450
   65MOL    H8828376   4.125   5.415   3.666  1.3370 -4.3463  1.1565
   65MOL    H8928377   4.051   5.479   3.795 -0.5237 -0.4201 -0.1508
   65MOL    C9028378   4.256   5.543   3.800  0.2766 -0.2284  0.5174
   65MOL    C9128379   4.397   5.506   3.748  0.3608 -0.3085 -0.5542
   65MOL    C9228380   4.412   5.492   3.594 -0.7483 -0.0592  0.1188
   65MOL    C9328381   4.554   5.458   3.545  0.0988  0.3879 -0.2116
   65MOL    C9428382   4.657   5.565   3.600 -0.5565 -0.4324  0.9238
   65MOL    C9528383   4.648   5.562   3.757  0.8698 -0.0474 -0.0004
   65MOL    C9628384   4.506   5.597   3.808  0.4830  0.4689 -0.5739
   65MOL    C9728385   4.201   5.689   3.750 -0.5324  0.8123 -0.2819
   65MOL    H9828386   4.277   5.545   3.907 -3.1652 -0.1018  1.2309
   65MOL    H9928387   4.413   5.402   3.776 -3.1868 -0.9084 -0.4828
   65MOL   H10028388   4.396   5.591   3.551 -0.2290  0.2969  0.7370
   65MOL   H10128389   4.341   5.424   3.547 -0.4497  0.2953 -0.8598
   65MOL   H10228390   4.560   5.456   3.436  1.0178 -1.7673 -0.1378
   65MOL   H10328391   4.590   5.368   3.594  0.7591  0.1784 -1.0825
   65MOL   H10428392   4.642   5.669   3.571 -0.0530 -1.1043 -1.9987
   65MOL   H10528393   4.761   5.547   3.570 -0.2299  0.5101  1.4678
   65MOL   H10628394   4.681   5.464   3.791 -0.6219 -0.4509  0.2844
   65MOL   H10728395   4.721   5.633   3.797 -0.9485  0.5927  2.2411
   65MOL   H10828396   4.508   5.595   3.917 -2.2493  1.3194 -0.4746
   65MOL   H10928397   4.486   5.700   3.779  0.2465  0.0493 -1.9250
   65MOL   H11028398   4.277   5.766   3.737  0.3981  0.1315  0.9845
   65MOL   H11128399   4.171   5.668   3.648 -0.4984  0.0828 -0.1490
   65MOL   C11228400   4.084   5.751   3.838  0.0567  1.1213 -0.0164
   65MOL   C11328401   3.948   5.747   3.762  0.4623  0.4812 -0.1401
   65MOL   C11428402   3.933   5.855   3.652 -0.1929  0.3355  0.1914
   65MOL   C11528403   3.798   5.837   3.573  0.4487  0.0335 -0.1320
   65MOL   C11628404   3.684   5.873   3.667 -0.2686 -0.2527 -0.0883
   65MOL   C11728405   3.689   5.772   3.780  0.1081 -0.0881  0.5978
   65MOL   C11828406   3.823   5.773   3.854  0.1456  0.2163 -0.0703
   65MOL   C11928407   4.129   5.900   3.861 -0.3128 -0.5159 -0.2248
   65MOL   H12028408   4.076   5.712   3.940 -0.4610 -0.1982 -0.5544
   65MOL   H12128409   3.922   5.648   3.726 -0.5043  1.0288 -0.9794
   65MOL   H12228410   4.009   5.845   3.574 -2.2185  1.1622 -1.9708
   65MOL   H12328411   3.945   5.954   3.696 -1.1831  0.4440  0.2298
   65MOL   H12428412   3.788   5.897   3.483 -1.1237  0.5834  0.3786
   65MOL   H12528413   3.783   5.734   3.541 -0.0374  0.7801 -2.3910
   65MOL   H12628414   3.703   5.973   3.706 -1.3080 -0.7294  1.7028
   65MOL   H12728415   3.582   5.867   3.631 -0.5392 -0.6967  0.7411
   65MOL   H12828416   3.598   5.775   3.839 -0.8001  0.6272 -0.8259
   65MOL   H12928417   3.669   5.673   3.740 -1.8229  1.3268 -2.0400
   65MOL   H13028418   3.812   5.703   3.936 -0.4645  1.1843  0.6867
   65MOL   H13128419   3.841   5.866   3.908 -0.6027 -1.0584  2.4501
   65MOL   H13228420   4.040   5.956   3.890 -0.8950 -1.1452 -0.7821
   65MOL   H13328421   4.151   5.937   3.760 -1.9864  0.5192 -0.2260
   65MOL   C13428422   4.244   5.941   3.963 -0.1736 -0.8132 -0.6635
   65MOL   C13528423   4.234   5.867   4.097  0.3889  0.2386 -0.9879
   65MOL   C13628424   4.109   5.891   4.177 -0.5113  0.2175  0.0839
   65MOL   C13728425   4.082   5.797   4.294  0.5319  0.4130  0.0124
   65MOL   C13828426   4.196   5.805   4.384 -0.4984 -0.4873 -0.1971
   65MOL   C13928427   4.334   5.785   4.309 -0.0004  0.0137 -0.7199
   65MOL   C14028428   4.349   5.883   4.190 -0.2687  0.0610  0.8478
   65MOL   C14128429   4.261   6.100   3.977  0.3280 -0.8655 -0.0107
   65MOL   H14228430   4.326   5.898   3.907  1.6281 -0.5629  1.7180
   65MOL   H14328431   4.235   5.762   4.067  0.3410 -0.1337  0.2955
   65MOL   H14428432   4.126   5.989   4.222 -1.0894  0.0438  0.7025
   65MOL   H14528433   4.026   5.892   4.107  2.0256  0.9930 -2.9826
   65MOL   H14628434   4.079   5.693   4.263 -3.3001 -0.1256  1.8600
   65MOL   H14728435   3.990   5.815   4.350  0.1776 -0.7474 -0.1942
   65MOL   H14828436   4.197   5.899   4.440 -1.1983 -1.4704  1.4827
   65MOL   H14928437   4.182   5.733   4.465 -2.6542  1.4217  1.1882
   65MOL   H15028438   4.333   5.683   4.272  0.5479  0.4232 -1.8728
   65MOL   H15128439   4.415   5.792   4.382  1.2347  2.2955 -2.2480
   65MOL   H15228440   4.348   5.987   4.224  0.6300  0.4577 -0.3144
   65MOL   H15328441   4.445   5.859   4.144 -0.4511 -0.5404  0.7797
   65MOL   H15428442   4.191   6.148   4.044  0.4165  0.2990 -0.7503
   65MOL   H15528443   4.229   6.140   3.881  1.7029  0.5817  0.1267
   65MOL   C15628444   4.404   6.165   4.005 -0.1064  0.4984 -0.0680
   65MOL   C15728445   4.399   6.314   4.046 -0.8923  0.5668  0.1150
   65MOL   C15828446   4.350   6.400   3.934  0.2137  0.3941  0.5303
   65MOL   C15928447   4.356   6.546   3.972  0.3873  0.5298 -0.0417
   65MOL   C16028448   4.272   6.575   4.099 -0.7330  0.1790 -0.0033
   65MOL   C16128449   4.323   6.483   4.213  0.2434 -0.6421  1.0245
   65MOL   C16228450   4.317   6.332   4.180  0.6523 -0.5559 -0.0120
   65MOL   C16328451   4.511   6.126   3.893 -0.0441 -0.7675  0.3900
   65MOL   H16428452   4.443   6.124   4.098  0.0280 -1.8789 -1.1315
   65MOL   H16528453   4.498   6.355   4.066 -0.3529 -2.3148  3.9356
   65MOL   H16628454   4.413   6.394   3.845  1.4649 -3.0799  1.5756
   65MOL   H16728455   4.246   6.383   3.907 -0.2015  3.8957 -0.3559
   65MOL   H16828456   4.460   6.574   3.993  0.7303 -0.0895 -0.8819
   65MOL   H16928457   4.326   6.602   3.883 -1.3039 -3.5811 -2.1725
   65MOL   H17028458   4.173   6.541   4.067  0.6728 -3.1795 -0.9321
   65MOL   H17128459   4.258   6.679   4.127 -2.7941  0.2080 -0.9903
   65MOL   H17228460   4.256   6.504   4.296  1.9001  1.2781  1.9314
   65MOL   H17328461   4.420   6.515   4.251  0.7224  1.1576 -1.5018
   65MOL   H17428462   4.372   6.271   4.253  1.9034  1.5812  0.8808
   65MOL   H17528463   4.212   6.304   4.183  0.4208  0.3885  1.0967
   65MOL   H17628464   4.477   6.182   3.806 -1.2756  0.0214  1.3510
   65MOL   H17728465   4.482   6.026   3.861 -1.9518  0.1018 -0.7368
   65MOL   C17828466   4.659   6.154   3.934 -0.5537 -0.3544 -0.7286
   65MOL   C17928467   4.710   6.040   4.026  0.1817 -0.1060 -1.0379
   65MOL   C18028468   4.846   6.080   4.092 -0.2327  0.6302  0.8244
   65MOL   C18128469   4.885   5.978   4.205  0.1072 -0.2019  0.6465
   65MOL   C18228470   4.906   5.842   4.130 -0.1616  0.2856  0.5595
   65MOL   C18328471   4.774   5.797   4.060 -0.2360 -0.4855 -0.3366
   65MOL   C18428472   4.722   5.903   3.964 -0.3078  0.2049  0.1139
   65MOL   C18528473   4.744   6.166   3.811 -0.6641 -0.1279  0.3222
   65MOL   H18628474   4.665   6.247   3.990 -0.0623 -0.1074 -1.1925
   65MOL   H18728475   4.640   6.029   4.109  1.0699 -1.0276 -0.4079
   65MOL   H18828476   4.931   6.068   4.025  0.6536 -0.7705  2.1595
   65MOL   H18928477   4.836   6.188   4.107  0.5435  1.0639 -1.5325
   65MOL   H19028478   4.807   5.966   4.280  0.7202 -2.6797  0.9370
   65MOL   H19128479   4.978   6.006   4.254 -0.5542 -0.6641  2.1842
   65MOL   H19228480   4.982   5.868   4.056 -0.7392  2.2933  0.6539
   65MOL   H19328481   4.933   5.769   4.206 -0.4504  1.8993  2.2443
   65MOL   H19428482   4.699   5.782   4.138  0.1080  0.6540  0.2184
   65MOL   H19528483   4.770   5.696   4.020 -1.2295 -0.2998 -0.7218
   65MOL   H19628484   4.794   5.894   3.882 -1.1156 -0.9648 -0.4860
   65MOL   H19728485   4.627   5.867   3.925 -0.9179  2.7295 -0.8420
   65MOL   H19828486   4.846   6.158   3.849 -1.8270 -1.6449  3.2222
   65MOL   H19928487   4.725   6.081   3.745 -2.3604  0.1552  0.4254
   65MOL   C20028488   4.733   6.293   3.715  0.4012 -0.2398  0.7177
   65MOL   C20128489   4.727   6.423   3.795  0.5390 -0.1769  0.1059
   65MOL   C20228490   4.849   6.445   3.892  0.4235  0.3159 -0.7305
   65MOL   C20328491   4.832   6.563   3.986 -0.2287  0.1142 -0.3910
   65MOL   C20428492   4.816   6.681   3.899  0.6371  0.0320  0.4521
   65MOL   C20528493   4.697   6.674   3.798  0.4307 -0.3796  0.1246
   65MOL   C20628494   4.713   6.551   3.715 -0.3548 -0.2483  0.6766
   65MOL   C20728495   4.850   6.285   3.609 -0.2399  0.4112  0.1334
   65MOL   H20828496   4.636   6.284   3.666 -0.0744  1.1269  1.3755
   65MOL   H20928497   4.640   6.412   3.861  1.7579 -0.9934  1.5907
   65MOL   H21028498   4.944   6.462   3.840  1.4159  1.9011  1.5362
   65MOL   H21128499   4.873   6.353   3.946 -3.0425 -1.4143 -1.9597
   65MOL   H21228500   4.741   6.539   4.040 -0.4865 -0.4771 -1.0726
   65MOL   H21328501   4.903   6.584   4.066 -0.1872  1.6944 -0.8234
   65MOL   H21428502   4.806   6.765   3.968 -0.4674  0.1077  0.2236
   65MOL   H21528503   4.909   6.694   3.845  0.6965 -1.4255  0.1922
   65MOL   H21628504   4.600   6.673   3.849  0.5671  0.3499  0.3907
   65MOL   H21728505   4.697   6.753   3.724  0.1783 -1.3887 -0.9788
   65MOL   H21828506   4.621   6.537   3.658 -0.4288 -1.2529  1.0299
   65MOL   H21928507   4.804   6.571   3.659 -1.0920  2.0867  0.2476
   65MOL   H22028508   4.852   6.363   3.533  0.2483  0.0286 -0.2541
   65MOL   H22128509   4.947   6.297   3.658 -1.3489  1.5004  2.1251
   65MOL   C22228510   4.862   6.149   3.528 -0.1215  0.4328  0.8528
   65MOL   C22328511   4.724   6.112   3.464  0.0291  0.2940  0.4038
   65MOL   C22428512   4.707   5.968   3.430  0.2601  0.4835 -0.3384
   65MOL   C22528513   4.582   5.915   3.373  0.7499 -0.0416 -0.3168
   65MOL   C22628514   4.544   6.008   3.250  0.5286 -0.0034  0.2412
   65MOL   C22728515   4.548   6.165   3.287 -0.0259  0.1212 -0.0840
   65MOL   C22828516   4.694   6.202   3.341 -0.0597  0.2830 -0.1049
   65MOL   C22928517   4.977   6.147   3.421 -0.5861 -0.0287 -1.1600
   65MOL   H23028518   4.889   6.075   3.603 -0.1776  0.6423  1.0789
   65MOL   H23128519   4.639   6.126   3.530 -2.1079  1.1315 -2.4178
   65MOL   H23228520   4.786   5.947   3.358 -1.6265 -3.6595 -1.3211
   65MOL   H23328521   4.715   5.905   3.519  0.2781 -0.8075 -1.2395
   65MOL   H23428522   4.498   5.905   3.442  0.1547  3.1734 -0.5019
   65MOL   H23528523   4.590   5.815   3.330 -1.8348 -1.5131  2.4325
   65MOL   H23628524   4.615   5.992   3.169 -1.1027  0.8917 -1.3904
   65MOL   H23728525   4.443   5.987   3.214  0.4882  1.4098 -0.4963
   65MOL   H23828526   4.475   6.197   3.361 -0.7225 -0.8036 -0.3723
   65MOL   H23928527   4.523   6.219   3.195  0.2736 -1.3823 -1.0535
   65MOL   H24028528   4.770   6.183   3.265 -0.6203  1.3900 -0.9475
   65MOL   H24128529   4.721   6.304   3.368 -0.0764  0.6771 -1.5338
   65MOL   H24228530   4.970   6.235   3.357  2.3923  1.7845  0.8996
   65MOL   H24328531   4.963   6.068   3.346  0.0972  0.6647 -2.0297
   65MOL   C24428532   5.122   6.146   3.475 -0.0061  0.4586  0.5507
   65MOL   C24528533   5.229   6.187   3.373  0.1263 -0.3607 -1.0428
   65MOL   C24628534   5.245   6.338   3.348  0.3101  0.5515  0.0791
   65MOL   C24728535   5.384   6.371   3.278 -0.4535  0.0840  0.5712
   65MOL   C24828536   5.397   6.294   3.146 -0.1886 -0.0554 -0.4228
   65MOL   C24928537   5.353   6.143   3.159  0.2176  0.1558 -0.2774
   65MOL   C25028538   5.227   6.113   3.242  0.1181 -0.1000  0.5006
   65MOL   C25128539   5.156   6.011   3.543 -0.0934  0.3596  0.6347
   65MOL   H25228540   5.116   6.224   3.551 -1.4685  1.3831 -0.5056
   65MOL   H25328541   5.320   6.174   3.432 -0.8359  0.1054  0.5600
   65MOL   H25428542   5.230   6.390   3.442 -0.5754 -1.5773  1.1426
   65MOL   H25528543   5.162   6.368   3.284  1.6331 -0.1800 -2.0490
   65MOL   H25628544   5.397   6.479   3.263  1.0280  0.0001  1.1658
   65MOL   H25728545   5.467   6.335   3.339  0.2693  0.2368 -0.3185
   65MOL   H25828546   5.339   6.351   3.073 -0.1672 -0.5444 -0.8222
   65MOL   H25928547   5.499   6.291   3.107 -0.7658 -1.7052 -1.8345
   65MOL   H26028548   5.431   6.086   3.210 -2.2330 -1.4933  1.7483
   65MOL   H26128549   5.326   6.098   3.064 -1.2558 -1.8804  1.0773
   65MOL   H26228550   5.134   6.138   3.190 -0.6549 -1.6487  1.0830
   65MOL   H26328551   5.228   6.005   3.256  3.3627 -0.1264  0.4419
   65MOL   H26428552   5.236   5.960   3.490  0.7244  1.2755  0.9646
   65MOL   H26528553   5.067   5.950   3.532  0.2054  0.2013 -1.0317
   65MOL   C26628554   5.197   6.019   3.689  0.1936  0.8703 -0.0597
   65MOL   C26728555   5.211   5.879   3.757 -0.1765  0.1054 -0.1877
   65MOL   C26828556   5.292   5.773   3.682  0.1760  0.7998 -0.5675
   65MOL   C26928557   5.297   5.631   3.753 -0.5756  0.5539 -0.1041
   65MOL   C27028558   5.156   5.587   3.792 -0.5604  0.7657  0.4002
   65MOL   C27128559   5.066   5.688   3.862 -0.2727  0.1304  0.2204
   65MOL   C27228560   5.068   5.818   3.780 -0.5552  0.7146 -0.6291
   65MOL   C27328561   5.325   6.102   3.692  0.2114  0.0854  0.0405
   65MOL   H27428562   5.116   6.061   3.749 -0.3298 -1.1723  0.7064
   65MOL   H27528563   5.255   5.889   3.856 -0.4733 -1.7793  0.1405
   65MOL   H27628564   5.252   5.753   3.582 -3.1934  0.5709  0.7606
   65MOL   H27728565   5.398   5.799   3.676  0.3767  1.0073  3.1051
   65MOL   H27828566   5.358   5.627   3.844  2.5861  0.7956 -2.1633
   65MOL   H27928567   5.350   5.558   3.692  0.1591  1.5861 -0.7131
   65MOL   H28028568   5.104   5.569   3.698 -1.4489 -0.5379  1.1128
   65MOL   H28128569   5.149   5.486   3.834 -2.7264  1.0051  0.6716
   65MOL   H28228570   5.101   5.714   3.962  2.3217  0.8580 -0.8428
   65MOL   H28328571   4.970   5.639   3.882 -1.4820  2.6405  0.6823
   65MOL   H28428572   5.009   5.888   3.839 -0.8914 -1.2511  1.4309
   65MOL   H28528573   5.021   5.800   3.683 -1.1561 -1.1759 -0.0273
   65MOL   H28628574   5.323   6.200   3.646  1.8773  1.0217  1.8880
   65MOL   H28728575   5.391   6.041   3.630  1.0655  2.3651 -1.3652
   65MOL   C28828576   5.403   6.119   3.819  0.1033 -0.4264 -0.4454
   65MOL   C28928577   5.311   6.169   3.939 -0.0147 -0.3022 -0.8155
   65MOL   C29028578   5.392   6.153   4.072  0.7272  0.0818 -0.0140
   65MOL   C29128579   5.311   6.212   4.190  0.3490  0.2528  0.1598
   65MOL   C29228580   5.251   6.356   4.172 -0.5830  0.3196 -0.0668
   65MOL   C29328581   5.174   6.360   4.036 -0.2885  0.7113 -0.2483
   65MOL   C29428582   5.268   6.310   3.924  0.4249  0.1761  0.5117
   65MOL   C29528583   5.538   6.199   3.797 -0.8882 -0.8759  0.2982
   65MOL   H29628584   5.435   6.020   3.851 -0.3807  0.0727  1.6480
   65MOL   H29728585   5.222   6.107   3.948 -0.2211  0.0221 -0.6225
   65MOL   H29828586   5.414   6.048   4.086 -1.4130 -0.4912 -0.6803
   65MOL   H29928587   5.490   6.201   4.063  0.9074 -0.3125 -0.1498
   65MOL   H30028588   5.235   6.136   4.204 -1.0676  1.2511 -1.7677
   65MOL   H30128589   5.379   6.213   4.275  0.4378  0.7813  0.0866
   65MOL   H30228590   5.344   6.411   4.156 -0.4935  0.5043  1.0700
   65MOL   H30328591   5.197   6.386   4.262 -1.2670  0.9709 -0.6837
   65MOL   H30428592   5.140   6.462   4.018 -0.4796  0.7822  0.4832
   65MOL   H30528593   5.082   6.302   4.047  0.3696  0.2958  3.7122
   65MOL   H30628594   5.358   6.371   3.925 -0.2068  1.1281 -0.1279
   65MOL   H30728595   5.221   6.325   3.827  0.3863 -0.8971  0.3637
   65MOL   H30828596   5.527   6.302   3.761  3.9730 -0.8816 -1.6463
   65MOL   H30928597   5.589   6.210   3.893  0.4804 -1.8493 -0.3058
   65MOL   C31028598   5.638   6.116   3.699 -0.5031 -0.6222 -0.2342
   65MOL   C31128599   5.666   6.178   3.561  0.2541 -0.1400 -0.1926
   65MOL   C31228600   5.761   6.300   3.555  0.6426 -0.4244  0.3394
   65MOL   C31328601   5.783   6.359   3.420  0.5396 -0.3105  0.4712
   65MOL   C31428602   5.833   6.261   3.322  0.4066  0.2099 -0.0058
   65MOL   C31528603   5.739   6.142   3.303 -0.1239  0.1362  0.1809
   65MOL   C31628604   5.705   6.083   3.445 -0.3309  1.2768  0.3344
   65MOL   C31728605   5.768   6.100   3.786 -0.3176  0.2620 -0.0816
   65MOL   H31828606   5.591   6.019   3.684  0.6651 -0.7939 -3.0279
   65MOL   H31928607   5.578   6.227   3.518  0.3961  0.3523  0.0857
   65MOL   H32028608   5.704   6.368   3.618  1.7774  0.6354  0.2622
   65MOL   H32128609   5.851   6.276   3.611 -0.0472  2.4381  2.8450
   65MOL   H32228610   5.858   6.437   3.439 -0.6817  1.0654 -0.2893
   65MOL   H32328611   5.690   6.405   3.387  0.5395 -1.4395 -1.1271
   65MOL   H32428612   5.835   6.311   3.226 -2.2337  1.8766  0.7734
   65MOL   H32528613   5.935   6.228   3.346  0.3589  0.2540  0.2616
   65MOL   H32628614   5.647   6.185   3.261 -0.4648  0.1063  0.8906
   65MOL   H32728615   5.765   6.066   3.230 -1.5915 -0.4485  0.2482
   65MOL   H32828616   5.783   6.010   3.469  0.0261  1.6040  0.1765
   65MOL   H32928617   5.617   6.020   3.435 -0.3228  1.4875 -1.2037
   65MOL   H33028618   5.744   6.060   3.885  2.0882  0.4906  0.6258
   65MOL   H33128619   5.819   6.195   3.800  0.6313  0.1208 -2.3826
   65MOL   C33228620   5.879   5.999   3.731 -0.4554 -0.0736  0.0188
   65MOL   C33328621   5.815   5.850   3.721  0.7439 -0.5704 -0.5115
   65MOL   C33428622   5.722   5.797   3.839 -0.2147 -0.3576  0.0576
   65MOL   C33528623   5.663   5.670   3.818  0.3811  0.3494 -0.7006
   65MOL   C33628624   5.775   5.564   3.798  0.5293  0.0584 -0.3031
   65MOL   C33728625   5.845   5.611   3.671 -0.0881 -0.3257  0.1793
   65MOL   C33828626   5.919   5.745   3.685  0.3553 -0.0647 -0.2262
   65MOL   C33928627   6.008   6.009   3.811  0.4046 -0.4767  0.6160
   65MOL   H34028628   5.901   6.038   3.632  3.5219 -4.9873 -1.2135
   65MOL   H34128629   5.740   5.842   3.642  0.3743 -2.2900 -0.0190
   65MOL   H34228630   5.781   5.809   3.929 -0.7627  0.3488  0.3295
   65MOL   H34328631   5.640   5.867   3.854 -0.0397 -1.0203  4.5266
   65MOL   H34428632   5.590   5.647   3.897 -1.1969 -0.6818 -2.4029
   65MOL   H34528633   5.597   5.674   3.731  1.0032  1.1386 -1.1360
   65MOL   H34628634   5.836   5.568   3.889  1.0098 -1.6967 -0.5315
   65MOL   H34728635   5.736   5.467   3.769  1.0434 -0.7316  1.5370
   65MOL   H34828636   5.773   5.614   3.589  1.6517 -0.1183 -1.3781
   65MOL   H34928637   5.911   5.526   3.652 -1.9305 -1.3870 -1.7649
   65MOL   H35028638   5.964   5.766   3.588 -0.8696 -0.8717 -0.9906
   65MOL   H35128639   5.999   5.738   3.758 -1.1652  2.8265  1.8048
   65MOL   H35228640   6.005   5.926   3.882  0.2019  0.2313  1.4330
   65MOL   H35328641   6.018   6.092   3.881 -0.5297 -1.9064  2.5054
   65MOL   C35428642   6.148   6.009   3.735 -0.5940 -0.3502  0.4701
   65MOL   C35528643   6.267   5.991   3.827 -0.2536 -0.4648 -0.1562
   65MOL   C35628644   6.293   5.847   3.870  0.2706  1.0717 -0.2748
   65MOL   C35728645   6.432   5.843   3.944 -0.5312  0.0384  0.5245
   65MOL   C35828646   6.434   5.938   4.063 -0.0217 -0.4318  0.5971
   65MOL   C35928647   6.401   6.076   4.018  0.0127 -0.7369  0.4839
   65MOL   C36028648   6.263   6.076   3.948 -0.1342  0.1550  0.1928
   65MOL   C36128649   6.160   6.140   3.657  0.5395 -0.3806  0.3336
   65MOL   H36228650   6.134   5.929   3.662  1.0586  0.1801 -0.4666
   65MOL   H36328651   6.362   6.002   3.773  0.2749 -2.3337  0.3460
   65MOL   H36428652   6.308   5.775   3.790 -0.0118 -0.2241  0.8195
   65MOL   H36528653   6.223   5.800   3.940  0.4560  0.8473 -0.2425
   65MOL   H36628654   6.467   5.743   3.968 -1.3223  0.0105  1.6186
   65MOL   H36728655   6.504   5.875   3.869 -1.2642 -2.2019 -1.1914
   65MOL   H36828656   6.357   5.894   4.127  1.5694  0.0476  2.8923
   65MOL   H36928657   6.534   5.934   4.106 -0.1916 -1.0275  0.9487
   65MOL   H37028658   6.391   6.142   4.104 -0.0805  0.5918 -0.5218
   65MOL   H37128659   6.486   6.111   3.959 -1.1851  0.3909 -0.5880
   65MOL   H37228660   6.243   6.179   3.918 -1.3499 -0.4107 -1.0032
   65MOL   H37328661   6.187   6.054   4.023  1.4403 -1.1152  1.4358
   65MOL   H37428662   6.172   6.223   3.726 -1.7420 -0.1757  0.5165
   65MOL   H37528663   6.068   6.156   3.600  0.3069 -1.2264  0.4630
   65MOL   C37628664   6.277   6.156   3.557 -1.1958  0.9511 -0.1914
   65MOL   C37728665   6.293   6.045   3.457 -0.0426 -0.0550 -0.0041
   65MOL   C37828666   6.432   6.037   3.387  0.1013  0.8085  0.4659
   65MOL   C37928667   6.433   5.914   3.304 -0.4333 -0.2080 -0.1427
   65MOL   C38028668   6.323   5.892   3.199  0.4498 -0.0942  0.4165
   65MOL   C38128669   6.188   5.901   3.273  0.0009 -0.1531  0.7127
   65MOL   C38228670   6.176   6.030   3.355 -0.4327  0.6575  0.6458
   65MOL   C38328671   6.286   6.295   3.497 -0.1653 -0.8825  0.7026
   65MOL   H38428672   6.370   6.145   3.614  0.5050  0.3480 -2.9495
   65MOL   H38528673   6.278   5.954   3.514 -0.6532  0.8972  1.3749
   65MOL   H38628674   6.459   6.126   3.332 -1.1355  0.2823 -1.0264
   65MOL   H38728675   6.515   6.024   3.457  0.9918  0.1439 -0.7107
   65MOL   H38828676   6.430   5.834   3.378  2.1444 -1.0634 -0.9044
   65MOL   H38928677   6.535   5.906   3.264 -1.3309 -0.8624 -2.3804
   65MOL   H39028678   6.323   5.974   3.127  3.8376 -0.4460 -0.0341
   65MOL   H39128679   6.329   5.802   3.138  0.0552 -0.0869  0.3601
   65MOL   H39228680   6.108   5.906   3.199 -0.5278  1.4727  1.3743
   65MOL   H39328681   6.161   5.816   3.337 -1.3511  0.1353  0.5451
   65MOL   H39428682   6.172   6.116   3.287 -0.2010 -1.8600 -2.6865
   65MOL   H39528683   6.082   6.044   3.409  1.3958  1.1231  3.8398
   65MOL   H39628684   6.196   6.322   3.444 -0.0756 -2.2486 -0.1550
   65MOL   H39728685   6.365   6.290   3.423 -0.9972 -1.2798 -0.1578
   65MOL   C39828686   6.319   6.420   3.598  0.0906  0.1908 -0.3757
   65MOL   C39928687   6.455   6.402   3.672  0.3032 -0.2189 -0.6633
   65MOL   C40028688   6.582   6.437   3.593  0.0722 -0.0187  0.5061
   65MOL   C40128689   6.717   6.438   3.668 -0.5402 -1.3780  0.2420
   65MOL   C40228690   6.706   6.522   3.801 -0.3154 -0.3992 -1.0914
   65MOL   C40328691   6.582   6.479   3.885  0.0702 -0.3222  0.1916
   65MOL   C40428692   6.449   6.483   3.808  1.0219  0.0084 -0.1395
   65MOL   C40528693   6.306   6.559   3.537 -0.0857 -0.0144 -0.2105
   65MOL   H40628694   6.232   6.411   3.662  0.4943 -1.1401 -0.0122
   65MOL   H40728695   6.472   6.305   3.718  2.4682  1.3006  1.9722
   65MOL   H40828696   6.570   6.539   3.558 -0.5300 -0.1595  0.2958
   65MOL   H40928697   6.588   6.378   3.502  1.1510 -1.2015  1.3209
   65MOL   H41028698   6.795   6.493   3.616 -2.7418  0.4189 -1.2920
   65MOL   H41128699   6.756   6.338   3.689  0.3948 -0.9941  0.3554
   65MOL   H41228700   6.698   6.631   3.790  0.4392 -0.2573 -0.3601
   65MOL   H41328701   6.795   6.511   3.862 -0.5435 -2.6327 -1.1292
   65MOL   H41428702   6.601   6.383   3.935 -0.7145  0.5560  2.2496
   65MOL   H41528703   6.562   6.550   3.965  2.5479  0.4281  0.1749
   65MOL   H41628704   6.362   6.446   3.864  0.7768 -0.1474 -0.6190
   65MOL   H41728705   6.448   6.587   3.775 -2.0622 -0.5130 -1.9026
   65MOL   H41828706   6.364   6.639   3.583 -2.2261  1.0598  0.7133
   65MOL   H41928707   6.337   6.563   3.433 -0.5810  1.6062 -0.3139
   65MOL   C42028708   6.156   6.614   3.525  0.4824  0.0433  0.9128
   65MOL   C42128709   6.138   6.719   3.412  0.4141 -0.0910 -0.8859
   65MOL   C42228710   6.207   6.853   3.432  0.0332 -0.0711 -0.4133
   65MOL   C42328711   6.200   6.935   3.304  1.0990  0.4383  0.1019
   65MOL   C42428712   6.055   6.968   3.267  0.4486 -0.2232  0.2596
   65MOL   C42528713   5.967   6.836   3.253 -0.0166 -0.0058  0.3712
   65MOL   C42628714   5.994   6.733   3.368 -0.1985 -0.3694  1.0880
   65MOL   C42728715   6.106   6.663   3.661 -0.4743 -0.2430 -0.3357
   65MOL   H42828716   6.090   6.531   3.500 -1.1421  1.9976 -1.3741
   65MOL   H42928717   6.185   6.679   3.322 -0.8263  1.2984 -2.1917
   65MOL   H43028718   6.159   6.914   3.510  1.2353 -1.3671  1.3907
   65MOL   H43128719   6.311   6.844   3.462  0.8754 -2.3913 -3.7873
   65MOL   H43228720   6.253   7.028   3.320 -1.3531  1.9038 -0.0552
   65MOL   H43328721   6.257   6.876   3.232  2.3404 -0.5337  1.8250
   65MOL   H43428722   6.054   7.024   3.174  1.1545 -0.8957 -0.1599
   65MOL   H43528723   6.014   7.037   3.341  1.1596  1.6465 -1.0763
   65MOL   H43628724   5.998   6.797   3.156 -2.0849 -1.5377  0.2887
   65MOL   H43728725   5.861   6.862   3.254 -0.0482 -0.1037 -0.3847
   65MOL   H43828726   5.928   6.757   3.452  0.4285  0.9800  1.2017
   65MOL   H43928727   5.955   6.638   3.330 -0.8441  0.1985  0.3248
   65MOL   H44028728   5.998   6.680   3.664 -0.0478  2.4084  1.5105
   65MOL   H44128729   6.119   6.581   3.732 -3.4879  0.0593  0.6285
   65MOL   H44228730   6.158   6.752   3.696  0.2262 -2.1017  3.6269
   66MOL     C128731   0.048   7.016   0.939  0.0898  0.0313 -0.0066
   66MOL     C228732   0.096   7.143   1.020 -0.1457  1.1540  0.0833
   66MOL     C328733   0.218   7.125   1.116 -0.4192 -0.7298 -1.0461
   66MOL     C428734   0.251   7.244   1.202  0.2914  0.1799 -0.2640
   66MOL     C528735   0.127   7.305   1.265  0.0928  0.7565  0.1063
   66MOL     C628736   0.021   7.329   1.166 -0.6814  0.4837 -0.1690
   66MOL     C728737   7.752   7.206   1.097 -0.0472  0.6800  0.4989
   66MOL     C828738   7.723   7.047   0.819  0.2128 -0.5745  0.0901
   66MOL     H928739   0.135   6.968   0.895 -1.2854 -1.3410 -1.2970
   66MOL    H1028740   0.125   7.223   0.952 -0.3542  0.5531 -0.7300
   66MOL    H1128741   0.209   7.037   1.179 -1.0101 -1.2007 -1.7812
   66MOL    H1228742   0.307   7.109   1.056 -0.2442  0.2588 -1.0688
   66MOL    H1328743   0.287   7.321   1.135 -0.3154 -0.8850 -1.8507
   66MOL    H1428744   0.336   7.230   1.270  0.4812  1.2367 -0.2749
   66MOL    H1528745   0.178   7.390   1.311  2.2416  0.2103 -1.2109
   66MOL    H1628746   0.084   7.234   1.336  1.8569 -0.0204  0.4154
   66MOL    H1728747   7.703   7.367   1.215 -1.3566 -1.4857  0.1506
   66MOL    H1828748   0.062   7.399   1.094  0.6407  0.5142  0.6038
   66MOL    H1928749   7.664   7.223   1.036 -0.5823 -1.8868  0.4956
   66MOL    H2028750   7.714   7.131   1.166 -1.1884 -0.1261 -0.9829
   66MOL    H2128751   7.766   7.123   0.754  1.0720  0.5153  1.8998
   66MOL    H2228752   7.643   7.104   0.866  1.5303 -0.2133  1.9481
   66MOL    H2328753   0.005   6.940   1.004 -0.8140  1.2181  0.8222
   66MOL    C2428754   7.652   6.930   0.750 -0.1739 -0.0767 -0.3493
   66MOL    C2528755   7.740   6.827   0.675  0.0923  0.4294 -0.7493
   66MOL    C2628756   0.066   6.893   0.573  0.3948 -0.2328  0.5350
   66MOL    C2728757   0.148   6.787   0.502  0.3229 -0.0708  0.1063
   66MOL    C2828758   0.058   6.691   0.418  0.6999 -0.3603 -0.4179
   66MOL    C2928759   7.725   6.629   0.516 -0.3186  0.3805  1.0282
   66MOL    C3028760   7.644   6.731   0.592 -0.1765 -0.0073 -0.1125
   66MOL    C3128761   7.547   6.871   0.848  0.2832  0.6829 -0.4756
   66MOL    H3228762   7.591   6.976   0.672 -0.9789 -0.6841 -0.0872
   66MOL    H3328763   0.028   6.766   0.742 -0.0055  0.4514 -0.6419
   66MOL    H3428764   0.130   6.970   0.618  1.0112 -0.9612  0.9239
   66MOL    H3528765   0.001   6.947   0.504  1.8230 -1.6439 -1.9689
   66MOL    H3628766   0.214   6.826   0.425 -0.0432 -0.2522 -0.3007
   66MOL    H3728767   0.202   6.732   0.579  0.7733 -1.5132 -1.2181
   66MOL    H3828768   0.109   6.615   0.359  0.0483 -0.0290 -1.4318
   66MOL    H3928769   0.010   6.748   0.338 -0.5699 -0.0315  0.5548
   66MOL    H4028770   7.665   6.562   0.453 -0.3873  0.2195  1.2644
   66MOL    H4128771   7.772   6.561   0.588 -1.3812 -0.8886  0.5520
   66MOL    H4228772   7.594   6.788   0.514 -1.1851 -3.3586 -2.0138
   66MOL    H4328773   7.565   6.688   0.653  0.3346 -0.3949  0.2725
   66MOL    H4428774   7.562   6.908   0.949  1.2623 -1.2097  0.0948
   66MOL    H4528775   7.572   6.766   0.860  0.0664  0.7146  0.2284
   66MOL    C4628776   7.403   6.895   0.797  0.5271  0.0899 -0.2529
   66MOL    C4728777   7.361   7.049   0.807 -0.2824 -0.3437 -0.0718
   66MOL    C4828778   7.337   7.099   0.958  0.1939  0.2787 -0.1515
   66MOL    C4928779   7.318   7.251   0.966 -0.4447  0.5674 -0.5923
   66MOL    C5028780   7.210   7.302   0.867  0.1446 -0.0172  0.3906
   66MOL    C5128781   7.240   7.255   0.724  0.5037 -0.0638  0.3131
   66MOL    C5228782   7.242   7.101   0.722 -0.2875  0.6941 -0.1685
   66MOL    C5328783   7.287   6.810   0.857 -0.0809 -0.3786  0.4762
   66MOL    H5428784   7.403   6.875   0.690  1.4616  0.9616 -0.4266
   66MOL    H5528785   7.443   7.105   0.761 -0.0108 -1.2684 -0.7299
   66MOL    H5628786   7.243   7.059   0.995 -1.1614  2.2821 -1.3237
   66MOL    H5728787   7.426   7.092   1.020 -1.8671 -0.2464  2.8350
   66MOL    H5828788   7.414   7.290   0.932  0.0258 -1.4255 -1.6012
   66MOL    H5928789   7.299   7.282   1.069  0.6953  0.4844 -0.3456
   66MOL    H6028790   7.111   7.272   0.903 -0.3386  1.8202  0.6092
   66MOL    H6128791   7.206   7.409   0.850 -0.9078 -0.1662 -0.3910
   66MOL    H6228792   7.336   7.296   0.694 -0.7206  2.1601 -0.7040
   66MOL    H6328793   7.164   7.296   0.657 -1.7350 -3.0860  0.8735
   66MOL    H6428794   7.146   7.062   0.755 -0.1692  1.7033  1.4096
   66MOL    H6528795   7.244   7.059   0.621 -0.1084  0.8280 -0.2223
   66MOL    H6628796   7.206   6.814   0.783  0.9774 -0.5236 -0.7137
   66MOL    H6728797   7.235   6.848   0.944  1.1840 -0.6336  1.3557
   66MOL    C6828798   7.319   6.660   0.882 -0.5270 -0.0660  0.1074
   66MOL    C6928799   7.393   6.645   1.013  0.3470  0.3468 -0.4892
   66MOL    C7028800   7.295   6.647   1.134 -0.4662  0.2464 -0.1436
   66MOL    C7128801   7.386   6.659   1.259 -0.1005  0.4615  0.7221
   66MOL    C7228802   7.488   6.543   1.275  0.4341 -0.0362  1.0207
   66MOL    C7328803   7.576   6.530   1.153 -0.5604  0.5017 -0.6672
   66MOL    C7428804   7.492   6.527   1.024  0.1141  0.6386  0.1381
   66MOL    C7528805   7.195   6.564   0.863 -0.3559 -0.3176  0.0148
   66MOL    H7628806   7.388   6.617   0.809 -1.7252 -0.8720 -0.5716
   66MOL    H7728807   7.442   6.739   1.034  0.9296 -0.2893  1.0731
   66MOL    H7828808   7.239   6.554   1.146 -1.9835  0.9380 -1.6576
   66MOL    H7928809   7.228   6.733   1.133 -0.6234  0.1088 -1.5843
   66MOL    H8028810   7.433   6.756   1.248  1.5426 -0.5080 -1.2403
   66MOL    H8128811   7.329   6.660   1.352 -0.9230  1.3096  0.2116
   66MOL    H8228812   7.439   6.445   1.280  3.5924 -1.9140 -2.6625
   66MOL    H8328813   7.555   6.560   1.359 -0.1670  0.7109  1.3580
   66MOL    H8428814   7.636   6.439   1.153  1.3681  1.7236 -1.7482
   66MOL    H8528815   7.650   6.610   1.145 -0.0375 -0.2079 -3.5248
   66MOL    H8628816   7.440   6.431   1.029 -0.9991  1.3435  3.1736
   66MOL    H8728817   7.554   6.518   0.935 -0.2196 -0.5525  0.0188
   66MOL    H8828818   7.149   6.531   0.956  1.3418 -0.2528  0.8964
   66MOL    H8928819   7.107   6.625   0.844 -1.1541 -1.0261  1.3635
   66MOL    C9028820   7.191   6.457   0.751  0.6696 -0.0700  0.4829
   66MOL    C9128821   7.291   6.347   0.784 -0.3584  0.5936 -0.0643
   66MOL    C9228822   7.247   6.259   0.897  0.1793  0.2871 -0.4905
   66MOL    C9328823   7.360   6.157   0.935 -0.2667  0.2162 -0.3797
   66MOL    C9428824   7.400   6.080   0.814 -0.7711 -1.2703  0.4029
   66MOL    C9528825   7.452   6.168   0.692  0.0231 -0.3522 -0.3191
   66MOL    C9628826   7.335   6.262   0.659 -0.4571 -0.2486 -0.1002
   66MOL    C9728827   7.049   6.400   0.728  0.4490  0.3952  0.2251
   66MOL    H9828828   7.215   6.504   0.655 -0.6670  0.0462  0.1902
   66MOL    H9928829   7.389   6.389   0.809 -0.7821  1.2489  0.4920
   66MOL   H10028830   7.164   6.195   0.868  1.5001 -2.7875  2.0910
   66MOL   H10128831   7.219   6.312   0.987 -0.8748  1.5539 -1.5368
   66MOL   H10228832   7.331   6.076   1.002  0.2234  0.5843  0.2812
   66MOL   H10328833   7.451   6.204   0.972  0.7301 -0.1216 -2.3484
   66MOL   H10428834   7.315   6.019   0.781 -1.3697  0.7455 -1.9034
   66MOL   H10528835   7.477   6.012   0.852 -0.1094 -0.6348  0.1969
   66MOL   H10628836   7.544   6.221   0.715  0.5336 -0.5858 -1.7865
   66MOL   H10728837   7.464   6.108   0.602 -0.4469 -0.8895 -0.0252
   66MOL   H10828838   7.367   6.333   0.583  2.6167 -3.2535 -1.7095
   66MOL   H10928839   7.250   6.209   0.616  0.8675 -1.5902 -1.1100
   66MOL   H11028840   7.051   6.303   0.679  1.2625 -0.4682  1.9152
   66MOL   H11128841   7.000   6.376   0.823  0.0121  3.4015  0.8191
   66MOL   C11228842   6.949   6.491   0.655  0.0283 -0.0242 -0.1612
   66MOL   C11328843   6.817   6.520   0.734 -0.4311  0.4808  0.9285
   66MOL   C11428844   6.838   6.599   0.862 -0.3031 -0.2389  0.0413
   66MOL   C11528845   6.711   6.633   0.942  0.1168  0.6882  0.0987
   66MOL   C11628846   6.642   6.496   0.971 -0.6785  0.1223  0.2193
   66MOL   C11728847   6.601   6.429   0.843 -0.2690  0.2147  0.0942
   66MOL   C11828848   6.717   6.399   0.748  0.0510  0.8003 -0.6280
   66MOL   C11928849   6.908   6.444   0.511 -0.0304 -0.5299  0.1390
   66MOL   H12028850   6.996   6.588   0.643  1.6249 -0.6010  1.3115
   66MOL   H12128851   6.760   6.578   0.661  1.2208  0.5531 -0.3393
   66MOL   H12228852   6.902   6.683   0.836  2.0476 -2.2619 -0.8335
   66MOL   H12328853   6.901   6.540   0.928  1.2480  0.3853 -0.8549
   66MOL   H12428854   6.736   6.694   1.028  1.3880  0.1420  0.1241
   66MOL   H12528855   6.651   6.693   0.874 -0.6078  1.1174  1.1142
   66MOL   H12628856   6.712   6.431   1.023 -0.6468  0.2502  0.3388
   66MOL   H12728857   6.563   6.506   1.046 -0.6815  0.1859  0.2080
   66MOL   H12828858   6.552   6.335   0.867  0.1002 -0.3045 -1.1290
   66MOL   H12928859   6.528   6.482   0.782 -1.1440  0.5540  1.4071
   66MOL   H13028860   6.687   6.368   0.648  1.2621  0.3571 -0.8598
   66MOL   H13128861   6.765   6.305   0.774 -2.6320 -0.7053 -1.0096
   66MOL   H13228862   6.825   6.507   0.478  0.3498 -0.1556 -0.1083
   66MOL   H13328863   6.871   6.342   0.505  0.4179 -0.8002  1.7708
   66MOL   C13428864   7.025   6.447   0.401 -0.0216 -0.2249 -0.1470
   66MOL   C13528865   7.090   6.595   0.381 -0.7497  0.1646 -0.2947
   66MOL   C13628866   7.000   6.703   0.311 -0.0525  0.7040 -0.1606
   66MOL   C13728867   7.064   6.841   0.297 -0.0130  0.1358 -0.0071
   66MOL   C13828868   7.192   6.824   0.213 -0.3029  0.1142 -0.5045
   66MOL   C13928869   7.288   6.721   0.274  0.5183 -0.2929  0.0229
   66MOL   C14028870   7.226   6.583   0.308  0.4724 -0.6974  0.0887
   66MOL   C14128871   6.985   6.380   0.273  0.3480  0.4297 -0.1350
   66MOL   H14228872   7.103   6.383   0.443  0.1792 -0.2184 -0.5071
   66MOL   H14328873   7.110   6.631   0.482  0.4640 -0.7211 -0.2151
   66MOL   H14428874   6.964   6.672   0.213  2.0451  0.4907 -0.8721
   66MOL   H14528875   6.911   6.711   0.374 -0.6413  0.6835 -0.9782
   66MOL   H14628876   7.091   6.868   0.399  2.4305 -1.6648 -0.1299
   66MOL   H14728877   6.994   6.916   0.260 -2.5768 -1.0875  2.1675
   66MOL   H14828878   7.181   6.789   0.111 -0.6230  1.3846 -0.9125
   66MOL   H14928879   7.238   6.922   0.199 -0.7456  0.3932 -0.0214
   66MOL   H15028880   7.334   6.767   0.362 -2.7363 -0.2245  1.7753
   66MOL   H15128881   7.373   6.706   0.208 -1.5659 -1.2420 -2.5205
   66MOL   H15228882   7.212   6.537   0.210  2.2808 -0.3326 -0.3553
   66MOL   H15328883   7.298   6.519   0.358  0.6169 -0.1939  0.5196
   66MOL   H15428884   7.079   6.377   0.216 -0.3957  1.2133 -1.4331
   66MOL   H15528885   6.922   6.446   0.214  0.9021 -0.7507 -2.0877
   66MOL   C15628886   6.936   6.236   0.262  0.0940  0.4227  0.7130
   66MOL   C15728887   7.018   6.126   0.346 -0.1796 -0.1304  0.5491
   66MOL   C15828888   6.942   6.003   0.376 -0.1146 -0.4561 -0.3110
   66MOL   C15928889   7.032   5.891   0.429 -0.3791  0.1708 -0.0210
   66MOL   C16028890   7.159   5.856   0.343 -0.1898  0.0428 -0.0709
   66MOL   C16128891   7.240   5.988   0.333  0.0881  0.4606 -0.2247
   66MOL   C16228892   7.153   6.097   0.270 -0.6585  0.7079 -0.0279
   66MOL   C16328893   6.926   6.196   0.108 -0.0056 -0.9505  0.3271
   66MOL   H16428894   6.838   6.230   0.309 -0.3073  2.5662  0.2132
   66MOL   H16528895   7.046   6.179   0.437  0.0465 -1.6953  1.3900
   66MOL   H16628896   6.859   6.016   0.445  1.8864  3.7597  1.4795
   66MOL   H16728897   6.903   5.967   0.281 -1.5021  0.2041  0.0046
   66MOL   H16828898   7.057   5.908   0.533 -2.6954 -1.2247  0.8084
   66MOL   H16928899   6.978   5.796   0.435 -0.3598  0.1379 -0.3365
   66MOL   H17028900   7.123   5.819   0.247 -0.1201 -0.6447  0.1686
   66MOL   H17128901   7.222   5.775   0.380  1.8683  1.3660 -0.6135
   66MOL   H17228902   7.327   5.967   0.271  1.2064  2.2804  0.6765
   66MOL   H17328903   7.287   6.002   0.431 -0.3206 -1.1088  0.2199
   66MOL   H17428904   7.215   6.186   0.281  1.6918 -1.0826  1.7770
   66MOL   H17528905   7.140   6.074   0.165  0.9084  1.9579 -0.5016
   66MOL   H17628906   6.905   6.091   0.084 -0.2014 -0.6226 -0.9807
   66MOL   H17728907   7.014   6.221   0.049  1.0231 -1.5180  1.5897
   66MOL   C17828908   6.802   6.264   0.031  0.2057 -0.1815  0.4221
   66MOL   C17928909   6.841   6.333   7.663  0.2054 -0.1106 -0.5383
   66MOL   C18028910   6.894   6.231   7.562 -0.3564 -0.1327 -0.3203
   66MOL   C18128911   6.939   6.290   7.429 -0.6222 -0.2374 -0.2041
   66MOL   C18228912   7.030   6.413   7.451 -0.4985  0.1248  0.6567
   66MOL   C18328913   6.965   6.508   7.553  0.0447  0.2008 -0.2562
   66MOL   C18428914   6.947   6.439   7.681  0.1507  0.2363  0.2882
   66MOL   C18528915   6.686   6.164   0.029  0.0911  0.7987  0.0185
   66MOL   H18628916   6.766   6.349   0.089 -0.4550  1.6806 -2.6473
   66MOL   H18728917   6.750   6.386   7.635  0.1776  0.5313  0.7194
   66MOL   H18828918   6.977   6.177   7.607 -0.5210  0.7863  1.1261
   66MOL   H18928919   6.813   6.161   7.538  0.7831 -0.5492 -3.1211
   66MOL   H19028920   6.861   6.331   7.365 -0.5394  0.1771 -0.0387
   66MOL   H19128921   6.991   6.215   7.370 -0.3365  0.5842 -1.0126
   66MOL   H19228922   7.127   6.371   7.477 -0.8983  0.1597  2.2476
   66MOL   H19328923   7.050   6.475   7.364 -1.8084 -0.1483  0.1491
   66MOL   H19428924   6.871   6.547   7.514  0.4428 -0.4325 -1.8734
   66MOL   H19528925   7.036   6.590   7.562  0.5805 -0.4192  1.2198
   66MOL   H19628926   7.041   6.392   7.710 -0.0421 -0.6862 -0.5434
   66MOL   H19728927   6.910   6.506   7.758  0.8606  0.1380  0.7204
   66MOL   H19828928   6.716   6.086   7.732 -2.8157 -0.2075 -0.1713
   66MOL   H19928929   6.678   6.126   0.131  0.5055  0.1144 -0.1994
   66MOL   C20028930   6.544   6.233   7.771 -0.3205 -0.0218 -0.1783
   66MOL   C20128931   6.502   6.244   7.624 -1.0059  1.0570 -0.7435
   66MOL   C20228932   6.441   6.111   7.573  0.1596  0.7996  0.2634
   66MOL   C20328933   6.417   6.123   7.422  0.4120  0.3738 -0.0330
   66MOL   C20428934   6.321   6.237   7.385 -0.5415 -0.4516  0.4533
   66MOL   C20528935   6.367   6.371   7.453 -0.3831  0.2017  1.0967
   66MOL   C20628936   6.414   6.368   7.599  0.2401  0.3197 -0.0793
   66MOL   C20728937   6.432   6.172   0.083  0.3934  0.1874 -0.2807
   66MOL   H20828938   6.547   6.337   0.034  0.0925 -0.1671  0.2182
   66MOL   H20928939   6.592   6.242   7.562  1.0490 -1.2159  2.1871
   66MOL   H21028940   6.347   6.085   7.622  0.0004  0.6487 -0.1199
   66MOL   H21128941   6.504   6.023   7.589 -2.4774 -1.2752 -0.5276
   66MOL   H21228942   6.516   6.140   7.380  0.7209 -1.3508 -0.0185
   66MOL   H21328943   6.389   6.030   7.374  1.9105 -0.4402  0.6387
   66MOL   H21428944   6.327   6.249   7.277 -1.5041  0.3490  0.4783
   66MOL   H21528945   6.220   6.202   7.407 -0.9521 -0.0311 -0.6944
   66MOL   H21628946   6.456   6.400   7.398 -2.1156 -0.4992 -2.2270
   66MOL   H21728947   6.299   6.455   7.438 -0.0382  0.0278 -1.6489
   66MOL   H21828948   6.468   6.458   7.630  1.5720 -0.8130  0.9450
   66MOL   H21928949   6.332   6.362   7.671 -1.1980 -1.0389 -1.8074
   66MOL   H22028950   6.335   6.205   0.044  0.7743  0.2781 -1.1768
   66MOL   H22128951   6.440   6.064   0.072 -0.6247  0.1761 -1.1167
   66MOL   C22228952   6.436   6.206   0.232  0.4020 -0.5165 -0.5280
   66MOL   C22328953   6.429   6.361   0.265 -0.3558 -0.6804 -0.1243
   66MOL   C22428954   6.483   6.384   0.409  0.6650 -0.0375  0.1362
   66MOL   C22528955   6.497   6.533   0.432 -0.7338 -0.3973 -0.2073
   66MOL   C22628956   6.372   6.616   0.405 -0.4428 -0.5270 -0.3764
   66MOL   C22728957   6.313   6.585   0.263  0.1661 -0.5602  0.2585
   66MOL   C22828958   6.291   6.432   0.245 -1.1235  0.2582 -0.3985
   66MOL   C22928959   6.330   6.118   0.315  0.0930  0.1546 -0.2146
   66MOL   H23028960   6.535   6.181   0.269  0.6818  0.5568 -0.5318
   66MOL   H23128961   6.501   6.410   0.200 -0.7477  0.5763  0.3791
   66MOL   H23228962   6.403   6.354   0.477 -1.4116 -2.6257 -3.2976
   66MOL   H23328963   6.572   6.326   0.431  0.8253 -0.3701 -1.3376
   66MOL   H23428964   6.593   6.561   0.389 -0.2231  0.5284  1.5124
   66MOL   H23528965   6.527   6.550   0.535  1.3950  1.0488 -1.0503
   66MOL   H23628966   6.290   6.583   0.469 -1.2049  0.9336 -0.5706
   66MOL   H23728967   6.379   6.724   0.419  2.3561 -0.5815 -1.1917
   66MOL   H23828968   6.386   6.617   0.189 -0.6921  0.9350  0.0511
   66MOL   H23928969   6.225   6.646   0.241 -1.3343 -2.1130  1.7286
   66MOL   H24028970   6.212   6.395   0.310 -0.2190 -0.2823  0.4087
   66MOL   H24128971   6.253   6.398   0.149  0.9259  1.3247 -1.6145
   66MOL   H24228972   6.241   6.127   0.253  0.7314  3.1766 -0.8140
   66MOL   H24328973   6.299   6.165   0.409  5.8955 -0.3505  2.1238
   66MOL   C24428974   6.364   5.972   0.334 -0.8903  0.5746 -0.1838
   66MOL   C24528975   6.231   5.884   0.338  0.0540 -0.1504  0.7614
   66MOL   C24628976   6.156   5.869   0.206  0.0659 -0.2932  0.2026
   66MOL   C24728977   6.056   5.748   0.215 -0.1991  0.2387  0.6165
   66MOL   C24828978   5.969   5.759   0.341  0.5871 -0.2490 -0.0190
   66MOL   C24928979   6.040   5.788   0.470 -0.2752 -0.8938 -0.4812
   66MOL   C25028980   6.137   5.915   0.448 -0.8683 -0.4548 -0.0502
   66MOL   C25128981   6.457   5.965   0.451  0.1907  0.1923 -0.2621
   66MOL   H25228982   6.421   5.946   0.245 -0.8856  3.7407 -1.1736
   66MOL   H25328983   6.272   5.784   0.351 -0.7693 -0.9164 -2.3420
   66MOL   H25428984   6.223   5.853   0.122  0.6082 -0.4550  0.6590
   66MOL   H25528985   6.109   5.964   0.180  3.0691  1.0721 -0.4672
   66MOL   H25628986   5.998   5.733   0.125 -0.0477  0.7716  0.4265
   66MOL   H25728987   6.115   5.656   0.220  1.3830  1.2154  0.3745
   66MOL   H25828988   5.892   5.834   0.322 -0.8451 -1.7952 -0.4510
   66MOL   H25928989   5.917   5.666   0.363 -1.1375  0.2960 -1.6008
   66MOL   H26028990   6.099   5.706   0.511 -2.5186 -1.6479  1.4192
   66MOL   H26128991   5.969   5.794   0.553  0.2941 -0.7644 -0.0072
   66MOL   H26228992   6.084   6.006   0.419 -1.2370 -0.5241  0.4118
   66MOL   H26328993   6.203   5.928   0.534  0.9265  2.3099 -1.7737
   66MOL   H26428994   6.400   6.003   0.536 -0.7483  0.0270 -0.8081
   66MOL   H26528995   6.534   6.041   0.435 -1.0584  0.9424 -2.9695
   66MOL   C26628996   6.507   5.837   0.509 -0.6486 -0.0537  0.1841
   66MOL   C26728997   6.551   5.733   0.399  0.6128  0.1858  0.5197
   66MOL   C26828998   6.555   5.589   0.462 -0.4006 -0.3557  0.7763
   66MOL   C26928999   6.585   5.481   0.364 -0.1990 -0.3024 -0.7363
   66MOL   C27029000   6.713   5.506   0.289  0.1553  0.0480  1.0170
   66MOL   C27129001   6.718   5.646   0.226  0.6996 -0.2198  0.3254
   66MOL   C27229002   6.680   5.760   0.326  0.0719 -0.1841  0.1733
   66MOL   C27329003   6.617   5.863   0.612  0.5369  0.2544 -0.2481
   66MOL   H27429004   6.426   5.794   0.568 -0.9869  2.9897  2.0482
   66MOL   H27529005   6.473   5.734   0.323 -0.6132 -3.0412  1.6623
   66MOL   H27629006   6.632   5.590   0.539  2.6440 -0.4247 -2.1327
   66MOL   H27729007   6.460   5.564   0.507 -2.1287  1.0233 -1.9508
   66MOL   H27829008   6.510   5.474   0.286  1.5663 -0.3049 -2.4727
   66MOL   H27929009   6.590   5.392   0.426  0.4055 -0.6440 -1.2669
   66MOL   H28029010   6.794   5.511   0.362  0.7587  0.3786  0.3291
   66MOL   H28129011   6.736   5.428   0.216  0.5383  0.9641  0.1527
   66MOL   H28229012   6.647   5.660   0.145  0.3076  0.5795  0.8030
   66MOL   H28329013   6.817   5.674   0.192 -0.5463  0.8669 -2.5092
   66MOL   H28429014   6.662   5.856   0.277 -1.4767 -1.7444 -2.4037
   66MOL   H28529015   6.766   5.776   0.391 -0.1814 -0.3816  0.5619
   66MOL   H28629016   6.692   5.918   0.554 -0.5583  1.7336 -0.2900
   66MOL   H28729017   6.670   5.773   0.643  2.1458  0.7532 -1.4317
   66MOL   C28829018   6.585   5.944   0.741  0.0010 -0.4496 -0.5346
   66MOL   C28929019   6.709   5.942   0.830  0.8336  0.3423  0.2785
   66MOL   C29029020   6.748   5.811   0.905  0.9694 -0.6079 -0.1607
   66MOL   C29129021   6.838   5.851   1.021  1.0668  0.1462  0.0559
   66MOL   C29229022   6.966   5.910   0.962  0.0347 -0.1064 -0.6491
   66MOL   C29329023   6.943   6.026   0.858  0.3201 -0.5544  0.1661
   66MOL   C29429024   6.833   5.993   0.756  0.7083  0.7394 -0.2923
   66MOL   C29529025   6.458   5.888   0.810  0.4421 -0.6116 -0.7652
   66MOL   H29629026   6.570   6.047   0.709 -0.8934 -0.1690  0.7575
   66MOL   H29729027   6.695   6.020   0.904  1.1069  1.2190 -0.5846
   66MOL   H29829028   6.658   5.758   0.938 -0.3525 -0.4984 -3.3293
   66MOL   H29929029   6.792   5.745   0.831  0.0432 -0.0508 -1.2299
   66MOL   H30029030   6.788   5.923   1.086  0.4719 -0.1349 -0.0959
   66MOL   H30129031   6.865   5.762   1.079 -0.7025  0.2281  1.0383
   66MOL   H30229032   7.034   5.836   0.919  0.5868 -0.7627  1.3106
   66MOL   H30329033   7.015   5.952   1.050 -2.6319  0.1471  0.7584
   66MOL   H30429034   7.036   6.038   0.803 -0.2340 -0.8272 -0.8398
   66MOL   H30529035   6.924   6.126   0.900 -0.5779 -0.9851  0.8117
   66MOL   H30629036   6.868   5.921   0.682 -0.1731  0.6428 -0.6248
   66MOL   H30729037   6.806   6.078   0.693 -0.0285  0.2989 -0.5795
   66MOL   H30829038   6.371   5.911   0.749 -0.2828  2.1949  1.2341
   66MOL   H30929039   6.470   5.779   0.815  0.4546 -0.5539  0.6802
   66MOL   C31029040   6.412   5.952   0.944 -0.6832 -0.5050 -0.0901
   66MOL   C31129041   6.367   6.104   0.921  0.6161 -0.2338 -0.0621
   66MOL   C31229042   6.240   6.125   0.837  0.2850  0.5093 -0.6916
   66MOL   C31329043   6.206   6.274   0.827  0.0405  0.7049 -0.6688
   66MOL   C31429044   6.188   6.335   0.963  0.0762 -0.5768 -0.6348
   66MOL   C31529045   6.313   6.318   1.055 -0.5589 -1.2207 -0.0393
   66MOL   C31629046   6.375   6.177   1.051 -0.0986 -0.3022 -0.0707
   66MOL   C31729047   6.303   5.868   1.011  0.2976 -0.1376  0.1545
   66MOL   H31829048   6.497   5.954   1.012 -0.3120 -1.8404 -0.5102
   66MOL   H31929049   6.440   6.156   0.858 -0.2120 -0.6294 -1.3616
   66MOL   H32029050   6.272   6.111   0.733 -0.3221  1.7033 -1.0443
   66MOL   H32129051   6.158   6.056   0.857 -0.5931  1.6714 -0.2727
   66MOL   H32229052   6.113   6.279   0.771 -0.5166 -0.2985  0.1436
   66MOL   H32329053   6.285   6.330   0.777  0.0087  0.8981 -0.5029
   66MOL   H32429054   6.176   6.444   0.966  1.7085 -0.3718 -1.0201
   66MOL   H32529055   6.106   6.285   1.015  1.8807  0.0841  3.0277
   66MOL   H32629056   6.380   6.392   1.011 -1.9107  1.3339  2.0526
   66MOL   H32729057   6.300   6.365   1.152  1.0482 -0.8311  0.0070
   66MOL   H32829058   6.323   6.133   1.136 -1.5111  0.3385 -0.5895
   66MOL   H32929059   6.477   6.184   1.088 -0.1265  0.6461 -0.1702
   66MOL   H33029060   6.223   5.843   0.942  0.4993 -0.7038  0.1273
   66MOL   H33129061   6.242   5.928   1.079 -1.8360  0.5480 -2.2802
   66MOL   C33229062   6.357   5.754   1.105  0.4200 -0.3013 -0.1084
   66MOL   C33329063   6.273   5.628   1.084  0.3166  0.1392  0.2392
   66MOL   C33429064   6.292   5.564   0.947 -0.0000 -0.0181 -0.4711
   66MOL   C33529065   6.225   5.426   0.934 -0.0567  0.7828  0.2051
   66MOL   C33629066   6.075   5.440   0.967  0.2292 -0.1970  0.2778
   66MOL   C33729067   6.047   5.503   1.095 -0.1807  0.5645 -0.4284
   66MOL   C33829068   6.120   5.633   1.114 -0.2122  0.4317  0.4021
   66MOL   C33929069   6.378   5.805   1.253  0.3933 -0.7570  0.2104
   66MOL   H34029070   6.455   5.719   1.072  1.0461  0.4349  0.9358
   66MOL   H34129071   6.300   5.558   1.163 -0.4787 -0.1839  0.2268
   66MOL   H34229072   6.243   5.629   0.875 -1.3534  1.2368  1.5150
   66MOL   H34329073   6.397   5.561   0.921  0.1650  1.4488 -0.0315
   66MOL   H34429074   6.233   5.384   0.834 -0.6911  1.2908 -0.0696
   66MOL   H34529075   6.267   5.364   1.013 -1.0517  0.0460  0.1684
   66MOL   H34629076   6.014   5.492   0.894  1.3298  1.1336  0.2905
   66MOL   H34729077   6.028   5.341   0.961 -0.5973  0.1988  0.1337
   66MOL   H34829078   6.066   5.425   1.169 -1.9706 -0.2363 -0.7774
   66MOL   H34929079   5.943   5.531   1.114  0.3389  1.4656  1.1929
   66MOL   H35029080   6.099   5.658   1.218  1.7962 -0.3595  1.0300
   66MOL   H35129081   6.082   5.712   1.049 -0.2727  0.8754  0.9759
   66MOL   H35229082   6.280   5.831   1.293  1.1475 -0.6589  2.0738
   66MOL   H35329083   6.422   5.905   1.249  0.6691 -0.9576 -3.7648
   66MOL   C35429084   6.469   5.715   1.349 -0.0026 -0.2044 -0.1408
   66MOL   C35529085   6.415   5.725   1.493 -0.0216 -0.8089  0.4968
   66MOL   C35629086   6.263   5.681   1.505  0.3419 -0.2966  0.4306
   66MOL   C35729087   6.216   5.681   1.651  0.3843  0.2996 -0.0141
   66MOL   C35829088   6.240   5.815   1.710 -0.7824 -1.0321 -0.5362
   66MOL   C35929089   6.387   5.857   1.709  0.0373 -0.0064 -0.4824
   66MOL   C36029090   6.442   5.852   1.570  0.5268  0.3520  0.2132
   66MOL   C36129091   6.624   5.733   1.329  0.1140 -0.3139 -0.2165
   66MOL   H36229092   6.439   5.618   1.309 -5.8042  1.0974  0.5231
   66MOL   H36329093   6.463   5.642   1.545  0.7928  0.2203  1.4293
   66MOL   H36429094   6.235   5.586   1.461 -0.1736 -0.0882  0.3084
   66MOL   H36529095   6.194   5.752   1.459  0.6614 -1.2146 -1.5390
   66MOL   H36629096   6.109   5.656   1.654  0.8161 -2.3369 -3.5102
   66MOL   H36729097   6.275   5.611   1.710 -1.1094 -0.4751  0.5942
   66MOL   H36829098   6.180   5.882   1.648 -0.1356 -1.3498 -1.5132
   66MOL   H36929099   6.197   5.822   1.810 -0.4829  0.9279 -0.5209
   66MOL   H37029100   6.412   5.949   1.760 -0.1086  0.7564 -1.7678
   66MOL   H37129101   6.439   5.782   1.769 -0.2400  1.8685  2.1907
   66MOL   H37229102   6.550   5.857   1.586  0.5748 -1.2557  0.5255
   66MOL   H37329103   6.405   5.938   1.515 -0.9859 -2.6213 -3.6495
   66MOL   H37429104   6.652   5.817   1.393 -1.6034 -1.4652  2.1230
   66MOL   H37529105   6.637   5.764   1.225 -0.0421  0.3972 -0.0307
   66MOL   C37629106   6.717   5.608   1.350 -0.5918 -0.5168  0.1923
   66MOL   C37729107   6.681   5.483   1.265 -0.9704 -0.0857 -0.3927
   66MOL   C37829108   6.763   5.360   1.318  0.3745 -0.0258  0.2419
   66MOL   C37929109   6.713   5.229   1.259  0.0575 -0.5452 -0.1227
   66MOL   C38029110   6.731   5.226   1.107 -0.5565  0.5462  0.0402
   66MOL   C38129111   6.664   5.353   1.039 -0.3055 -0.0157  0.0447
   66MOL   C38229112   6.700   5.492   1.114 -0.2809  0.2418  0.3821
   66MOL   C38329113   6.870   5.646   1.342  0.3358 -0.2660  0.6058
   66MOL   H38429114   6.694   5.579   1.453 -1.0740 -0.7922  0.0111
   66MOL   H38529115   6.576   5.455   1.278 -0.8196 -0.1606  0.6990
   66MOL   H38629116   6.861   5.380   1.277 -0.3191  0.6338 -1.0958
   66MOL   H38729117   6.770   5.362   1.427 -0.4236 -2.3231  0.3805
   66MOL   H38829118   6.607   5.220   1.281  0.2366 -1.0588  0.5289
   66MOL   H38929119   6.748   5.137   1.305  2.9502  0.6725  0.2347
   66MOL   H39029120   6.836   5.218   1.077 -0.3810  3.3439 -0.2589
   66MOL   H39129121   6.686   5.133   1.072 -0.3910 -0.6091  2.8117
   66MOL   H39229122   6.688   5.357   0.933  1.2935 -0.7174  0.3619
   66MOL   H39329123   6.557   5.333   1.036 -0.5704  1.3976 -0.4339
   66MOL   H39429124   6.806   5.514   1.100 -0.2499 -1.6420 -2.8873
   66MOL   H39529125   6.645   5.572   1.063 -2.4294 -0.3958  1.6137
   66MOL   H39629126   6.906   5.662   1.241 -2.7683 -2.0905 -0.8764
   66MOL   H39729127   6.929   5.558   1.366 -0.0334 -0.8792 -0.6836
   66MOL   C39829128   6.916   5.763   1.440  0.5454 -0.4607  0.3216
   66MOL   C39929129   7.061   5.731   1.487 -0.0555  0.0948 -0.3771
   66MOL   C40029130   7.089   5.622   1.585  0.1546 -0.5493 -1.5038
   66MOL   C40129131   7.234   5.643   1.649  0.0325 -0.8996 -0.6876
   66MOL   C40229132   7.342   5.637   1.537 -0.7346  0.4368  0.1601
   66MOL   C40329133   7.307   5.728   1.413  0.3910 -0.6433  0.1557
   66MOL   C40429134   7.161   5.715   1.372 -0.5464 -0.2375 -0.0140
   66MOL   C40529135   6.903   5.909   1.369  0.4275  0.4905  0.1564
   66MOL   H40629136   6.850   5.745   1.525  0.2549  0.5412  0.3165
   66MOL   H40729137   7.087   5.825   1.537  1.6770 -0.4354 -0.2473
   66MOL   H40829138   7.068   5.527   1.536 -3.5140 -1.5578  1.7586
   66MOL   H40929139   7.016   5.629   1.666  0.6939 -4.2828 -0.6204
   66MOL   H41029140   7.247   5.565   1.725 -4.0885 -0.7881  0.2495
   66MOL   H41129141   7.238   5.738   1.702 -2.5334 -1.4308  0.5312
   66MOL   H41229142   7.355   5.534   1.502  0.1655  1.3564 -2.3320
   66MOL   H41329143   7.440   5.662   1.579 -0.6393 -0.2530  0.3553
   66MOL   H41429144   7.338   5.828   1.442  2.5321 -0.6048 -2.0765
   66MOL   H41529145   7.378   5.712   1.331  0.2040 -1.0862  0.0788
   66MOL   H41629146   7.148   5.796   1.300 -0.5948  0.0501  0.3168
   66MOL   H41729147   7.150   5.617   1.325  0.0343  0.8222 -2.4508
   66MOL   H41829148   7.001   5.938   1.331 -0.1307  0.5520 -1.2547
   66MOL   H41929149   6.842   5.888   1.281  2.4508 -2.4700 -0.6069
   66MOL   C42029150   6.847   6.016   1.467  0.0203  0.1901 -0.2628
   66MOL   C42129151   6.796   6.136   1.387 -0.2158  0.2960  0.1711
   66MOL   C42229152   6.909   6.215   1.324  0.2219 -0.4101  0.4176
   66MOL   C42329153   6.847   6.328   1.246 -0.1157  0.9539 -0.7227
   66MOL   C42429154   6.741   6.413   1.321 -0.5236 -0.7142  0.1938
   66MOL   C42529155   6.632   6.321   1.383 -0.3453 -0.1084 -0.1358
   66MOL   C42629156   6.710   6.220   1.469  0.3283 -1.2512 -0.2173
   66MOL   C42729157   6.935   6.047   1.585  0.0936  0.4162  0.1957
   66MOL   H42829158   6.752   5.978   1.503  0.6321 -1.5553 -0.4208
   66MOL   H42929159   6.742   6.091   1.305  0.0717 -1.8168  1.1062
   66MOL   H43029160   6.961   6.256   1.410 -0.2472  0.8485  0.1135
   66MOL   H43129161   6.979   6.150   1.271 -0.6559  0.0018 -1.2586
   66MOL   H43229162   6.924   6.393   1.205  0.0434  0.4847 -1.1760
   66MOL   H43329163   6.800   6.279   1.161  0.0999  1.2237 -1.0012
   66MOL   H43429164   6.699   6.485   1.250  0.6710 -1.6308 -1.4807
   66MOL   H43529165   6.784   6.467   1.405 -0.7200  1.6842 -1.2181
   66MOL   H43629166   6.571   6.276   1.305 -1.3622 -1.6620  1.5367
   66MOL   H43729167   6.569   6.368   1.458  1.8115  2.4352  0.1769
   66MOL   H43829168   6.772   6.271   1.542  0.0765  1.2686 -1.7140
   66MOL   H43929169   6.629   6.164   1.516 -1.1764  0.4231 -0.7662
   66MOL   H44029170   6.932   5.974   1.666 -0.8287  0.2151 -0.0129
   66MOL   H44129171   7.033   6.060   1.539  1.6155  0.5032  3.3328
   66MOL   H44229172   6.898   6.137   1.633  2.0902  0.5810  1.5060
   67MOL     C129173   0.088   0.385   4.069 -0.3551 -0.0507  0.3382
   67MOL     C229174   0.045   0.483   4.181 -0.9280  0.4404  0.7002
   67MOL     C329175   7.736   0.605   4.140 -0.5967 -0.4520  0.0543
   67MOL     C429176   7.692   0.686   4.267 -0.1358  0.0963  0.4396
   67MOL     C529177   0.036   0.721   4.355  0.0752 -0.1703  0.3344
   67MOL     C629178   0.118   0.593   4.390  0.7052 -0.1130 -0.2520
   67MOL     C729179   0.164   0.525   4.266 -0.1591 -0.3388 -0.6842
   67MOL     C829180   0.150   0.247   4.115  0.6831  0.0277  0.0849
   67MOL     H929181   7.767   0.361   4.017  0.5685 -0.1835 -1.2810
   67MOL    H1029182   7.752   0.425   4.246 -1.3027  0.8627  0.7107
   67MOL    H1129183   0.023   0.667   4.074 -1.4611 -0.8943 -1.1434
   67MOL    H1229184   7.648   0.575   4.083 -0.5195 -0.0308 -0.2855
   67MOL    H1329185   7.622   0.620   4.318  0.6436 -0.7700  0.4054
   67MOL    H1429186   7.649   0.782   4.239 -2.2232 -0.0906  2.7825
   67MOL    H1529187   7.766   0.772   4.442 -2.4789 -0.8055 -0.4605
   67MOL    H1629188   0.111   0.789   4.315 -1.9050  1.0972 -1.3810
   67MOL    H1729189   0.200   0.613   4.460 -0.9659 -3.6806  2.9175
   67MOL    H1829190   0.057   0.522   4.446 -0.5185  1.1348  0.0349
   67MOL    H1929191   0.232   0.446   4.299 -0.4855 -1.0483 -1.6840
   67MOL    H2029192   0.238   0.587   4.217 -1.5200  0.8989 -1.2070
   67MOL    H2129193   0.078   0.182   4.165  0.9547 -2.9301 -3.1170
   67MOL    H2229194   0.222   0.266   4.195  0.4966  1.3784 -0.0652
   67MOL    H2329195   0.155   0.444   4.006 -1.6563 -1.0836 -2.0898
   67MOL    C2429196   0.235   0.170   4.023 -0.9010 -0.1198 -0.0286
   67MOL    C2529197   0.311   0.046   4.081  0.0648 -0.0418  0.6327
   67MOL    C2629198   0.230   7.722   4.178  0.2267 -0.2325 -0.1012
   67MOL    C2729199   0.313   7.597   4.217  0.5804  0.0963  0.6024
   67MOL    C2829200   0.436   7.646   4.293 -0.0363 -0.1363  0.3715
   67MOL    C2929201   0.521   7.752   4.220  0.6685 -0.8543  0.9675
   67MOL    C3029202   0.434   0.095   4.166 -0.2884 -0.1492 -0.0269
   67MOL    C3129203   0.168   0.128   3.888  0.4184  1.0137 -0.1120
   67MOL    H3229204   0.304   0.251   3.999 -1.7559  1.0565  1.3449
   67MOL    H3329205   0.345   7.759   3.997  0.0381  1.9530 -0.8186
   67MOL    H3429206   0.139   7.690   4.129 -0.0120 -0.6514  0.6182
   67MOL    H3529207   0.211   0.006   4.269  0.9346 -2.1930  1.2832
   67MOL    H3629208   0.251   7.527   4.273 -0.0926  2.4369  2.8626
   67MOL    H3729209   0.349   7.551   4.125 -0.2236  2.3810 -0.8875
   67MOL    H3829210   0.509   7.571   4.324 -1.3034 -0.6757  2.1007
   67MOL    H3929211   0.400   7.696   4.382 -0.5512 -0.3285  0.2745
   67MOL    H4029212   0.597   0.016   4.290  0.7970 -0.6810  0.7394
   67MOL    H4129213   0.571   7.704   4.136  0.8169  0.4967  0.2691
   67MOL    H4229214   0.404   0.159   4.249  0.9241  1.3238 -0.7067
   67MOL    H4329215   0.492   0.163   4.104 -0.5939 -0.4790 -0.6732
   67MOL    H4429216   0.086   0.196   3.863  0.4451  0.6772 -1.1221
   67MOL    H4529217   0.121   0.031   3.905 -0.2057  1.0818 -1.4197
   67MOL    C4629218   0.247   0.136   3.751 -0.0202 -0.3662 -0.4362
   67MOL    C4729219   0.269   0.285   3.704  1.0019 -0.0224  0.4774
   67MOL    C4829220   0.139   0.363   3.654 -0.2038  0.5998  0.0603
   67MOL    C4929221   0.174   0.514   3.637  0.4006  0.0405  0.0985
   67MOL    C5029222   0.292   0.530   3.530 -0.0106  0.8265  0.4605
   67MOL    C5129223   0.418   0.455   3.575 -0.2382  0.3563 -0.0678
   67MOL    C5229224   0.387   0.306   3.608 -0.2310  0.1378 -0.4274
   67MOL    C5329225   0.175   0.054   3.633  0.4890  0.0081 -0.6017
   67MOL    H5429226   0.348   0.097   3.764  0.6977  0.9645 -1.8616
   67MOL    H5529227   0.299   0.343   3.791 -1.0084  0.2625  0.9980
   67MOL    H5629228   0.103   0.318   3.562  2.6212  0.1512 -0.8809
   67MOL    H5729229   0.056   0.367   3.724  2.4053  2.1106  3.2129
   67MOL    H5829230   0.204   0.552   3.735  1.1472 -4.0842  1.5799
   67MOL    H5929231   0.090   0.575   3.606 -0.2539 -1.7632 -1.7810
   67MOL    H6029232   0.245   0.489   3.441 -0.7908 -1.0740  1.7224
   67MOL    H6129233   0.307   0.636   3.506  1.4530  1.0220  2.1471
   67MOL    H6229234   0.469   0.509   3.654 -1.2200  0.6614  0.3618
   67MOL    H6329235   0.488   0.459   3.491 -1.1717 -0.2145 -0.8961
   67MOL    H6429236   0.362   0.247   3.520  0.2510 -0.7475  0.0211
   67MOL    H6529237   0.475   0.260   3.652 -0.1014  1.3154  0.5738
   67MOL    H6629238   0.181   0.112   3.541  1.2550 -1.2587 -1.3598
   67MOL    H6729239   0.067   0.061   3.650  0.5585  1.1925 -0.5887
   67MOL    C6829240   0.222   7.677   3.606  0.5314  0.1824 -1.1881
   67MOL    C6929241   0.116   7.577   3.553 -0.0025 -0.1045  0.3729
   67MOL    C7029242   0.001   7.554   3.656  0.0052  0.5010  0.2634
   67MOL    C7129243   7.664   7.456   3.613 -0.2433 -0.1610 -0.3697
   67MOL    C7229244   7.611   7.515   3.478 -0.2365  0.0510  0.2617
   67MOL    C7329245   7.726   7.526   3.370 -0.9363 -0.0859 -0.0885
   67MOL    C7429246   0.060   7.621   3.413  0.0747 -0.2186  0.5571
   67MOL    C7529247   0.353   7.692   3.527  0.7076 -0.8252  0.3821
   67MOL    H7629248   0.242   7.652   3.710 -0.2122  2.0522 -0.5879
   67MOL    H7729249   0.168   7.483   3.539 -1.1494 -0.8933  1.3569
   67MOL    H7829250   7.732   7.652   3.681  1.1211  1.3263 -1.1179
   67MOL    H7929251   0.039   7.524   3.754 -1.1076 -0.2192  0.4729
   67MOL    H8029252   7.705   7.356   3.604  2.1847  0.8714 -1.1776
   67MOL    H8129253   7.587   7.449   3.691  0.1678  0.4388  0.0989
   67MOL    H8229254   7.568   7.615   3.481  2.3326  1.2878 -1.9350
   67MOL    H8329255   7.535   7.450   3.437  0.5094 -0.3487 -0.5089
   67MOL    H8429256   7.681   7.555   3.275 -1.4570  2.1702  0.8175
   67MOL    H8529257   7.771   7.430   3.346  0.9542  0.7025  0.1667
   67MOL    H8629258   0.003   7.713   3.426  1.3072  1.1389 -3.1832
   67MOL    H8729259   0.137   7.645   3.340  2.0620 -1.2999  2.2488
   67MOL    H8829260   0.318   7.715   3.426  0.7415  0.0383  0.5573
   67MOL    H8929261   0.405   0.014   3.549 -1.4404  0.1865  1.3027
   67MOL    C9029262   0.447   7.571   3.524 -0.1541  0.3840 -0.3222
   67MOL    C9129263   0.558   7.561   3.414 -0.1228  0.2053 -0.2206
   67MOL    C9229264   0.500   7.540   3.269  0.4667  0.2300  0.5371
   67MOL    C9329265   0.614   7.525   3.168 -0.2333 -0.2661 -0.4499
   67MOL    C9429266   0.707   7.651   3.172  0.1033 -0.3223  0.5800
   67MOL    C9529267   0.763   7.672   3.314 -0.1597 -0.0944 -0.0044
   67MOL    C9629268   0.639   7.685   3.411 -0.6165 -0.7779 -0.8235
   67MOL    C9729269   0.508   7.541   3.671 -0.5940  0.3807  0.2913
   67MOL    H9829270   0.377   7.490   3.508  1.5283 -1.0579 -0.5665
   67MOL    H9929271   0.624   7.475   3.426 -0.5411  0.1065  1.6533
   67MOL   H10029272   0.431   7.618   3.236  0.3674 -1.1392 -2.6017
   67MOL   H10129273   0.443   7.447   3.268  2.1207 -0.7978  0.3445
   67MOL   H10229274   0.565   7.513   3.071 -0.2016  0.7519 -0.5973
   67MOL   H10329275   0.668   7.436   3.198  0.0490  0.2251  0.5112
   67MOL   H10429276   0.659   7.742   3.137  1.4681 -0.4237 -1.6640
   67MOL   H10529277   0.791   7.645   3.104 -0.4559 -3.3312  0.0703
   67MOL   H10629278   0.814   7.583   3.349 -2.8534 -0.6433  2.6727
   67MOL   H10729279   0.829   7.758   3.327  0.0809 -0.2172 -0.3914
   67MOL   H10829280   0.669   7.705   3.514 -0.5701 -0.9333 -0.8055
   67MOL   H10929281   0.577   7.769   3.382  1.0435  1.5670  2.1765
   67MOL   H11029282   0.574   7.627   3.683 -0.1604  0.3429 -1.6909
   67MOL   H11129283   0.425   7.542   3.742 -1.2483 -1.8547 -0.3960
   67MOL   C11229284   0.588   7.409   3.695  0.4058  0.2386 -0.3629
   67MOL   C11329285   0.522   7.274   3.646  1.0591  0.0650 -0.2906
   67MOL   C11429286   0.391   7.232   3.711  0.0748  0.4889  0.2687
   67MOL   C11529287   0.338   7.115   3.634  0.5180  0.5401  0.0150
   67MOL   C11629288   0.432   6.996   3.639  0.2945 -0.3699 -0.1059
   67MOL   C11729289   0.556   7.033   3.564 -0.2624 -0.8101  0.1289
   67MOL   C11829290   0.625   7.158   3.637 -0.0274  0.4096  0.4387
   67MOL   C11929291   0.645   7.398   3.839 -0.0529 -0.1349  0.0905
   67MOL   H12029292   0.677   7.425   3.634 -0.3494 -0.0902 -1.5782
   67MOL   H12129293   0.489   7.294   3.544  1.5443  0.1104 -0.4386
   67MOL   H12229294   0.324   7.316   3.693  0.6466  0.6654 -1.1844
   67MOL   H12329295   0.395   7.224   3.819 -2.4467  2.7995  0.5768
   67MOL   H12429296   0.247   7.072   3.675  1.9536 -1.4554  1.2044
   67MOL   H12529297   0.313   7.132   3.530 -0.6178 -0.3612  0.1346
   67MOL   H12629298   0.458   6.979   3.743 -4.0837  2.7482  1.6493
   67MOL   H12729299   0.379   6.908   3.604  0.5103 -1.0815  1.3329
   67MOL   H12829300   0.620   6.946   3.553  1.2770  0.5302 -1.8630
   67MOL   H12929301   0.528   7.064   3.463 -0.8174  0.6618  0.7212
   67MOL   H13029302   0.713   7.189   3.580  0.9038 -1.1526  1.0081
   67MOL   H13129303   0.669   7.137   3.734 -0.2544 -0.4185  0.3636
   67MOL   H13229304   0.640   7.292   3.867  0.9030 -0.2854 -0.2812
   67MOL   H13329305   0.577   7.443   3.912 -1.0955 -1.2717 -0.1602
   67MOL   C13429306   0.794   7.446   3.863  0.7522  0.3568  0.3756
   67MOL   C13529307   0.866   7.369   3.980  0.2008  0.1176  0.5856
   67MOL   C13629308   0.913   7.232   3.944 -0.2523 -0.0965  0.1071
   67MOL   C13729309   1.010   7.172   4.051  0.4949 -0.9924  0.0855
   67MOL   C13829310   0.943   7.171   4.190 -0.5198 -0.0975 -0.1130
   67MOL   C13929311   0.877   7.305   4.217 -0.8737  0.2400 -0.2090
   67MOL   C14029312   0.783   7.354   4.111 -0.2333 -0.3067  0.3307
   67MOL   C14129313   0.804   7.599   3.890 -0.3076  0.1895  0.6164
   67MOL   H14229314   0.852   7.428   3.772  0.3654  0.5817  0.0870
   67MOL   H14329315   0.956   7.426   4.005 -0.8380  0.3439  4.1369
   67MOL   H14429316   0.835   7.156   3.935  0.6237 -0.9994  0.0252
   67MOL   H14529317   0.970   7.250   3.852  0.4101 -0.5825  0.4127
   67MOL   H14629318   1.105   7.226   4.049  0.9505 -1.7980 -0.0948
   67MOL   H14729319   1.032   7.073   4.012  0.7850 -0.5009 -1.0259
   67MOL   H14829320   0.863   7.097   4.198 -0.2424 -0.5048 -1.0155
   67MOL   H14929321   1.017   7.154   4.268 -2.4615 -1.7893  1.4146
   67MOL   H15029322   0.951   7.385   4.213  1.6178 -1.8591  2.0409
   67MOL   H15129323   0.837   7.317   4.318 -1.1116  0.8563 -0.3764
   67MOL   H15229324   0.692   7.296   4.092 -1.1975  1.1581  0.3460
   67MOL   H15329325   0.737   7.450   4.137  0.6822 -0.5724  3.1789
   67MOL   H15429326   0.763   7.623   3.988  2.3709 -0.1746  1.8668
   67MOL   H15529327   0.744   7.651   3.816  1.7832  0.0844 -1.2015
   67MOL   C15629328   0.939   7.672   3.862 -0.7043  0.3851 -0.2894
   67MOL   C15729329   0.950   0.045   3.943  0.0683  0.3229 -0.2114
   67MOL   C15829330   0.839   0.150   3.908  0.4730  0.4936  0.2117
   67MOL   C15929331   0.873   0.273   3.997 -0.4892  0.7609 -0.2464
   67MOL   C16029332   0.857   0.240   4.151 -0.0774  0.9195  0.9518
   67MOL   C16129333   0.970   0.139   4.189  0.1352 -0.7344  0.2298
   67MOL   C16229334   0.954   0.013   4.097 -1.0270 -0.3858  0.0690
   67MOL   C16329335   0.959   7.684   3.702 -0.2587  0.1042  0.3222
   67MOL   H16429336   1.013   7.601   3.899 -1.2546 -0.8731 -1.5614
   67MOL   H16529337   1.043   0.091   3.911 -0.1767 -0.0588 -1.4741
   67MOL   H16629338   0.851   0.187   3.806 -2.4989  1.0902  0.0299
   67MOL   H16729339   0.736   0.114   3.912  0.3385  0.9321  0.9339
   67MOL   H16829340   0.971   0.308   3.966  0.2732 -0.4548  0.7293
   67MOL   H16929341   0.807   0.356   3.973  0.2774  1.4296 -0.0489
   67MOL   H17029342   0.758   0.207   4.183 -0.6074 -1.1996 -2.5464
   67MOL   H17129343   0.871   0.322   4.221  0.3976 -0.6470  2.7640
   67MOL   H17229344   0.969   0.111   4.294  0.4310  1.7450  0.9262
   67MOL   H17329345   1.067   0.185   4.169 -0.9107  1.7481  0.6365
   67MOL   H17429346   1.034   7.715   4.121  1.8363  2.7401 -0.0444
   67MOL   H17529347   0.869   7.725   4.130  0.0151 -2.4747 -0.9173
   67MOL   H17629348   0.901   7.768   3.662 -0.9976 -0.2234  0.6864
   67MOL   H17729349   0.914   7.597   3.654  1.1254 -0.0684 -0.6865
   67MOL   C17829350   1.105   7.695   3.664 -0.0459  0.5323  0.1973
   67MOL   C17929351   1.161   7.546   3.676 -0.4312  0.4496 -0.0821
   67MOL   C18029352   1.308   7.541   3.715  0.1041  0.1292  0.9389
   67MOL   C18129353   1.367   7.401   3.748  0.6567 -0.4972 -0.1421
   67MOL   C18229354   1.332   7.297   3.640 -0.1673 -0.0593  0.8081
   67MOL   C18329355   1.188   7.307   3.580  0.4813 -0.4690 -0.5344
   67MOL   C18429356   1.148   7.458   3.553 -0.2987 -0.0245  0.3320
   67MOL   C18529357   1.122   7.764   3.532 -0.1750 -0.6284 -0.0490
   67MOL   H18629358   1.160   7.755   3.736  2.4874 -2.4752  0.8958
   67MOL   H18729359   1.104   7.497   3.755  0.9764  0.2318  0.8019
   67MOL   H18829360   1.362   7.585   3.631 -0.8719  0.6164  0.5625
   67MOL   H18929361   1.330   7.610   3.797 -3.4405  1.4311  0.8512
   67MOL   H19029362   1.318   7.368   3.839 -0.8433  1.1000 -0.3327
   67MOL   H19129363   1.475   7.398   3.751  0.5954 -1.6527  1.0117
   67MOL   H19229364   1.411   7.313   3.566  0.7733 -1.8439  1.4071
   67MOL   H19329365   1.358   7.197   3.675  3.1820 -0.0556 -1.4085
   67MOL   H19429366   1.111   7.263   3.643  2.1619 -2.6275  0.0735
   67MOL   H19529367   1.181   7.256   3.484  0.4329 -2.5173  0.5306
   67MOL   H19629368   1.216   7.495   3.476  1.1802  0.4079  1.8192
   67MOL   H19729369   1.049   7.469   3.509 -1.0652  0.2391  2.0725
   67MOL   H19829370   1.223   7.749   3.494 -0.2466  0.1272 -0.5660
   67MOL   H19929371   1.051   7.717   3.464 -1.5543 -1.7758  2.1360
   67MOL   C20029372   1.108   0.148   3.544  0.6216  0.8179  0.1855
   67MOL   C20129373   1.239   0.231   3.519 -0.0901  0.0276  0.4010
   67MOL   C20229374   1.345   0.193   3.626  0.2639 -0.3997  0.3099
   67MOL   C20329375   1.471   0.273   3.596  0.6238  0.2698 -0.0043
   67MOL   C20429376   1.522   0.239   3.457 -0.1651 -0.1428  0.0208
   67MOL   C20529377   1.412   0.284   3.357  0.6405  0.0736  0.0697
   67MOL   C20629378   1.283   0.211   3.369  0.3678 -0.3883  0.3932
   67MOL   C20729379   0.990   0.196   3.457  0.2937 -0.1612  0.2992
   67MOL   H20829380   1.079   0.170   3.646 -0.4002 -3.9040  1.0135
   67MOL   H20929381   1.221   0.338   3.531  0.5678  0.2706 -0.6621
   67MOL   H21029382   1.380   0.092   3.607  0.3940 -0.1439 -0.8713
   67MOL   H21129383   1.303   0.192   3.727 -0.9160  0.4931 -0.1672
   67MOL   H21229384   1.441   0.378   3.595 -1.3712 -0.2694  1.0133
   67MOL   H21329385   1.537   0.249   3.679 -1.5569 -2.6904  0.9539
   67MOL   H21429386   1.622   0.281   3.445  0.4153 -1.1746  1.0852
   67MOL   H21529387   1.547   0.133   3.453  1.8129  0.2530  1.1477
   67MOL   H21629388   1.391   0.390   3.369  0.6177 -0.0552  1.2192
   67MOL   H21729389   1.465   0.264   3.264 -0.9094 -0.2933 -0.7598
   67MOL   H21829390   1.216   0.268   3.304 -1.2753 -1.2641  1.2716
   67MOL   H21929391   1.290   0.105   3.346  1.1261 -0.3116  0.2595
   67MOL   H22029392   1.010   0.135   3.369  0.3752  0.1879  0.0736
   67MOL   H22129393   0.891   0.163   3.489  0.2515 -0.5904 -0.2724
   67MOL   C22229394   0.967   0.346   3.430  0.1665  0.2277  0.6248
   67MOL   C22329395   0.867   0.386   3.316 -0.0893  0.1386 -0.2720
   67MOL   C22429396   0.715   0.348   3.341 -0.4544 -0.4319  0.0438
   67MOL   C22529397   0.628   0.389   3.227  0.2147 -0.0259 -0.2697
   67MOL   C22629398   0.679   0.339   3.091 -0.2640 -0.9913 -0.6095
   67MOL   C22729399   0.826   0.375   3.066 -0.3856 -0.8040  0.2524
   67MOL   C22829400   0.918   0.330   3.187 -0.5301  0.1044 -0.0771
   67MOL   C22929401   0.930   0.427   3.560 -0.7470  0.5326 -0.4090
   67MOL   H23029402   1.060   0.397   3.408  1.0839 -0.8691  1.8257
   67MOL   H23129403   0.869   0.492   3.289  0.6275  0.0642 -0.5227
   67MOL   H23229404   0.703   0.240   3.337  0.4239 -0.5901  1.3328
   67MOL   H23329405   0.684   0.392   3.436  1.9192 -0.5310  0.9029
   67MOL   H23429406   0.631   0.498   3.230  1.8162 -0.0877  0.8415
   67MOL   H23529407   0.532   0.346   3.256  0.2637 -0.5411 -0.8633
   67MOL   H23629408   0.665   0.231   3.089  0.5059 -1.0732 -1.7735
   67MOL   H23729409   0.616   0.378   3.011 -0.7750 -1.7812 -0.5925
   67MOL   H23829410   0.832   0.484   3.064 -0.6958 -0.7574  1.3938
   67MOL   H23929411   0.863   0.340   2.970  3.2905  0.4211  1.1287
   67MOL   H24029412   0.915   0.221   3.179  2.8565  0.0705 -1.8734
   67MOL   H24129413   1.019   0.364   3.163 -0.1196 -1.3582 -0.4509
   67MOL   H24229414   1.002   0.388   3.632  0.4660 -0.4837 -2.1462
   67MOL   H24329415   0.826   0.402   3.585 -0.9056 -0.3302 -1.8425
   67MOL   C24429416   0.944   0.582   3.550 -0.2635  0.1298 -0.4421
   67MOL   C24529417   1.064   0.655   3.627 -0.3464 -0.0902 -0.0010
   67MOL   C24629418   1.198   0.652   3.554 -0.2682 -0.2374 -0.3620
   67MOL   C24729419   1.290   0.758   3.621  0.4466  1.0757 -0.1107
   67MOL   C24829420   1.320   0.724   3.770  0.1980 -0.5349 -0.9606
   67MOL   C24929421   1.186   0.710   3.837  1.1032 -0.6814  0.0110
   67MOL   C25029422   1.086   0.613   3.767  0.4475  0.0703  0.0915
   67MOL   C25129423   0.806   0.644   3.582 -0.3807 -0.4099 -0.4440
   67MOL   H25229424   0.971   0.611   3.449 -2.6689  2.3686 -0.4883
   67MOL   H25329425   1.040   0.760   3.641  0.8429  0.1232  0.4341
   67MOL   H25429426   1.189   0.678   3.448  1.1835 -3.1484 -1.2532
   67MOL   H25529427   1.245   0.554   3.546 -2.1156 -1.2860  1.2056
   67MOL   H25629428   1.384   0.747   3.568  0.9142 -2.1451  1.3076
   67MOL   H25729429   1.241   0.856   3.615 -0.8656  0.4743  0.5994
   67MOL   H25829430   1.372   0.629   3.777 -0.2977 -0.7865 -0.6940
   67MOL   H25929431   1.385   0.798   3.816 -0.5276 -0.0151 -0.7578
   67MOL   H26029432   1.137   0.808   3.845  1.3055 -0.6134  0.3939
   67MOL   H26129433   1.201   0.675   3.939 -0.2464 -1.7599 -0.1490
   67MOL   H26229434   1.121   0.512   3.787  0.0601 -0.1558 -0.3769
   67MOL   H26329435   0.990   0.617   3.820  0.1863  1.4267 -0.4728
   67MOL   H26429436   0.809   0.632   3.690  1.4713  0.1567 -0.4117
   67MOL   H26529437   0.719   0.587   3.549  0.7573 -1.5971 -1.4396
   67MOL   C26629438   0.775   0.794   3.546 -0.2837  0.5134 -0.0333
   67MOL   C26729439   0.787   0.820   3.395 -0.1488  0.6428 -0.3339
   67MOL   C26829440   0.876   0.937   3.349  0.2125  0.5740 -0.0338
   67MOL   C26929441   0.905   0.945   3.202  0.1906  0.3387 -0.1231
   67MOL   C27029442   0.766   0.937   3.123 -0.3789  0.5101 -0.2851
   67MOL   C27129443   0.674   0.819   3.157 -0.6153  0.4085  0.5280
   67MOL   C27229444   0.653   0.813   3.313  0.2065  0.0523  0.3502
   67MOL   C27329445   0.641   0.842   3.615 -0.2936 -0.0521  0.1241
   67MOL   H27429446   0.846   0.858   3.598  0.8412 -1.6195  1.1132
   67MOL   H27529447   0.832   0.728   3.357  0.0963  0.6290 -0.0140
   67MOL   H27629448   0.808   1.019   3.374 -0.0134 -0.0606  1.5296
   67MOL   H27729449   0.969   0.930   3.404  0.3908  1.5725 -0.1999
   67MOL   H27829450   0.975   0.868   3.169 -0.4316 -0.8808  1.3712
   67MOL   H27929451   0.957   1.038   3.179  2.4226 -0.8855 -0.1686
   67MOL   H28029452   0.715   1.030   3.148 -0.3373  0.4100  0.1609
   67MOL   H28129453   0.777   0.940   3.014 -0.3920  0.1333 -0.2951
   67MOL   H28229454   0.723   0.728   3.125 -1.4716  0.7542 -1.8865
   67MOL   H28329455   0.580   0.820   3.101 -1.8970 -2.3348  2.5013
   67MOL   H28429456   0.599   0.724   3.344 -0.5052  0.0164 -0.9284
   67MOL   H28529457   0.591   0.900   3.335 -0.1051 -0.5378  1.8188
   67MOL   H28629458   0.560   0.774   3.590 -0.5449  0.3578 -0.1801
   67MOL   H28729459   0.612   0.935   3.566  1.2327 -0.1668 -1.0181
   67MOL   C28829460   0.656   0.871   3.766  0.8288 -0.4258 -0.1345
   67MOL   C28929461   0.598   0.749   3.846 -0.6953  0.1979  0.1731
   67MOL   C29029462   0.670   0.724   3.978 -0.6893 -0.2476 -0.5181
   67MOL   C29129463   0.616   0.594   4.040  0.1350 -0.0196 -0.6803
   67MOL   C29229464   0.472   0.606   4.071  0.7847 -0.1646  0.2182
   67MOL   C29329465   0.393   0.623   3.937 -0.2880 -0.6990 -0.5063
   67MOL   C29429466   0.442   0.754   3.870  0.4015 -0.0996 -0.1924
   67MOL   C29529467   0.595   1.008   3.812 -0.9088  0.2250 -0.1177
   67MOL   H29629468   0.762   0.887   3.789  0.3614 -0.7394  2.3731
   67MOL   H29729469   0.612   0.662   3.781  1.9088  0.1183  0.8161
   67MOL   H29829470   0.776   0.732   3.956 -0.6230 -0.1534 -0.1698
   67MOL   H29929471   0.652   0.805   4.048 -0.9034 -1.4099  0.8150
   67MOL   H30029472   0.633   0.503   3.983  1.4325 -0.9471  1.1463
   67MOL   H30129473   0.666   0.578   4.136  1.1884  1.9320 -0.8710
   67MOL   H30229474   0.456   0.686   4.143 -0.3588  1.1016 -1.4051
   67MOL   H30329475   0.439   0.516   4.123 -0.7338  0.6597  0.7115
   67MOL   H30429476   0.287   0.615   3.961 -0.3838 -0.3181 -0.7966
   67MOL   H30529477   0.411   0.537   3.874 -0.6662 -0.9067 -0.3328
   67MOL   H30629478   0.416   0.839   3.932 -0.1830 -0.6730  0.3523
   67MOL   H30729479   0.382   0.771   3.780  1.8910  1.4964 -0.9159
   67MOL   H30829480   0.494   1.008   3.772 -1.3608 -1.6249  0.9366
   67MOL   H30929481   0.597   1.013   3.921  0.7749 -3.4761  0.1039
   67MOL   C31029482   0.675   1.125   3.754  0.2355 -0.0212 -0.9858
   67MOL   C31129483   0.583   1.240   3.705 -0.3876 -0.0536 -0.2176
   67MOL   C31229484   0.492   1.208   3.583 -0.1842  0.2606 -0.0138
   67MOL   C31329485   0.421   1.325   3.524  0.1040 -0.4474  0.3197
   67MOL   C31429486   0.334   1.382   3.641  0.1823 -0.1618  0.0351
   67MOL   C31529487   0.409   1.427   3.765 -0.7773  0.6300 -0.6038
   67MOL   C31629488   0.501   1.311   3.817  0.0083  1.2947  1.0867
   67MOL   C31729489   0.787   1.167   3.854 -0.3932  0.7636  0.3766
   67MOL   H31829490   0.729   1.094   3.664 -1.2550 -0.8721 -1.6137
   67MOL   H31929491   0.651   1.319   3.674  0.7570 -1.1197 -0.5027
   67MOL   H32029492   0.532   1.143   3.505  1.6761 -0.0835  1.2070
   67MOL   H32129493   0.416   1.140   3.621  0.7462 -1.2228 -0.7534
   67MOL   H32229494   0.365   1.307   3.432 -0.6532 -2.1786  1.0912
   67MOL   H32329495   0.489   1.406   3.497  0.2844 -0.4185  0.8733
   67MOL   H32429496   0.266   1.459   3.603  0.8335 -0.2815 -1.4256
   67MOL   H32529497   0.266   1.305   3.678  1.0773 -0.3432  1.3291
   67MOL   H32629498   0.479   1.508   3.745  0.1444  0.0256  0.1298
   67MOL   H32729499   0.347   1.467   3.845  2.7027  0.7165  2.1404
   67MOL   H32829500   0.455   1.237   3.882 -0.4966  0.4546 -0.2138
   67MOL   H32929501   0.570   1.365   3.883 -0.1109  1.2688  1.2328
   67MOL   H33029502   0.858   1.090   3.883  2.1274  2.8899  0.1433
   67MOL   H33129503   0.729   1.204   3.938 -1.0312 -0.4965  0.4996
   67MOL   C33229504   0.888   1.289   3.812  1.1822  0.2423  0.0262
   67MOL   C33329505   0.974   1.253   3.684 -0.0791  0.3184  0.3190
   67MOL   C33429506   1.106   1.182   3.725  0.4842  0.5107 -0.2769
   67MOL   C33529507   1.180   1.143   3.595  0.0027 -0.1645  0.4037
   67MOL   C33629508   1.205   1.266   3.502  0.2455  0.3571  0.3445
   67MOL   C33729509   1.083   1.351   3.482 -0.4117  0.0442  0.1497
   67MOL   C33829510   1.018   1.381   3.616  0.3442 -0.0987  0.4820
   67MOL   C33929511   0.967   1.329   3.937 -0.6195  0.0900 -0.7124
   67MOL   H34029512   0.820   1.366   3.777  0.5825  0.0033  0.6471
   67MOL   H34129513   0.925   1.183   3.617  1.1021 -0.8263  0.6283
   67MOL   H34229514   1.166   1.261   3.771  0.5266 -0.1977  0.9024
   67MOL   H34329515   1.094   1.104   3.800  0.7478  0.7482  0.0179
   67MOL   H34429516   1.272   1.086   3.607  1.2265  1.1941 -2.2313
   67MOL   H34529517   1.123   1.069   3.538  1.4672 -0.7038 -0.3754
   67MOL   H34629518   1.289   1.327   3.534  0.1852 -0.3565  1.8836
   67MOL   H34729519   1.236   1.231   3.403  2.2132  3.8967 -0.3985
   67MOL   H34829520   1.010   1.295   3.424  0.7479  0.2709 -1.5544
   67MOL   H34929521   1.091   1.444   3.425  1.5023  0.1661  0.5924
   67MOL   H35029522   0.933   1.441   3.583 -1.6573 -2.9395  0.2269
   67MOL   H35129523   1.079   1.442   3.682  0.3013  1.8053 -1.1905
   67MOL   H35229524   1.056   1.381   3.903  0.6584 -2.0531 -0.7867
   67MOL   H35329525   1.009   1.236   3.977 -0.4590 -0.1251 -1.3736
   67MOL   C35429526   0.901   1.407   4.062 -0.2614 -0.5525  0.4668
   67MOL   C35529527   0.846   1.550   4.019 -0.6544 -0.1849  0.2978
   67MOL   C35629528   0.951   1.639   3.952 -0.3774  0.0475  0.4805
   67MOL   C35729529   0.891   1.757   3.880  0.0164  0.5421  0.0394
   67MOL   C35829530   0.794   1.835   3.969 -0.7083 -0.8504  0.6235
   67MOL   C35929531   0.689   1.755   4.047 -0.0866 -0.3141  0.1517
   67MOL   C36029532   0.756   1.631   4.118 -0.1987 -0.3757  0.0021
   67MOL   C36129533   0.989   1.416   4.190  0.5069 -0.1839  0.2921
   67MOL   H36229534   0.816   1.341   4.083  0.6653 -2.1392 -0.6370
   67MOL   H36329535   0.773   1.529   3.940  1.2901 -2.5475 -0.9620
   67MOL   H36429536   1.028   1.594   3.889 -1.7557  1.3833 -2.2019
   67MOL   H36529537   1.022   1.676   4.027  1.5630 -0.1793 -1.1775
   67MOL   H36629538   0.962   1.821   3.828  0.7634 -1.9990 -2.1995
   67MOL   H36729539   0.828   1.715   3.801 -0.4455  0.3510  0.5081
   67MOL   H36829540   0.861   1.897   4.028  0.9865 -0.2150 -1.9065
   67MOL   H36929541   0.742   1.904   3.903 -0.0571 -1.3389 -0.4108
   67MOL   H37029542   0.622   1.819   4.104  0.5465 -0.4989  1.0998
   67MOL   H37129543   0.608   1.721   3.982 -3.3001  0.4924  3.6104
   67MOL   H37229544   0.685   1.560   4.159 -0.1512 -0.3456  0.1353
   67MOL   H37329545   0.817   1.660   4.204 -1.9403 -0.2603  1.2107
   67MOL   H37429546   0.935   1.481   4.258  0.5291 -1.4513  1.5251
   67MOL   H37529547   1.084   1.463   4.163  0.3278 -0.9815 -1.8273
   67MOL   C37629548   1.017   1.283   4.259 -0.5390  0.2299  0.4767
   67MOL   C37729549   1.125   1.291   4.371  0.0208  0.1720  0.2179
   67MOL   C37829550   1.095   1.404   4.478  0.5978  0.2648 -0.0573
   67MOL   C37929551   1.204   1.424   4.577 -0.3321 -0.1573 -0.1280
   67MOL   C38029552   1.329   1.475   4.507 -0.8191  0.4519 -0.6489
   67MOL   C38129553   1.378   1.355   4.425  0.2718 -0.1930 -0.3328
   67MOL   C38229554   1.271   1.313   4.322  0.0115  1.1087 -0.8532
   67MOL   C38329555   0.886   1.232   4.331 -0.1443  0.0737  0.1693
   67MOL   H38429556   1.044   1.214   4.179 -1.8091  2.0122 -1.5142
   67MOL   H38529557   1.127   1.198   4.427  0.8065  0.8094  1.2991
   67MOL   H38629558   1.066   1.503   4.443 -0.2008  0.7549  1.8993
   67MOL   H38729559   1.001   1.387   4.531  0.0224 -1.7185 -1.6411
   67MOL   H38829560   1.221   1.341   4.646 -0.0009 -0.6369 -0.7777
   67MOL   H38929561   1.193   1.503   4.651 -0.2331  0.6597 -0.9721
   67MOL   H39029562   1.296   1.554   4.439  1.0449 -0.0661 -2.1885
   67MOL   H39129563   1.400   1.510   4.582 -2.9459 -0.3410  1.8055
   67MOL   H39229564   1.468   1.371   4.365 -0.4087  2.1961 -0.7727
   67MOL   H39329565   1.401   1.275   4.496  0.4775  0.3615  0.2369
   67MOL   H39429566   1.264   1.380   4.237 -0.0581  0.7532 -1.1324
   67MOL   H39529567   1.304   1.218   4.280 -1.6760 -0.2189  0.7400
   67MOL   H39629568   0.807   1.306   4.321  0.1129  0.2726 -0.4645
   67MOL   H39729569   0.905   1.208   4.435  1.7713 -1.8678 -0.5730
   67MOL   C39829570   0.838   1.104   4.263 -0.5271  0.1288 -0.0094
   67MOL   C39929571   0.942   0.982   4.275 -0.1097  0.1865  0.5157
   67MOL   C40029572   0.963   0.920   4.416  0.5296 -0.1233  0.2052
   67MOL   C40129573   1.085   0.830   4.425 -0.6062 -0.0339  0.2594
   67MOL   C40229574   1.084   0.717   4.314  0.0645 -0.5326 -0.1963
   67MOL   C40329575   1.029   0.763   4.177  0.0177 -0.0606 -0.2065
   67MOL   C40429576   0.913   0.857   4.183  0.9840  0.0562 -0.4588
   67MOL   C40529577   0.692   1.064   4.303 -0.1491 -0.0315 -0.1352
   67MOL   H40629578   0.836   1.134   4.158  0.3433 -2.4127 -0.7812
   67MOL   H40729579   1.038   1.019   4.239  0.7760 -1.7286  0.8602
   67MOL   H40829580   0.880   0.853   4.439  0.6253 -0.1491  0.4754
   67MOL   H40929581   0.970   0.997   4.492  0.5508  0.4582 -0.3833
   67MOL   H41029582   1.096   0.782   4.522 -1.1839 -0.4981  0.0996
   67MOL   H41129583   1.170   0.898   4.418 -1.8349  1.3866 -1.2003
   67MOL   H41229584   1.030   0.635   4.362  1.1160 -1.0568  0.0898
   67MOL   H41329585   1.181   0.668   4.303 -0.2324 -0.9264 -1.1440
   67MOL   H41429586   1.100   0.812   4.110 -0.3802  1.6022  0.5741
   67MOL   H41529587   1.012   0.669   4.125 -0.3833 -0.2792  0.3139
   67MOL   H41629588   0.901   0.896   4.082 -0.7972  0.7282 -0.0172
   67MOL   H41729589   0.826   0.793   4.200  2.7968 -1.9470  1.5515
   67MOL   H41829590   0.690   0.956   4.296 -2.4053 -0.0707  0.4869
   67MOL   H41929591   0.676   1.077   4.410 -1.3966  1.6755 -0.4974
   67MOL   C42029592   0.581   1.136   4.216  0.4542 -0.5133  0.0377
   67MOL   C42129593   0.532   1.268   4.283 -1.0532  0.4305  0.6783
   67MOL   C42229594   0.456   1.246   4.416 -0.8092  0.4548  0.7224
   67MOL   C42329595   0.420   1.386   4.477  0.5919 -0.0031 -0.2545
   67MOL   C42429596   0.326   1.455   4.370 -0.4425 -0.2898  0.0164
   67MOL   C42529597   0.405   1.493   4.237  0.7491 -0.4005  0.1901
   67MOL   C42629598   0.461   1.360   4.174 -0.5531 -0.0872 -0.4654
   67MOL   C42729599   0.474   1.042   4.182  0.1389 -0.0796  0.5866
   67MOL   H42829600   0.623   1.165   4.120  2.0885  0.6826  1.0960
   67MOL   H42929601   0.615   1.333   4.314 -0.9890  0.3017  0.7777
   67MOL   H43029602   0.362   1.196   4.392 -0.3794 -0.0591  0.0854
   67MOL   H43129603   0.512   1.188   4.489 -1.2898  0.2537  0.9349
   67MOL   H43229604   0.355   1.371   4.564  0.0830  0.2258 -0.5906
   67MOL   H43329605   0.508   1.443   4.505  0.0195  0.6615  0.1982
   67MOL   H43429606   0.286   1.547   4.415 -1.0216 -0.5043 -0.0582
   67MOL   H43529607   0.242   1.391   4.345 -2.1822  1.0397  2.1519
   67MOL   H43629608   0.486   1.559   4.267 -1.1145  1.8324  0.4741
   67MOL   H43729609   0.347   1.555   4.169  1.8998 -0.5668 -0.9506
   67MOL   H43829610   0.372   1.316   4.130  0.6246 -1.6022 -1.3654
   67MOL   H43929611   0.518   1.395   4.088 -1.2338 -0.2310 -0.9801
   67MOL   H44029612   0.520   0.955   4.134 -2.4636 -0.1832 -1.8460
   67MOL   H44129613   0.432   1.010   4.277  0.9367  0.8617  1.2713
   67MOL   H44229614   0.404   1.066   4.103  1.5742 -1.1385 -1.0401
   68MOL     C129615   1.885   1.864   0.098  0.7974  0.0478 -0.3986
   68MOL     C229616   1.966   1.757   0.182  0.1766  0.2977  0.4218
   68MOL     C329617   2.037   1.652   0.101  0.1375 -0.8277 -0.1067
   68MOL     C429618   2.113   1.560   0.192 -0.3874 -0.9508 -0.1734
   68MOL     C529619   2.033   1.484   0.307  0.2618  0.0579  0.8207
   68MOL     C629620   1.972   1.598   0.382  0.0742  0.4366  0.1776
   68MOL     C729621   1.883   1.698   0.300  0.1123  0.4073 -0.0762
   68MOL     C829622   1.748   1.825   0.060  0.5782 -0.2836 -0.5490
   68MOL     H929623   1.890   1.961   0.149 -0.4029  0.0437 -0.2496
   68MOL    H1029624   2.043   1.818   0.229  0.7542 -0.9175  1.0484
   68MOL    H1129625   1.956   1.605   0.044 -1.7006  0.9563  0.9807
   68MOL    H1229626   2.108   1.702   0.034  1.2534  1.1479  2.4438
   68MOL    H1329627   2.185   1.627   0.238  1.2045 -3.5951  1.2797
   68MOL    H1429628   2.175   1.494   0.131  0.1111 -0.9474  0.3287
   68MOL    H1529629   2.094   1.420   0.372 -0.9419 -3.2174 -1.1188
   68MOL    H1629630   1.958   1.422   0.257 -0.0056  1.0093  0.0381
   68MOL    H1729631   1.908   1.538   0.447  0.1781  0.6191  0.4507
   68MOL    H1829632   2.044   1.633   0.456  1.3746 -0.8516 -0.4570
   68MOL    H1929633   1.846   1.771   0.373 -0.6840 -1.2972  1.2584
   68MOL    H2029634   1.799   1.642   0.259  1.2971 -0.3089 -1.5440
   68MOL    H2129635   1.678   1.799   0.140  2.4204 -1.3978  0.7404
   68MOL    H2229636   1.755   1.729   0.009 -0.8162 -1.8412  2.0557
   68MOL    H2329637   1.944   1.880   0.008  1.9660 -0.1119  0.3330
   68MOL    C2429638   1.681   1.925   7.731 -0.2166  0.4963 -0.2442
   68MOL    C2529639   1.545   1.880   7.668  0.4404  0.0686  0.2888
   68MOL    C2629640   1.433   1.840   0.001 -0.3892  0.0892  0.1760
   68MOL    C2729641   1.305   1.788   7.709  0.7578 -0.4553 -0.2102
   68MOL    C2829642   1.335   1.682   7.602 -0.2475 -0.3347  0.2402
   68MOL    C2929643   1.446   1.719   7.504  0.2041  0.4237  0.2436
   68MOL    C3029644   1.570   1.768   7.574 -0.4068 -0.0181 -0.2874
   68MOL    C3129645   1.661   2.068   0.021 -0.8555 -0.3096 -0.5214
   68MOL    H3229646   1.744   1.951   7.646 -1.0854  0.1669 -0.9980
   68MOL    H3329647   1.515   1.960   7.601 -2.1079  0.2279  1.5726
   68MOL    H3429648   1.415   1.926   0.065  1.1266  0.6153 -0.0878
   68MOL    H3529649   1.475   1.757   0.058 -1.0048  0.0044  0.5113
   68MOL    H3629650   1.242   1.735   0.008 -0.4780 -0.2016 -1.1034
   68MOL    H3729651   1.246   1.866   7.661  0.2608 -2.1884 -2.4632
   68MOL    H3829652   1.245   1.666   7.544 -0.1036  1.8982 -0.6427
   68MOL    H3929653   1.358   1.586   7.649  1.8149  0.8886  1.8205
   68MOL    H4029654   1.473   1.641   7.434  0.0262  0.9629 -0.4278
   68MOL    H4129655   1.399   1.804   7.454 -2.3138 -1.0020  0.1213
   68MOL    H4229656   1.619   1.684   7.624 -1.4372 -1.0501 -0.9940
   68MOL    H4329657   1.630   1.799   7.489 -1.4952  0.4120 -0.8984
   68MOL    H4429658   1.651   2.051   0.128  1.9773 -0.4377 -0.2306
   68MOL    H4529659   1.565   2.110   7.763 -1.7543 -0.6888  1.7492
   68MOL    C4629660   1.771   2.175   7.772 -0.2349  0.3351 -0.8994
   68MOL    C4729661   1.774   2.282   0.104 -0.0195 -0.2890  0.2910
   68MOL    C4829662   1.823   2.234   0.243 -0.9568 -0.0438  0.2415
   68MOL    C4929663   1.849   2.354   0.332 -0.2000 -0.8015  0.1966
   68MOL    C5029664   1.717   2.426   0.353 -0.9164 -0.2056 -0.6439
   68MOL    C5129665   1.637   2.474   0.224  0.0918  0.3643 -0.1496
   68MOL    C5229666   1.640   2.356   0.121  0.1527  0.4869  0.4455
   68MOL    C5329667   1.769   2.242   7.631  0.0091 -0.0790 -0.9636
   68MOL    H5429668   1.862   2.118   0.020 -0.4618 -0.3489 -1.7611
   68MOL    H5529669   1.850   2.353   0.070 -0.0811  0.1635  1.0720
   68MOL    H5629670   1.755   2.160   0.286 -1.2323  0.1200  0.0911
   68MOL    H5729671   1.916   2.181   0.221 -1.1737 -0.1962 -0.3167
   68MOL    H5829672   1.924   2.418   0.287 -1.1365  1.6809  2.0257
   68MOL    H5929673   1.891   2.319   0.427  0.3258 -1.2298 -0.1884
   68MOL    H6029674   1.640   2.370   0.406 -0.9597  0.4432 -0.0091
   68MOL    H6129675   1.748   2.511   0.414  0.6216  1.3438 -3.4445
   68MOL    H6229676   1.699   2.554   0.183  1.3757 -0.5169  0.0490
   68MOL    H6329677   1.540   2.520   0.240  0.7334  1.9414 -0.6839
   68MOL    H6429678   1.567   2.280   0.149  0.4334 -0.4032 -1.1612
   68MOL    H6529679   1.601   2.391   0.025  0.3365  0.7382  0.4629
   68MOL    H6629680   1.787   2.350   7.634  1.8533 -0.4054  1.4721
   68MOL    H6729681   1.664   2.228   7.606 -0.3632 -2.2905  1.6432
   68MOL    C6829682   1.875   2.200   7.532 -0.8745  0.3204  0.5913
   68MOL    C6929683   1.811   2.184   7.391 -0.1055  0.3762 -0.0260
   68MOL    C7029684   1.716   2.065   7.378 -0.0302  0.6006  0.1317
   68MOL    C7129685   1.667   2.045   7.239 -0.3924 -0.1040  0.5894
   68MOL    C7229686   1.598   2.166   7.193  1.0542  0.2446 -0.3756
   68MOL    C7329687   1.690   2.280   7.186 -0.1644 -0.0832 -0.2379
   68MOL    C7429688   1.750   2.313   7.322  0.0680 -0.8144 -0.3352
   68MOL    C7529689   2.007   2.291   7.545 -0.2518 -0.6859 -0.8469
   68MOL    H7629690   1.907   2.103   7.569 -0.3234  0.0707 -0.5285
   68MOL    H7729691   1.894   2.140   7.335  0.4036  0.0134  0.9911
   68MOL    H7829692   1.625   2.069   7.437 -0.1953  1.2694 -0.1606
   68MOL    H7929693   1.775   1.981   7.415  2.0151  1.4896 -1.0061
   68MOL    H8029694   1.741   2.016   7.164 -1.5103  0.3454 -0.7079
   68MOL    H8129695   1.590   1.968   7.235  0.0593 -0.5564  0.5868
   68MOL    H8229696   1.512   2.202   7.251  0.7561  0.5227 -0.9924
   68MOL    H8329697   1.564   2.162   7.090 -1.0342  0.0294  0.2927
   68MOL    H8429698   1.635   2.371   7.161  0.4178  0.9437  2.0552
   68MOL    H8529699   1.770   2.256   7.116  0.0046  1.6597 -0.6595
   68MOL    H8629700   1.669   2.356   7.381  1.8189 -0.1560  1.6819
   68MOL    H8729701   1.823   2.393   7.309  1.8183 -2.2844  0.1859
   68MOL    H8829702   1.979   2.396   7.538 -0.0375 -0.3829  2.2064
   68MOL    H8929703   2.042   2.285   7.648  1.1991  1.5075 -1.1679
   68MOL    C9029704   2.132   2.244   7.454 -0.2745 -0.6443  0.2044
   68MOL    C9129705   2.233   2.362   7.429  0.0190 -0.6190 -0.1645
   68MOL    C9229706   2.184   2.476   7.339  0.8611  0.0702 -0.2462
   68MOL    C9329707   2.293   2.577   7.309  0.6054  0.0808  0.0766
   68MOL    C9429708   2.339   2.639   7.445  0.2436  0.7352  0.4491
   68MOL    C9529709   2.405   2.522   7.528 -0.0402 -0.2843  0.2244
   68MOL    C9629710   2.311   2.411   7.559 -0.0872 -1.1416 -0.0114
   68MOL    C9729711   2.201   2.108   7.497 -0.5724  0.4240 -0.2075
   68MOL    H9829712   2.093   2.231   7.353 -1.4964  1.4614  0.3645
   68MOL    H9929713   2.312   2.318   7.368  1.3280  1.6472 -0.1453
   68MOL   H10029714   2.104   2.535   7.385  0.4614 -1.3399  0.9005
   68MOL   H10129715   2.149   2.438   7.243 -0.6471 -0.7028  0.5906
   68MOL   H10229716   2.252   2.656   7.247  2.9796  1.5935  0.3509
   68MOL   H10329717   2.382   2.538   7.260 -0.0794  0.6950 -1.6985
   68MOL   H10429718   2.244   2.670   7.490  0.3489  1.5450  0.1173
   68MOL   H10529719   2.403   2.726   7.433 -1.5400  2.0692  0.3210
   68MOL   H10629720   2.488   2.471   7.479  0.4054  0.3657  0.2927
   68MOL   H10729721   2.437   2.579   7.615 -0.0265  0.9813 -0.5906
   68MOL   H10829722   2.361   2.326   7.604 -0.5298 -1.8779 -0.8934
   68MOL   H10929723   2.239   2.451   7.629 -2.4207 -0.8429 -2.4968
   68MOL   H11029724   2.279   2.129   7.570 -1.2478  2.9845 -0.1750
   68MOL   H11129725   2.123   2.050   7.546  1.9412 -2.7340  0.3062
   68MOL   C11229726   2.255   2.034   7.364 -0.3813 -0.2634  0.0448
   68MOL   C11329727   2.147   1.941   7.305  0.2263 -0.4821 -0.9783
   68MOL   C11429728   2.115   1.817   7.388  0.2566 -0.4620  0.1383
   68MOL   C11529729   1.984   1.761   7.329  0.3119  0.0780  0.6467
   68MOL   C11629730   1.994   1.729   7.182  0.9013  0.0216  0.4260
   68MOL   C11729731   2.045   1.838   7.101  0.2036  0.4745  0.0700
   68MOL   C11829732   2.168   1.912   7.162 -0.1718 -0.1164  0.0331
   68MOL   C11929733   2.378   1.947   7.404  0.4852  0.0627  0.6884
   68MOL   H12029734   2.270   2.100   7.279  0.9655  0.6571  0.9826
   68MOL   H12129735   2.060   2.006   7.302  1.6460  1.4874 -0.6374
   68MOL   H12229736   2.095   1.847   7.491  0.6094  0.4792 -0.0621
   68MOL   H12329737   2.186   1.735   7.383  0.6873  0.0573 -3.9219
   68MOL   H12429738   1.952   1.671   7.381  2.9617  0.4786  3.0509
   68MOL   H12529739   1.898   1.827   7.342  0.1938  0.0409  0.0750
   68MOL   H12629740   2.067   1.649   7.171  1.9983  1.2959 -1.9105
   68MOL   H12729741   1.900   1.687   7.148  1.6050 -1.0668 -0.2059
   68MOL   H12829742   2.051   1.806   6.997  0.4722  0.4097  0.1039
   68MOL   H12929743   1.965   1.913   7.104  0.0158  0.3039 -0.7479
   68MOL   H13029744   2.178   2.003   7.102 -0.9416  1.2074  1.8708
   68MOL   H13129745   2.258   1.852   7.147  0.5421  0.8955  0.2506
   68MOL   H13229746   2.384   1.855   7.346  2.4502  0.1036  0.7960
   68MOL   H13329747   2.354   1.918   7.507 -2.6785  1.7935  0.5131
   68MOL   C13429748   2.513   2.018   7.386 -0.2867 -0.5542  0.2532
   68MOL   C13529749   2.553   2.052   7.242 -0.2540  0.3799 -0.1519
   68MOL   C13629750   2.610   1.920   7.174 -0.0174  0.1501  0.5947
   68MOL   C13729751   2.622   1.953   7.021  0.0753 -0.1879 -0.5813
   68MOL   C13829752   2.728   2.064   7.015  0.6039 -0.0657 -0.1523
   68MOL   C13929753   2.681   2.190   7.079 -0.6949  0.0467  0.2234
   68MOL   C14029754   2.647   2.167   7.231  0.2591 -0.6226  0.3785
   68MOL   C14129755   2.622   1.944   7.465  0.1947  0.2186  0.1762
   68MOL   H14229756   2.497   2.115   7.434 -1.8795 -0.9597  0.5521
   68MOL   H14329757   2.464   2.091   7.194 -3.9572 -1.2013  4.9721
   68MOL   H14429758   2.702   1.878   7.215 -0.4805 -0.9481  0.5142
   68MOL   H14529759   2.539   1.837   7.182 -0.9554  0.5470 -2.9296
   68MOL   H14629760   2.527   1.989   6.980  0.5143  1.0349 -0.5489
   68MOL   H14729761   2.654   1.864   6.968  0.1054  1.1080 -2.8107
   68MOL   H14829762   2.814   2.028   7.071 -0.6699 -0.1101  1.8043
   68MOL   H14929763   2.755   2.076   6.910 -1.2215  0.7898 -0.5348
   68MOL   H15029764   2.597   2.228   7.020 -0.3848 -1.2979 -1.1085
   68MOL   H15129765   2.758   2.266   7.067 -1.3037  0.8232  1.1102
   68MOL   H15229766   2.736   2.147   7.291 -0.4296  1.3720  2.1353
   68MOL   H15329767   2.599   2.257   7.269  1.8038  0.1484  0.5459
   68MOL   H15429768   2.724   1.969   7.435  0.9882 -1.5449  1.3467
   68MOL   H15529769   2.618   1.839   7.437 -1.2058  0.0388  1.0440
   68MOL   C15629770   2.619   1.973   7.616  0.4259 -0.2604 -0.2500
   68MOL   C15729771   2.667   2.120   7.641 -0.0290  0.4413  0.5169
   68MOL   C15829772   2.597   2.184   7.763  0.4679  0.0962 -0.4165
   68MOL   C15929773   2.626   2.335   0.012 -0.3089  0.2195  0.1016
   68MOL   C16029774   2.784   2.355   0.024  0.9345 -0.4684 -0.4837
   68MOL   C16129775   2.853   2.287   7.678  0.1603  0.7648  0.2109
   68MOL   C16229776   2.820   2.138   7.667 -0.1469 -0.3439 -0.3317
   68MOL   C16329777   2.693   1.858   7.695  0.5490  0.4149  0.1881
   68MOL   H16429778   2.515   1.974   7.650 -0.0122  2.6662 -1.5621
   68MOL   H16529779   2.641   2.192   7.564 -0.3862  2.1113  2.1455
   68MOL   H16629780   2.489   2.192   7.753  0.5672 -0.5387 -2.2726
   68MOL   H16729781   2.617   2.126   0.081 -2.3224 -0.1995  0.0772
   68MOL   H16829782   2.577   2.382   7.700  1.1928  1.6013 -0.0394
   68MOL   H16929783   2.573   2.375   0.099  0.0826  0.4290  0.2449
   68MOL   H17029784   2.818   2.307   0.116 -1.8364 -2.8423 -0.6124
   68MOL   H17129785   2.816   2.459   0.035 -1.1186  0.0198  1.4056
   68MOL   H17229786   2.962   2.290   7.686  0.2141  0.4749 -0.3526
   68MOL   H17329787   2.837   2.335   7.582  1.2317 -2.9621 -1.9399
   68MOL   H17429788   2.876   2.096   7.584  2.0617  2.0325 -0.0926
   68MOL   H17529789   2.849   2.095   7.763  0.1740 -1.0483 -0.7466
   68MOL   H17629790   2.742   1.901   0.010  0.7646  0.2697  0.1386
   68MOL   H17729791   2.779   1.818   7.641  1.9575  2.7774  0.6101
   68MOL   C17829792   2.608   1.744   7.757  0.5808 -0.6820  0.2063
   68MOL   C17929793   2.534   1.660   7.656 -0.2215 -0.8862  0.5514
   68MOL   C18029794   2.422   1.576   7.722  0.1101  0.2676 -0.8402
   68MOL   C18129795   2.332   1.486   7.624  0.8497  0.1397  1.0360
   68MOL   C18229796   2.428   1.394   7.549 -0.0938 -0.1597  0.2500
   68MOL   C18329797   2.544   1.461   7.482  0.7045  0.1358  0.1787
   68MOL   C18429798   2.624   1.555   7.584  0.0790  0.3932  0.2591
   68MOL   C18529799   2.697   1.666   0.080 -0.2253  0.5254 -0.0316
   68MOL   H18629800   2.531   1.793   0.043  0.1299 -0.6557 -0.4104
   68MOL   H18729801   2.486   1.722   7.580 -0.1871 -1.5242  0.0028
   68MOL   H18829802   2.471   1.500   0.011 -1.1006 -0.3474 -0.6264
   68MOL   H18929803   2.346   1.631   0.004 -0.2190 -0.1083 -0.9202
   68MOL   H19029804   2.283   1.562   7.564  0.1819  0.4884  2.0140
   68MOL   H19129805   2.259   1.434   7.685 -0.1837  1.6545  1.1149
   68MOL   H19229806   2.458   1.323   7.626 -0.9673  1.2463  1.9077
   68MOL   H19329807   2.376   1.334   7.475  0.2507 -0.3121  0.1268
   68MOL   H19429808   2.520   1.511   7.388 -1.8354 -0.9198  0.2328
   68MOL   H19529809   2.617   1.387   7.451  0.3008 -0.0218 -0.4085
   68MOL   H19629810   2.667   1.488   7.658  0.9116 -0.5725 -1.0770
   68MOL   H19729811   2.715   1.595   7.541  0.9261  0.7222  2.3146
   68MOL   H19829812   2.664   1.562   0.081  1.1504  0.0186 -2.2798
   68MOL   H19929813   2.794   1.665   0.031  1.3031  1.6155  2.8363
   68MOL   C20029814   2.699   1.715   0.229  0.4188  0.4391 -0.0165
   68MOL   C20129815   2.637   1.627   0.342  0.0821  0.7908 -0.5150
   68MOL   C20229816   2.480   1.615   0.330 -0.0298  0.1068  0.5163
   68MOL   C20329817   2.415   1.536   0.447  0.2307 -0.3227  0.2150
   68MOL   C20429818   2.476   1.396   0.445 -0.2206 -0.0518  0.3463
   68MOL   C20529819   2.631   1.404   0.469  1.0526  0.1363  0.1000
   68MOL   C20629820   2.699   1.485   0.357 -0.2029 -0.4960 -0.3701
   68MOL   C20729821   2.837   1.754   0.283 -0.5087 -0.6692 -0.0825
   68MOL   H20829822   2.638   1.804   0.242  1.5313  1.0081  1.4858
   68MOL   H20929823   2.655   1.678   0.436  1.3637 -0.2392 -0.1827
   68MOL   H21029824   2.454   1.579   0.230 -0.1415  1.1632  0.1501
   68MOL   H21129825   2.442   1.715   0.349 -0.7101  0.3193 -1.7199
   68MOL   H21229826   2.429   1.591   0.540  1.1222 -2.1741  1.2207
   68MOL   H21329827   2.308   1.520   0.430  0.2337  1.1372 -1.2233
   68MOL   H21429828   2.422   1.324   0.507  1.8709  0.1927  2.5337
   68MOL   H21529829   2.461   1.356   0.345  0.1091  0.5313  0.0623
   68MOL   H21629830   2.634   1.460   0.562 -0.3503  0.8211 -0.2595
   68MOL   H21729831   2.669   1.302   0.476  1.2677  0.0405 -2.2563
   68MOL   H21829832   2.804   1.499   0.385 -0.1543  0.8035 -1.1778
   68MOL   H21929833   2.692   1.426   0.265  0.9056 -0.2238 -0.6420
   68MOL   H22029834   2.885   1.667   0.326 -0.6527 -0.5850  0.2532
   68MOL   H22129835   2.886   1.780   0.189 -1.8463 -0.2509 -0.6728
   68MOL   C22229836   2.839   1.877   0.368  0.2546 -0.6849 -0.0857
   68MOL   C22329837   2.976   1.893   0.444 -0.5939 -0.4002  1.1981
   68MOL   C22429838   3.096   1.897   0.351 -0.1483  0.5644 -0.5526
   68MOL   C22529839   3.232   1.929   0.420 -0.4511  0.5083  0.4163
   68MOL   C22629840   3.252   1.851   0.557  0.1972 -0.0966 -0.0690
   68MOL   C22729841   3.128   1.844   0.651  0.5468  0.1726  0.5785
   68MOL   C22829842   2.999   1.800   0.569 -0.0078  0.6394 -0.3011
   68MOL   C22929843   2.783   2.010   0.302 -0.6641  0.3004  0.2431
   68MOL   H23029844   2.779   1.858   0.457 -0.2565  0.2636 -0.2185
   68MOL   H23129845   2.963   1.991   0.489 -2.0120 -0.6192  1.2954
   68MOL   H23229846   3.106   1.798   0.306 -1.3388  1.4677 -2.9044
   68MOL   H23329847   3.086   1.968   0.269 -1.4554  1.2470  0.1860
   68MOL   H23429848   3.241   2.036   0.435  2.2842  0.7203 -2.1989
   68MOL   H23529849   3.317   1.915   0.352  1.3312  1.8819  2.2993
   68MOL   H23629850   3.288   1.752   0.529  1.7085  1.2273 -3.0757
   68MOL   H23729851   3.339   1.898   0.605  0.9107  0.8719 -2.2475
   68MOL   H23829852   3.108   1.940   0.697  0.3075  1.1821 -1.5792
   68MOL   H23929853   3.162   1.783   0.735  1.9389  0.4113  0.2170
   68MOL   H24029854   3.013   1.699   0.530  0.7253 -0.1863  2.0617
   68MOL   H24129855   2.906   1.794   0.625  0.3556  3.4033  0.6651
   68MOL   H24229856   2.716   1.988   0.219 -1.0158  1.8952  0.0927
   68MOL   H24329857   2.871   2.057   0.256 -0.8403  0.1778 -0.2244
   68MOL   C24429858   2.692   2.109   0.381  0.3498 -0.3935 -0.8672
   68MOL   C24529859   2.772   2.211   0.476 -0.2212  0.3103  0.1804
   68MOL   C24629860   2.687   2.319   0.539  0.2835 -0.4790 -0.2603
   68MOL   C24729861   2.762   2.400   0.648 -0.0932  0.1976  0.3770
   68MOL   C24829862   2.898   2.454   0.583 -0.1587  0.2688  0.0058
   68MOL   C24929863   2.978   2.341   0.527 -0.2612 -0.4738  0.2150
   68MOL   C25029864   2.906   2.267   0.419  0.1582 -0.0136 -0.1103
   68MOL   C25129865   2.566   2.046   0.450 -0.2368  0.2980  0.4824
   68MOL   H25229866   2.646   2.182   0.315  1.0673  1.2677  0.4540
   68MOL   H25329867   2.798   2.154   0.565 -1.1936 -0.5342 -0.0617
   68MOL   H25429868   2.587   2.290   0.572  0.3872 -1.9306 -1.2151
   68MOL   H25529869   2.652   2.390   0.464  2.1179  1.8059  0.9591
   68MOL   H25629870   2.704   2.489   0.671 -0.3042  0.3301 -0.6439
   68MOL   H25729871   2.787   2.353   0.743  0.4225  0.5656  0.4287
   68MOL   H25829872   2.872   2.522   0.502 -0.2588 -0.7737 -0.8552
   68MOL   H25929873   2.969   2.511   0.643  1.0478 -2.0357  0.8313
   68MOL   H26029874   2.997   2.269   0.607 -1.6618 -1.5059 -0.3616
   68MOL   H26129875   3.072   2.379   0.486 -1.8448  2.4045 -0.9189
   68MOL   H26229876   2.899   2.332   0.332  0.1599  0.5505  0.3130
   68MOL   H26329877   2.970   2.184   0.387  1.4088  1.5247 -1.6859
   68MOL   H26429878   2.586   2.032   0.556 -1.7570 -0.3850  0.7067
   68MOL   H26529879   2.561   1.946   0.407  2.4648  0.4511 -0.2692
   68MOL   C26629880   2.422   2.094   0.429  0.0214 -0.1194 -0.3816
   68MOL   C26729881   2.370   2.099   0.286 -0.7892  0.1871 -0.0639
   68MOL   C26829882   2.265   2.208   0.271  0.2631  0.1459 -0.5205
   68MOL   C26929883   2.212   2.230   0.127 -0.1206 -0.3204 -0.2125
   68MOL   C27029884   2.159   2.095   0.077  0.1930 -0.0404  0.4555
   68MOL   C27129885   2.267   1.992   0.075 -0.3919  0.1767  0.1314
   68MOL   C27229886   2.311   1.969   0.224  0.5327 -0.6414 -0.4823
   68MOL   C27329887   2.315   2.013   0.516 -0.1574  0.0780  0.4764
   68MOL   H27429888   2.435   2.197   0.462 -0.3202 -0.1377 -0.1884
   68MOL   H27529889   2.454   2.126   0.222 -0.9358  0.1564 -0.2696
   68MOL   H27629890   2.182   2.179   0.335  0.1768 -2.2249 -1.6597
   68MOL   H27729891   2.299   2.304   0.311 -0.0924  0.0622 -0.0162
   68MOL   H27829892   2.290   2.274   0.065  0.8045 -1.1845  0.3234
   68MOL   H27929893   2.134   2.306   0.114  0.8464  0.9883  1.5137
   68MOL   H28029894   2.082   2.058   0.145  0.9676 -0.2603  1.2346
   68MOL   H28129895   2.118   2.098   7.749  0.7974 -1.4568  0.1539
   68MOL   H28229896   2.349   2.023   0.010 -0.3792  0.0017  0.0648
   68MOL   H28329897   2.229   1.896   0.042  0.1958  0.1670 -0.5253
   68MOL   H28429898   2.390   1.896   0.241  0.5814 -0.2619  0.9981
   68MOL   H28529899   2.227   1.936   0.286  1.1002 -0.4190  0.4107
   68MOL   H28629900   2.337   1.907   0.500  2.6642  0.5365  1.0791
   68MOL   H28729901   2.213   2.032   0.481  0.0786  0.8508  0.2091
   68MOL   C28829902   2.307   2.040   0.664  0.3059 -0.2249 -0.0236
   68MOL   C28929903   2.213   1.936   0.732  0.2252  0.3047 -0.2972
   68MOL   C29029904   2.068   1.936   0.671 -0.5773  0.7520 -0.1167
   68MOL   C29129905   1.974   1.840   0.752 -0.0243 -0.2721  0.2631
   68MOL   C29229906   2.037   1.697   0.761  0.2322 -0.4232  0.0072
   68MOL   C29329907   2.178   1.699   0.816  0.5921 -0.4896  0.5289
   68MOL   C29429908   2.269   1.793   0.734 -0.0656  0.5212  0.7597
   68MOL   C29529909   2.261   2.185   0.687 -0.5771  0.6893 -0.3284
   68MOL   H29629910   2.406   2.029   0.708  0.5433 -1.7409 -0.9006
   68MOL   H29729911   2.209   1.967   0.836 -0.8352 -2.3271  0.4808
   68MOL   H29829912   2.016   2.032   0.661 -2.0888 -0.2217 -1.8790
   68MOL   H29929913   2.071   1.888   0.573 -0.6606 -0.6872  0.5680
   68MOL   H30029914   1.956   1.878   0.853 -0.4619  0.5903 -0.1384
   68MOL   H30129915   1.877   1.828   0.705  0.7295 -1.7049 -0.9667
   68MOL   H30229916   2.029   1.642   0.667  0.0300 -0.6211  0.1410
   68MOL   H30329917   1.969   1.640   0.824 -0.1707 -2.0475 -1.8423
   68MOL   H30429918   2.227   1.602   0.826  0.2581 -0.7996 -0.6702
   68MOL   H30529919   2.171   1.755   0.909 -3.5527 -1.4288  0.8590
   68MOL   H30629920   2.291   1.746   0.638 -2.8283  1.0734 -0.1610
   68MOL   H30729921   2.373   1.788   0.769  0.0337  0.9179  0.5251
   68MOL   H30829922   2.331   2.253   0.638  0.6897 -1.0755 -1.0276
   68MOL   H30929923   2.168   2.189   0.630 -0.4123  0.4512 -0.6117
   68MOL   C31029924   2.239   2.234   0.829  0.5513 -0.0770  0.2514
   68MOL   C31129925   2.369   2.243   0.914  0.3628 -0.7453  0.8639
   68MOL   C31229926   2.457   2.371   0.890  0.1796  0.7111  1.2344
   68MOL   C31329927   2.593   2.358   0.964  0.5120  0.0578 -0.2216
   68MOL   C31429928   2.574   2.330   1.116  0.6013  0.8713 -0.0736
   68MOL   C31529929   2.468   2.219   1.147 -0.2700  0.6221 -0.5190
   68MOL   C31629930   2.342   2.226   1.066  0.3531  0.7396 -0.4985
   68MOL   C31729931   2.142   2.360   0.832 -0.1963 -0.5254  0.0281
   68MOL   H31829932   2.184   2.157   0.882 -0.2161  1.6035  1.9663
   68MOL   H31929933   2.437   2.164   0.884  0.8880  0.5809 -1.5765
   68MOL   H32029934   2.482   2.382   0.785 -0.9687  0.8095  0.9710
   68MOL   H32129935   2.416   2.462   0.934 -1.0082  0.8297 -0.1120
   68MOL   H32229936   2.648   2.453   0.960 -1.4243  1.1345 -2.2171
   68MOL   H32329937   2.644   2.273   0.918  1.0622 -0.3522  1.1026
   68MOL   H32429938   2.669   2.304   1.161 -0.3729  0.3091  1.6902
   68MOL   H32529939   2.535   2.423   1.157 -1.1713  0.2241 -0.2488
   68MOL   H32629940   2.517   2.125   1.123  1.1992 -0.0313  4.4473
   68MOL   H32729941   2.437   2.218   1.252  2.7636 -1.0117  0.4297
   68MOL   H32829942   2.273   2.297   1.113  1.7636  1.7505  0.0533
   68MOL   H32929943   2.287   2.133   1.081  0.4901  0.8676  0.9053
   68MOL   H33029944   2.104   2.391   0.735 -2.0930 -0.6618  0.7062
   68MOL   H33129945   2.204   2.440   0.873  0.7072 -1.3990  0.4109
   68MOL   C33229946   2.018   2.345   0.921 -0.2909  0.0717 -0.0298
   68MOL   C33329947   1.910   2.245   0.876  0.0796 -0.3899 -0.3881
   68MOL   C33429948   1.854   2.264   0.736  0.1025 -0.1423  0.1341
   68MOL   C33529949   1.749   2.171   0.680 -0.3525  0.0649 -0.0423
   68MOL   C33629950   1.639   2.158   0.785  0.1651  0.8997  0.1381
   68MOL   C33729951   1.693   2.119   0.921  0.5011 -0.0304 -0.6473
   68MOL   C33829952   1.793   2.217   0.974 -0.5389 -0.1513  0.0032
   68MOL   C33929953   1.963   2.495   0.938  0.3542  0.3420 -0.1934
   68MOL   H34029954   2.057   2.305   1.015 -1.5937 -0.3464  0.3528
   68MOL   H34129955   1.959   2.148   0.870  0.9145  0.0591 -1.1085
   68MOL   H34229956   1.819   2.366   0.721  2.7979  0.5937 -1.5677
   68MOL   H34329957   1.940   2.244   0.671 -0.6188 -2.2525 -0.1937
   68MOL   H34429958   1.721   2.215   0.585  0.6387  1.2280  0.1926
   68MOL   H34529959   1.792   2.071   0.669 -1.1224 -0.3847  0.9012
   68MOL   H34629960   1.591   2.254   0.804 -0.3961  0.4094  1.2981
   68MOL   H34729961   1.576   2.077   0.750  0.5459  0.0345  1.4126
   68MOL   H34829962   1.742   2.022   0.930  0.5669  0.0506 -0.1119
   68MOL   H34929963   1.610   2.121   0.991  1.1151 -2.6953  0.2361
   68MOL   H35029964   1.834   2.196   1.073  0.5807 -2.5535 -0.9430
   68MOL   H35129965   1.746   2.316   0.981  1.4695  0.6797  2.2276
   68MOL   H35229966   1.857   2.488   0.965  1.0973 -2.0865  2.3268
   68MOL   H35329967   1.953   2.540   0.840 -1.7795 -0.5043 -0.3849
   68MOL   C35429968   2.036   2.583   1.043  0.2173  0.0300  0.3264
   68MOL   C35529969   1.958   2.567   1.171 -0.7986  0.9915 -0.0510
   68MOL   C35629970   1.834   2.659   1.174 -0.1722 -0.4477 -0.4083
   68MOL   C35729971   1.752   2.627   1.303 -0.6729  0.1420  0.2498
   68MOL   C35829972   1.832   2.636   1.438 -0.4668  0.5272 -0.0671
   68MOL   C35929973   1.965   2.553   1.434  0.0665 -0.2462 -0.2492
   68MOL   C36029974   2.045   2.582   1.303  0.5403 -0.3255 -0.3544
   68MOL   C36129975   2.053   2.722   0.982 -0.1830  0.0018 -0.9599
   68MOL   H36229976   2.137   2.543   1.051  1.2092  2.2016 -1.0050
   68MOL   H36329977   1.921   2.464   1.175 -0.7906  1.0025  0.3362
   68MOL   H36429978   1.772   2.638   1.086  0.3327 -2.6628 -0.2741
   68MOL   H36529979   1.854   2.766   1.169  1.5074 -0.5634  2.6999
   68MOL   H36629980   1.670   2.697   1.320 -2.3549 -1.3581 -1.4278
   68MOL   H36729981   1.685   2.541   1.295 -1.7904  1.1139 -1.2687
   68MOL   H36829982   1.863   2.736   1.465  0.6206  0.4313 -0.8855
   68MOL   H36929983   1.760   2.601   1.511  1.0028  1.6712  1.9930
   68MOL   H37029984   2.025   2.571   1.523  0.0029  0.9214 -0.4275
   68MOL   H37129985   1.941   2.447   1.437 -0.2008 -0.1514  3.0440
   68MOL   H37229986   2.132   2.517   1.296  1.7668  1.5497 -3.6663
   68MOL   H37329987   2.084   2.684   1.303  2.0562 -0.8543 -3.4379
   68MOL   H37429988   1.958   2.758   0.943 -0.5764 -1.8868 -1.7706
   68MOL   H37529989   2.119   2.711   0.896 -2.6953 -2.7003 -2.5984
   68MOL   C37629990   2.124   2.829   1.070 -0.8282 -0.2113 -0.9035
   68MOL   C37729991   2.272   2.785   1.109  0.5027  0.0479 -0.2668
   68MOL   C37829992   2.321   2.855   1.241  0.7498  0.1955  0.9171
   68MOL   C37929993   2.465   2.824   1.267  0.3987 -0.7523 -0.0445
   68MOL   C38029994   2.552   2.855   1.141 -0.2356 -0.4926 -0.5895
   68MOL   C38129995   2.511   2.776   1.021 -0.0808  0.3600  0.2655
   68MOL   C38229996   2.368   2.811   0.991  0.7081 -0.0198 -0.0224
   68MOL   C38329997   2.122   2.973   1.003  0.7418 -0.1835 -0.9585
   68MOL   H38429998   2.069   2.831   1.163  0.3295  0.0719 -0.2121
   68MOL   H38529999   2.280   2.680   1.139 -0.5743 -0.3219 -1.2551
   68MOL   H38630000   2.320   2.964   1.243  1.1019  0.1919  1.4775
   68MOL   H38730001   2.257   2.830   1.325  1.0333 -0.1659  1.0266
   68MOL   H38830002   2.481   2.717   1.280 -0.2093 -0.8953 -0.4541
   68MOL   H38930003   2.516   2.877   1.347  1.4187  2.6399 -2.8213
   68MOL   H39030004   2.550   2.961   1.116  2.2515 -0.5029 -1.0431
   68MOL   H39130005   2.659   2.846   1.163  0.1111 -0.1464 -2.0902
   68MOL   H39230006   2.582   2.774   0.938  0.8392  2.3829  0.9776
   68MOL   H39330007   2.514   2.670   1.046 -0.8259  1.1321  3.8602
   68MOL   H39430008   2.366   2.917   0.966 -0.4241  0.1345  0.7114
   68MOL   H39530009   2.327   2.773   0.897 -0.8579  1.5424  0.0050
   68MOL   H39630010   2.141   2.971   0.896 -3.2766 -0.1416 -1.7388
   68MOL   H39730011   2.196   3.041   1.046  0.2438 -1.1773  1.5983
   68MOL   C39830012   1.986   3.041   1.021 -0.3335  1.0283  0.2551
   68MOL   C39930013   1.941   3.080   1.162  0.8730 -1.3093 -0.3494
   68MOL   C40030014   2.037   3.172   1.233 -0.1455 -0.2417 -0.2029
   68MOL   C40130015   2.021   3.162   1.387 -0.2617  0.2890 -0.8101
   68MOL   C40230016   1.878   3.209   1.417 -0.4933 -0.3981 -0.3017
   68MOL   C40330017   1.770   3.145   1.331  0.1126 -0.3212 -0.1047
   68MOL   C40430018   1.802   3.137   1.178  0.5713  0.2091 -0.2558
   68MOL   C40530019   1.980   3.167   0.929  0.2418  0.3754 -0.7934
   68MOL   H40630020   1.911   2.969   0.986 -0.9123  1.3834  0.7580
   68MOL   H40730021   1.932   2.989   1.221  0.8117 -0.6895  0.6234
   68MOL   H40830022   2.018   3.276   1.207 -0.9133 -0.4436 -0.4495
   68MOL   H40930023   2.141   3.140   1.225  0.1974  0.4186  1.3207
   68MOL   H41030024   2.092   3.227   1.439 -0.8141  0.4119 -0.1933
   68MOL   H41130025   2.024   3.057   1.416  0.2074  0.7980  1.0685
   68MOL   H41230026   1.877   3.317   1.432 -0.1575  0.0802 -3.4346
   68MOL   H41330027   1.854   3.173   1.517  0.1253  1.6785  0.6164
   68MOL   H41430028   1.765   3.038   1.355  2.4655 -0.8797 -1.8709
   68MOL   H41530029   1.674   3.187   1.357  0.8540  0.3720  1.5649
   68MOL   H41630030   1.731   3.075   1.123  0.2989  0.4968 -0.2270
   68MOL   H41730031   1.803   3.241   1.144  2.3613  0.0757 -0.6645
   68MOL   H41830032   1.888   3.225   0.940 -0.2314 -0.0069 -2.5259
   68MOL   H41930033   2.054   3.236   0.971  0.9060 -0.7412 -0.1120
   68MOL   C42030034   2.012   3.151   0.777  0.3732 -0.1114 -0.1081
   68MOL   C42130035   1.992   3.287   0.699 -0.4171  0.0846 -0.4286
   68MOL   C42230036   2.070   3.397   0.764 -0.5322  0.8090  0.7237
   68MOL   C42330037   2.059   3.524   0.691  0.4087  0.4826 -0.0163
   68MOL   C42430038   1.909   3.553   0.691 -0.4911  0.2862 -0.0577
   68MOL   C42530039   1.819   3.451   0.626 -0.4648  0.0010 -0.0390
   68MOL   C42630040   1.838   3.321   0.700  0.4759  0.0072 -0.0577
   68MOL   C42730041   1.936   3.027   0.715 -0.2412 -0.2152  0.6453
   68MOL   H42830042   2.117   3.134   0.754  0.1177 -0.7903 -0.7736
   68MOL   H42930043   2.021   3.273   0.595  1.0131  1.8553 -0.2957
   68MOL   H43030044   2.037   3.418   0.866  1.3099 -1.2251  1.7769
   68MOL   H43130045   2.177   3.377   0.768 -0.8901 -0.8788  2.4960
   68MOL   H43230046   2.119   3.598   0.744  0.0900  0.4088  0.4480
   68MOL   H43330047   2.099   3.507   0.591 -1.0113 -2.4830 -0.1434
   68MOL   H43430048   1.881   3.648   0.644  1.6883  0.7858 -0.4153
   68MOL   H43530049   1.879   3.576   0.793  0.8003 -0.4387  0.4874
   68MOL   H43630050   1.844   3.425   0.523  1.2482  0.1674  0.3060
   68MOL   H43730051   1.716   3.485   0.620  0.0509  1.7994  0.8541
   68MOL   H43830052   1.809   3.342   0.803  1.4720 -0.4390  0.3230
   68MOL   H43930053   1.773   3.240   0.666  0.6901  0.7038 -2.1755
   68MOL   H44030054   1.956   2.930   0.760  2.0895 -0.1462 -0.1757
   68MOL   H44130055   1.828   3.040   0.724 -0.3644  0.6501 -1.6491
   68MOL   H44230056   1.940   3.016   0.606 -0.7840 -1.3223  0.7265
   69MOL     C130057   0.207   3.242   0.404 -0.1219 -0.4883  0.1875
   69MOL     C230058   0.275   3.142   0.494 -0.1948  0.4931  0.2823
   69MOL     C330059   0.207   3.006   0.525 -0.1232  0.4119 -0.2555
   69MOL     C430060   0.306   2.908   0.601  0.1347 -0.4525 -0.5875
   69MOL     C530061   0.363   2.978   0.722 -0.5818  0.6943  0.2124
   69MOL     C630062   0.436   3.108   0.685  0.3635  0.2674 -0.5281
   69MOL     C730063   0.336   3.204   0.619 -0.0780 -0.2792  0.0771
   69MOL     C830064   0.141   3.185   0.272  0.1809 -0.4463 -1.1727
   69MOL     H930065   0.136   3.307   0.455 -0.8234 -0.4283 -0.8314
   69MOL    H1030066   0.361   3.104   0.438 -0.8023  0.5402 -0.6786
   69MOL    H1130067   0.118   3.025   0.586 -1.5234 -0.9884 -1.7965
   69MOL    H1230068   0.174   2.960   0.432 -2.5304  2.5124 -0.5185
   69MOL    H1330069   0.389   2.891   0.532 -0.0163 -1.4280 -0.5339
   69MOL    H1430070   0.259   2.813   0.628 -0.5075 -0.0930 -0.4325
   69MOL    H1530071   0.438   2.913   0.766 -0.3766  1.4003  0.9163
   69MOL    H1630072   0.290   2.998   0.800  0.1818 -0.0529  1.1297
   69MOL    H1730073   0.473   3.158   0.774  1.1009  0.2606 -0.8338
   69MOL    H1830074   0.517   3.090   0.615 -0.3904 -0.6742 -1.1731
   69MOL    H1930075   0.401   3.288   0.592  0.9036 -1.2522 -0.6427
   69MOL    H2030076   0.253   3.240   0.680 -0.3056 -1.9309  0.7763
   69MOL    H2130077   0.045   3.139   0.298  0.6902 -0.6019  0.4948
   69MOL    H2230078   0.207   3.107   0.234 -1.6907 -1.4035 -2.5492
   69MOL    H2330079   0.284   3.315   0.380 -1.0183  0.8193  1.2754
   69MOL    C2430080   0.118   3.289   0.160 -0.0696 -0.1495  0.2652
   69MOL    C2530081   0.105   3.223   0.018 -0.3046  0.0162  0.2133
   69MOL    C2630082   0.098   3.333   7.677  0.2760 -0.0774 -0.4222
   69MOL    C2730083   0.084   3.268   7.540 -0.7100 -0.3101  0.2435
   69MOL    C2830084   7.741   3.171   7.538  0.0127 -0.2808 -0.0881
   69MOL    C2930085   7.751   3.061   7.645  0.8159  0.3401 -0.1053
   69MOL    C3030086   7.757   3.125   0.012  1.2369 -0.3757  0.0494
   69MOL    C3130087   7.767   3.375   0.195 -0.6071 -0.1379 -0.6043
   69MOL    H3230088   0.210   3.344   0.144  1.0492 -1.4507  2.1076
   69MOL    H3330089   0.195   3.163   0.005 -0.2501  0.0594  0.3819
   69MOL    H3430090   0.187   3.396   7.683  0.5761 -0.6028  0.7250
   69MOL    H3530091   0.021   3.408   7.697  0.2204 -0.5501  1.2198
   69MOL    H3630092   0.085   3.338   7.456  0.7080 -0.8411 -0.1948
   69MOL    H3730093   0.173   3.209   7.521 -1.7612 -2.2102  1.1141
   69MOL    H3830094   7.736   3.124   7.440  2.5850  0.5717 -0.6506
   69MOL    H3930095   7.649   3.225   7.560 -0.3601 -0.7781 -0.4018
   69MOL    H4030096   7.676   2.982   7.639 -0.9372  1.7303  2.6917
   69MOL    H4130097   0.071   3.005   7.630  1.0490  0.4296  0.9343
   69MOL    H4230098   7.656   3.165   0.027  2.6098  2.8124  1.2623
   69MOL    H4330099   7.765   3.042   0.082  0.5837 -1.1964 -0.8270
   69MOL    H4430100   7.717   3.318   0.273  0.6667  0.8623  0.9819
   69MOL    H4530101   7.692   3.373   0.116 -0.9095  1.1802 -0.3693
   69MOL    C4630102   0.022   3.516   0.248  0.0917  0.2454  0.0961
   69MOL    C4730103   7.671   3.580   0.324  0.3548 -0.1849  0.8731
   69MOL    C4830104   7.626   3.519   0.463 -0.4341 -0.0070  1.0381
   69MOL    C4930105   7.506   3.582   0.529  1.2608 -0.0143 -0.0071
   69MOL    C5030106   7.384   3.584   0.436 -0.0824 -0.9378 -0.2118
   69MOL    C5130107   7.428   3.672   0.311 -0.1475 -0.0137  0.1984
   69MOL    C5230108   7.539   3.595   0.236 -0.0302 -0.1958 -0.5035
   69MOL    C5330109   0.090   3.605   0.134  0.0761 -0.4895  0.2836
   69MOL    H5430110   0.095   3.508   0.329  0.8027 -1.6211 -0.7065
   69MOL    H5530111   7.703   3.680   0.353 -1.0594  0.6338 -0.3038
   69MOL    H5630112   7.623   3.410   0.468 -2.8245  0.0245  0.6706
   69MOL    H5730113   7.703   3.545   0.535 -0.4435  2.1537  0.3022
   69MOL    H5830114   7.535   3.683   0.560  0.5144  0.1112  0.2752
   69MOL    H5930115   7.485   3.518   0.614 -0.6668  0.0015 -0.4491
   69MOL    H6030116   7.340   3.488   0.411 -0.7266 -0.5172 -0.7144
   69MOL    H6130117   7.303   3.636   0.487  0.4496  0.8719 -1.1668
   69MOL    H6230118   7.474   3.767   0.339  2.6718 -1.1195 -0.6055
   69MOL    H6330119   7.340   3.694   0.250  0.3991 -2.7258 -1.6047
   69MOL    H6430120   7.488   3.506   0.201  1.5613 -2.3971  2.5337
   69MOL    H6530121   7.577   3.658   0.155  2.5445 -2.2677 -0.9378
   69MOL    H6630122   0.019   3.603   0.052 -0.3301 -1.5954  0.6505
   69MOL    H6730123   0.176   3.547   0.099  1.3327  1.0593  0.7446
   69MOL    C6830124   0.146   3.744   0.181 -0.7423  0.2068 -0.6087
   69MOL    C6930125   0.284   3.730   0.263  0.1098  0.3279 -0.2203
   69MOL    C7030126   0.401   3.702   0.169 -0.2801  0.1878 -0.0277
   69MOL    C7130127   0.542   3.713   0.239  0.0221  0.6117  0.0630
   69MOL    C7230128   0.553   3.839   0.327 -0.3176  0.0903 -0.2042
   69MOL    C7330129   0.443   3.849   0.431 -0.1838 -0.3441 -0.3357
   69MOL    C7430130   0.307   3.844   0.355  0.4912  0.5870  0.5833
   69MOL    C7530131   0.139   3.845   0.064 -0.1037 -0.7579 -0.0536
   69MOL    H7630132   0.073   3.787   0.250 -0.5287  1.2366 -1.0040
   69MOL    H7730133   0.265   3.649   0.333 -2.9068  0.8674 -0.3092
   69MOL    H7830134   0.406   3.776   0.089  0.2100  0.5761  0.3637
   69MOL    H7930135   0.385   3.610   0.111 -0.4495 -0.7066  1.4241
   69MOL    H8030136   0.553   3.622   0.297  0.9380  1.5527  1.3997
   69MOL    H8130137   0.625   3.711   0.168 -1.7974  1.5455 -2.1534
   69MOL    H8230138   0.549   3.919   0.253 -0.6691  0.6160  0.3723
   69MOL    H8330139   0.656   3.839   0.363 -0.7373  0.0951  1.0227
   69MOL    H8430140   0.459   3.941   0.487  1.1288 -1.3107  0.9061
   69MOL    H8530141   0.458   3.764   0.497  0.0235  0.1659  0.2678
   69MOL    H8630142   0.280   3.936   0.303 -0.5154  0.1260  0.2683
   69MOL    H8730143   0.234   3.849   0.435  0.0013  3.0537  0.0263
   69MOL    H8830144   0.210   3.925   0.082 -0.4435 -0.5509  0.3566
   69MOL    H8930145   0.177   3.784   7.754 -0.4152 -0.4470 -0.4265
   69MOL    C9030146   0.000   3.907   0.032 -0.0483 -0.0361 -0.0753
   69MOL    C9130147   7.723   4.010   0.135 -0.1633  0.1673 -0.3291
   69MOL    C9230148   0.011   4.156   0.127 -0.2798  0.0910 -0.4802
   69MOL    C9330149   7.738   4.233   0.253 -0.0642  0.0173 -0.2002
   69MOL    C9430150   7.581   4.247   0.253  0.3547  0.5325 -0.1688
   69MOL    C9530151   7.521   4.100   0.256  0.1818  0.5599 -0.0047
   69MOL    C9630152   7.575   4.017   0.141 -0.1839  1.1898  0.1790
   69MOL    C9730153   7.767   3.957   7.655 -0.2989 -0.6870 -0.5289
   69MOL    H9830154   7.710   3.818   0.039  0.0531 -0.0537  0.6591
   69MOL    H9930155   7.768   3.980   0.229  2.6249  1.6016 -1.1579
   69MOL   H10030156   7.755   4.195   0.029  0.0306 -0.5757 -0.8358
   69MOL   H10130157   0.120   4.156   0.131 -0.2290 -2.7817 -0.7838
   69MOL   H10230158   0.012   4.331   0.247  0.4428 -0.2765 -1.2943
   69MOL   H10330159   7.758   4.178   0.345  0.7873  0.5626 -0.0601
   69MOL   H10430160   7.542   4.303   0.168  0.0095  1.5458  0.6419
   69MOL   H10530161   7.546   4.303   0.339 -0.0024 -0.9328  0.6620
   69MOL   H10630162   7.540   4.036   0.342 -1.7703  0.3038  0.2520
   69MOL   H10730163   7.413   4.110   0.262  0.3140  1.5892  0.9684
   69MOL   H10830164   7.530   3.918   0.146 -0.5926  1.3103 -1.0146
   69MOL   H10930165   7.536   4.072   0.055  0.2145  1.3852  0.1208
   69MOL   H11030166   7.682   4.024   7.653  0.2908  0.0540 -1.3757
   69MOL   H11130167   0.079   4.023   7.634 -1.2794  0.2413 -1.5766
   69MOL   C11230168   7.748   3.839   7.550  0.1253  0.0297  0.1034
   69MOL   C11330169   0.111   3.803   7.482  0.1542  0.3176  0.0258
   69MOL   C11430170   0.136   3.863   7.341  0.5077  0.5745 -0.2964
   69MOL   C11530171   0.275   3.830   7.299  0.1629  0.0147 -0.0362
   69MOL   C11630172   0.289   3.675   7.293  0.5875 -0.6326  0.3612
   69MOL   C11730173   0.281   3.613   7.431 -0.0777  0.4560  0.1523
   69MOL   C11830174   0.147   3.652   7.487  0.3476 -1.1354  0.3131
   69MOL   C11930175   7.634   3.884   7.452 -0.3089 -0.0943  0.1574
   69MOL   H12030176   7.717   3.746   7.598 -1.7827 -0.1067 -1.3227
   69MOL   H12130177   0.183   3.859   7.542  1.4407 -1.2604 -0.0057
   69MOL   H12230178   0.140   3.972   7.352 -2.1387  0.4530  2.5474
   69MOL   H12330179   0.066   3.844   7.260 -0.9383  1.0294  0.8311
   69MOL   H12430180   0.307   3.870   7.202 -2.4467  0.9752 -0.5501
   69MOL   H12530181   0.345   3.879   7.367 -0.3721  1.5573 -0.5595
   69MOL   H12630182   0.209   3.630   7.235 -1.7526  3.0573  0.5527
   69MOL   H12730183   0.377   3.658   7.229  0.6465  1.6463 -0.2129
   69MOL   H12830184   0.282   3.504   7.423 -1.4223  0.5080 -0.8707
   69MOL   H12930185   0.363   3.645   7.495 -0.0278  1.1869 -0.2670
   69MOL   H13030186   0.144   3.617   7.590 -1.8263 -2.3584 -0.1399
   69MOL   H13130187   0.070   3.588   7.443 -0.7770  0.3532  0.0709
   69MOL   H13230188   7.635   3.832   7.356 -1.3407 -0.2438  0.2282
   69MOL   H13330189   7.654   3.987   7.424  1.2682 -0.7414 -1.2172
   69MOL   C13430190   7.489   3.879   7.508 -0.1411 -0.0726 -0.3777
   69MOL   C13530191   7.431   3.729   7.508  0.4552  0.4174  0.5062
   69MOL   C13630192   7.428   3.677   7.655  0.7546 -0.1263 -0.7486
   69MOL   C13730193   7.371   3.536   7.678 -0.4390  0.1160  0.0280
   69MOL   C13830194   7.437   3.432   7.578  0.0782 -0.9153 -0.4041
   69MOL   C13930195   7.418   3.475   7.428 -0.3633 -0.6332 -0.1016
   69MOL   C14030196   7.469   3.619   7.403  0.3230 -0.1660  0.3002
   69MOL   C14130197   7.401   3.968   7.415 -0.3293 -0.1471 -0.1668
   69MOL   H14230198   7.485   3.917   7.610  0.0191  0.5808 -0.6092
   69MOL   H14330199   7.323   3.742   7.494  0.7243  0.2521 -1.9242
   69MOL   H14430200   7.527   3.667   7.700 -0.0512 -0.4397  1.0060
   69MOL   H14530201   7.378   3.741   7.728  1.7380 -0.6970  0.4527
   69MOL   H14630202   7.265   3.539   7.651 -0.4067  0.5650 -0.0492
   69MOL   H14730203   7.369   3.510   0.012 -1.7609 -0.8862 -0.2181
   69MOL   H14830204   7.539   3.407   7.606 -0.1904 -0.3760  1.1188
   69MOL   H14930205   7.391   3.334   7.581  0.7689 -1.2853 -1.8929
   69MOL   H15030206   7.313   3.457   7.407 -0.1628 -1.7886 -0.1374
   69MOL   H15130207   7.469   3.404   7.363 -0.3440  0.9642 -1.8777
   69MOL   H15230208   7.577   3.618   7.391  0.3052  0.9173 -0.0422
   69MOL   H15330209   7.428   3.650   7.306  3.1446  2.4020 -0.1621
   69MOL   H15430210   7.300   3.926   7.414 -0.7327  0.8310 -1.6306
   69MOL   H15530211   7.428   3.941   7.313 -2.2896 -1.6732 -0.3086
   69MOL   C15630212   7.400   4.121   7.446 -0.7048 -0.1058  0.1828
   69MOL   C15730213   7.348   4.149   7.588  0.1082  0.3815  0.7414
   69MOL   C15830214   7.360   4.304   7.626 -0.0517 -0.5170 -0.0922
   69MOL   C15930215   7.304   4.316   7.765 -0.2809 -0.4895 -0.2432
   69MOL   C16030216   7.156   4.265   0.011 -0.2343 -0.1834  0.6764
   69MOL   C16130217   7.149   4.116   7.751  0.0056 -0.1937  0.5856
   69MOL   C16230218   7.206   4.091   7.613 -0.2101 -0.4317  0.0424
   69MOL   C16330219   7.335   4.202   7.330  0.3680  0.0614 -0.1271
   69MOL   H16430220   7.508   4.137   7.446 -0.8033  0.8704 -2.5819
   69MOL   H16530221   7.419   4.100   7.655  0.7238  1.2841  0.7491
   69MOL   H16630222   7.465   4.331   7.621 -0.2008 -0.1927 -1.6014
   69MOL   H16730223   7.302   4.375   7.567 -1.4136 -0.4839  1.2466
   69MOL   H16830224   7.351   4.242   0.058 -0.6478  0.2439  0.8661
   69MOL   H16930225   7.313   4.419   0.028 -1.7361 -0.1938 -0.7118
   69MOL   H17030226   7.093   4.327   7.718  1.9342  0.7581 -0.5850
   69MOL   H17130227   7.127   4.274   0.115  0.7420  0.0059  0.9390
   69MOL   H17230228   7.043   4.093   7.758 -0.6772  1.9474 -1.8244
   69MOL   H17330229   7.206   4.052   0.046  0.7753 -0.5421 -0.3850
   69MOL   H17430230   7.190   3.988   7.581 -1.0252  0.0764 -1.2269
   69MOL   H17530231   7.141   4.144   7.544  0.9698  0.4494 -0.4189
   69MOL   H17630232   7.320   4.304   7.365 -1.4178 -0.2718  0.1333
   69MOL   H17730233   7.235   4.158   7.319 -0.2344  1.2751  0.4553
   69MOL   C17830234   7.420   4.191   7.200  0.0765 -0.1796  0.2045
   69MOL   C17930235   7.318   4.138   7.097 -0.3439  0.1587  0.0168
   69MOL   C18030236   7.380   4.094   6.964 -0.0913  0.3847  0.1611
   69MOL   C18130237   7.277   4.040   6.863  0.7178  0.7975  0.7443
   69MOL   C18230238   7.172   4.142   6.824  0.2820 -0.0074 -0.0458
   69MOL   C18330239   7.115   4.203   6.952  0.0973  0.0300 -0.4804
   69MOL   C18430240   7.222   4.247   7.059 -0.6892  0.1022  0.3098
   69MOL   C18530241   7.491   4.325   7.164  0.2853 -0.4193  0.8790
   69MOL   H18630242   7.501   4.119   7.216  1.7814  2.0103  1.8528
   69MOL   H18730243   7.271   4.048   7.137 -0.0153  0.0021  0.0536
   69MOL   H18830244   7.428   4.174   6.907 -0.6580 -0.2361 -1.1997
   69MOL   H18930245   7.455   4.016   6.978  1.4317  1.6645 -0.6619
   69MOL   H19030246   7.219   3.958   6.905 -2.5745  2.6867  0.0654
   69MOL   H19130247   7.323   3.998   6.774 -1.5841  0.6288 -0.4227
   69MOL   H19230248   7.226   4.224   6.776 -1.7433  0.5991 -1.3645
   69MOL   H19330249   7.094   4.110   6.755  0.2618 -0.3056  0.1183
   69MOL   H19430250   7.049   4.128   6.994 -1.6617  2.4002  1.1516
   69MOL   H19530251   7.057   4.291   6.922  0.9136  0.1926 -1.6146
   69MOL   H19630252   7.275   4.327   7.008 -0.3758 -0.4891 -0.2961
   69MOL   H19730253   7.178   4.303   7.142  0.7399  1.6775  0.0377
   69MOL   H19830254   7.509   4.329   7.057 -0.6247  0.6613  0.7560
   69MOL   H19930255   7.411   4.398   7.175  0.4099 -0.1274 -0.1847
   69MOL   C20030256   7.611   4.377   7.248  0.1952 -0.4096  0.3165
   69MOL   C20130257   7.741   4.290   7.237  0.4900  0.3261 -0.0416
   69MOL   C20230258   0.025   4.270   7.096 -0.2007  0.1651  0.0614
   69MOL   C20330259   0.156   4.184   7.091 -0.2156 -0.2531 -0.4234
   69MOL   C20430260   0.265   4.240   7.183  0.0177  0.6085 -0.2042
   69MOL   C20530261   0.215   4.257   7.332 -0.7618 -0.0114 -0.1854
   69MOL   C20630262   0.082   4.339   7.337 -0.2428 -0.7203  0.2106
   69MOL   C20730263   7.637   4.526   7.199  0.1160 -0.2499 -0.5051
   69MOL   H20830264   7.591   4.375   7.355 -0.6067 -0.1713  0.1811
   69MOL   H20930265   7.712   4.188   7.262  1.0175  0.3629  0.7171
   69MOL   H21030266   0.042   4.368   7.053  0.5046  0.5920  1.2917
   69MOL   H21130267   7.726   4.230   7.025 -1.8192  1.6649  0.8068
   69MOL   H21230268   0.126   4.082   7.117  0.6938 -0.3707  0.2001
   69MOL   H21330269   0.185   4.196   6.987  0.4535 -1.3880 -0.3755
   69MOL   H21430270   0.356   4.182   7.170 -0.5627 -0.3696 -0.0419
   69MOL   H21530271   0.283   4.339   7.143  1.7761  0.8993  1.2564
   69MOL   H21630272   0.203   4.162   7.385 -0.9892  0.4481  0.5866
   69MOL   H21730273   0.291   4.307   7.392  2.1614 -1.6860 -2.3637
   69MOL   H21830274   0.050   4.337   7.441  2.7914 -0.2411  1.2109
   69MOL   H21930275   0.104   4.442   7.310  0.8106 -0.9676  0.0847
   69MOL   H22030276   7.740   4.563   7.200 -0.2686  0.8391 -0.2968
   69MOL   H22130277   7.629   4.525   7.090 -1.5296  0.4332 -0.4067
   69MOL   C22230278   7.542   4.639   7.249 -0.2057 -0.2048 -0.2182
   69MOL   C22330279   7.586   4.688   7.391 -0.4142 -0.7110  0.2012
   69MOL   C22430280   7.721   4.750   7.405  0.2359 -0.2774 -0.0891
   69MOL   C22530281   7.748   4.819   7.539 -0.1217  0.0595  0.5265
   69MOL   C22630282   7.716   4.729   7.655  0.3331  0.1921 -0.5994
   69MOL   C22730283   7.585   4.652   7.644 -0.6398  0.6654 -0.4265
   69MOL   C22830284   7.575   4.583   7.509  0.7394  1.0548  0.1848
   69MOL   C22930285   7.542   4.768   7.161 -0.0828  0.7082 -0.2543
   69MOL   H23030286   7.443   4.594   7.254 -0.3993  0.2663  0.1629
   69MOL   H23130287   7.514   4.766   7.419 -0.9128 -1.5800  1.4050
   69MOL   H23230288   0.016   4.665   7.398  0.0553 -0.2367 -2.8566
   69MOL   H23330289   7.755   4.815   7.324  1.2862 -0.6858  0.0171
   69MOL   H23430290   7.693   4.912   7.559 -0.5903 -0.1432  0.2034
   69MOL   H23530291   0.079   4.853   7.545 -0.4765  0.9941  1.4590
   69MOL   H23630292   0.022   4.653   7.652  0.5225  0.3546  0.0831
   69MOL   H23730293   7.723   4.788   7.746  2.0388 -2.3868  0.9994
   69MOL   H23830294   7.502   4.722   7.657 -0.4418  0.4438  2.3392
   69MOL   H23930295   7.576   4.577   7.722 -0.5454 -0.3954 -1.4271
   69MOL   H24030296   7.658   4.513   7.495 -0.0229  0.1789  0.0062
   69MOL   H24130297   7.494   4.512   7.492  1.0885  0.9315 -1.0357
   69MOL   H24230298   7.633   4.782   7.104  1.4338 -0.8412  1.7008
   69MOL   H24330299   7.558   4.855   7.226  1.5226  1.0744 -1.1291
   69MOL   C24430300   7.415   4.792   7.082  0.4491  0.0327  0.2987
   69MOL   C24530301   7.410   4.724   6.939  0.0340 -0.1166  0.0038
   69MOL   C24630302   7.483   4.789   6.826  0.0071 -0.1193 -0.3741
   69MOL   C24730303   7.488   4.701   6.692 -0.8873 -0.7464 -0.5231
   69MOL   C24830304   7.348   4.644   6.656  0.4660 -0.6435  0.2877
   69MOL   C24930305   7.272   4.588   6.774  0.0191 -0.3341  0.1695
   69MOL   C25030306   7.265   4.698   6.886 -0.4225 -0.1447  0.7490
   69MOL   C25130307   7.385   4.947   7.084 -0.5929 -0.6342  0.3768
   69MOL   H25230308   7.331   4.749   7.137  1.0152 -1.2896  0.1656
   69MOL   H25330309   7.465   4.630   6.947  1.6534  0.9085  1.1465
   69MOL   H25430310   7.582   4.810   6.868 -0.1796  1.2369 -0.5940
   69MOL   H25530311   7.432   4.884   6.810  1.4226  0.4212 -1.7108
   69MOL   H25630312   7.534   4.757   6.611  2.7675  2.1068  3.2958
   69MOL   H25730313   7.552   4.614   6.703  0.1195  0.0820  0.3814
   69MOL   H25830314   7.290   4.719   6.601 -0.1854  0.4639  2.4271
   69MOL   H25930315   7.369   4.569   6.580  2.7495  0.6445 -0.3982
   69MOL   H26030316   7.312   4.494   6.812 -0.6530  0.2123  2.2811
   69MOL   H26130317   7.166   4.571   6.752 -0.9578  0.8259  3.6701
   69MOL   H26230318   7.218   4.790   6.852  1.8957  1.5426  1.9563
   69MOL   H26330319   7.209   4.670   6.975 -0.7877 -1.7267  0.0362
   69MOL   H26430320   7.300   4.973   7.021 -2.5232 -1.2751  2.6106
   69MOL   H26530321   7.465   5.014   7.053 -0.6043 -0.2913  1.0742
   69MOL   C26630322   7.325   5.004   7.215 -0.5369  0.0804  0.4262
   69MOL   C26730323   7.381   5.139   7.266 -0.1708  1.2769  0.2197
   69MOL   C26830324   7.373   5.258   7.166 -0.0285 -0.2416 -0.5505
   69MOL   C26930325   7.435   5.388   7.223 -0.7502  0.2293  0.5861
   69MOL   C27030326   7.575   5.378   7.281  0.2026  0.1068 -0.1505
   69MOL   C27130327   7.596   5.251   7.364  0.4761  0.7239 -0.0659
   69MOL   C27230328   7.537   5.124   7.297  1.0632 -0.3826 -0.2815
   69MOL   C27330329   7.170   4.999   7.224  0.0999 -0.2745 -0.3398
   69MOL   H27430330   7.354   4.933   7.292 -1.3893  1.6866  2.2738
   69MOL   H27530331   7.336   5.170   7.361  1.3044 -2.5694  2.2656
   69MOL   H27630332   7.433   5.243   7.077 -0.2622  1.4412 -1.0099
   69MOL   H27730333   7.268   5.273   7.140 -0.7832 -1.4346  1.6737
   69MOL   H27830334   7.368   5.432   7.296 -3.3235 -0.3456 -1.3367
   69MOL   H27930335   7.436   5.447   7.131 -3.5889  0.4330  0.6490
   69MOL   H28030336   7.649   5.377   7.200  2.3255  1.4217  1.7104
   69MOL   H28130337   7.595   5.457   7.354  0.5470  0.5608 -0.7276
   69MOL   H28230338   7.552   5.258   7.464  1.7027  0.3671  0.5071
   69MOL   H28330339   7.701   5.234   7.387  0.9615  1.3649 -1.7209
   69MOL   H28430340   7.544   5.043   7.370 -0.5028 -0.5824 -0.3195
   69MOL   H28530341   7.602   5.091   7.216  1.3705 -2.8986  0.9578
   69MOL   H28630342   7.140   4.921   7.154  2.6188 -0.2580 -1.4676
   69MOL   H28730343   7.132   5.085   7.169  0.0407 -1.1643 -1.7272
   69MOL   C28830344   7.112   4.990   7.372  0.2494 -0.2102  0.1016
   69MOL   C28930345   7.127   4.848   7.429 -0.0504 -0.4182  0.3965
   69MOL   C29030346   7.134   4.835   7.583  0.1329  0.7214 -0.0760
   69MOL   C29130347   7.170   4.692   7.626 -0.0544 -0.0809  1.0103
   69MOL   C29230348   7.062   4.598   7.573  0.0239 -0.5232  0.6007
   69MOL   C29330349   7.049   4.602   7.420 -0.0096 -0.2401  0.2498
   69MOL   C29430350   7.028   4.745   7.370  0.0044 -0.0667 -0.3600
   69MOL   C29530351   6.965   5.045   7.383 -0.5449  0.4915 -0.2841
   69MOL   H29630352   7.171   5.041   7.448 -1.7187  2.0071  0.1957
   69MOL   H29730353   7.227   4.812   7.402  0.3533  0.7331  0.3507
   69MOL   H29830354   7.204   4.906   7.628 -0.7457  2.2549 -1.0774
   69MOL   H29930355   7.036   4.864   7.621 -1.5515 -3.9594 -0.5572
   69MOL   H30030356   7.265   4.666   7.580  0.1664 -0.5252  1.7019
   69MOL   H30130357   7.184   4.689   7.734  0.0919  2.5822  1.0859
   69MOL   H30230358   6.961   4.620   7.607 -0.0555  0.2158 -0.0917
   69MOL   H30330359   7.083   4.495   7.605 -3.5780 -1.3064  0.6882
   69MOL   H30430360   6.958   4.549   7.393 -1.3759  0.3922  3.3717
   69MOL   H30530361   7.126   4.544   7.370 -1.7367 -1.0072 -1.5644
   69MOL   H30630362   6.930   4.784   7.395 -0.0892 -0.5932  0.0991
   69MOL   H30730363   7.043   4.762   7.263 -0.4240  0.6227 -0.3144
   69MOL   H30830364   6.925   5.007   7.289  1.1374  1.3343 -1.3899
   69MOL   H30930365   6.915   5.007   7.471 -0.9985  0.0924 -0.7132
   69MOL   C31030366   6.947   5.200   7.384  0.3505  0.3509 -0.2350
   69MOL   C31130367   6.810   5.236   7.331 -0.4787  0.4367 -0.0438
   69MOL   C31230368   6.796   5.207   7.180 -0.2721 -0.4690  0.1236
   69MOL   C31330369   6.669   5.267   7.125 -0.1285 -0.1458 -0.1024
   69MOL   C31430370   6.546   5.216   7.206 -0.4254  0.0500 -0.7688
   69MOL   C31530371   6.554   5.235   7.361 -0.2879 -0.4805  0.4705
   69MOL   C31630372   6.692   5.177   7.418 -0.0757 -0.3077  0.0601
   69MOL   C31730373   6.989   5.267   7.519 -0.3561  0.3804 -0.3787
   69MOL   H31830374   7.021   5.236   7.313  0.2889 -1.1259 -1.0582
   69MOL   H31930375   6.803   5.344   7.346 -0.9076  0.3237  0.5595
   69MOL   H32030376   6.887   5.246   7.135 -0.9788  0.1802 -0.7764
   69MOL   H32130377   6.802   5.099   7.167 -2.0299 -0.7279  1.2902
   69MOL   H32230378   6.669   5.238   7.020 -2.7861  2.5971 -0.9341
   69MOL   H32330379   6.665   5.375   7.127  1.2538 -0.0543 -1.7390
   69MOL   H32430380   6.455   5.252   7.159 -1.9790 -1.1160  1.2877
   69MOL   H32530381   6.534   5.110   7.186  0.7073 -0.1421 -0.4802
   69MOL   H32630382   6.538   5.342   7.375  0.1643 -0.2625 -0.6104
   69MOL   H32730383   6.470   5.189   7.415 -0.3958  0.6987  1.3119
   69MOL   H32830384   6.694   5.068   7.423  2.7311 -0.2691  1.2515
   69MOL   H32930385   6.698   5.203   7.523  0.2637 -0.3543  0.0537
   69MOL   H33030386   7.049   5.189   7.565 -2.3888 -1.6750 -1.0833
   69MOL   H33130387   6.906   5.283   7.588  0.6684  2.9510  0.3174
   69MOL   C33230388   7.072   5.396   7.519 -0.1862 -0.8441 -0.4101
   69MOL   C33330389   7.122   5.438   7.658 -0.0840 -0.0536  0.5521
   69MOL   C33430390   7.229   5.335   7.711 -0.0654 -0.4483  0.8894
   69MOL   C33530391   7.287   5.370   0.067 -0.3688  0.3220 -0.2532
   69MOL   C33630392   7.174   5.374   0.169 -0.4303 -0.1654  0.2296
   69MOL   C33730393   7.076   5.481   0.134 -0.3926 -0.2097 -0.2867
   69MOL   C33830394   7.012   5.458   7.767  0.0451 -0.3191 -0.3578
   69MOL   C33930395   6.991   5.506   7.442 -0.3367 -0.0349 -0.7329
   69MOL   H34030396   7.155   5.382   7.449 -0.0317  1.1426 -0.6264
   69MOL   H34130397   7.183   5.528   7.659  0.4731 -0.4010  3.5654
   69MOL   H34230398   7.191   5.233   7.711  0.8786 -0.8079  1.5562
   69MOL   H34330399   7.308   5.346   7.637  0.4458  0.3884  1.5451
   69MOL   H34430400   7.356   5.290   0.092  0.0438  0.4057 -1.1078
   69MOL   H34530401   7.346   5.462   0.068  0.6477 -0.3262 -0.0084
   69MOL   H34630402   7.121   5.280   0.184  0.2701 -0.2546  2.2489
   69MOL   H34730403   7.219   5.404   0.263  0.8720 -0.8099 -0.1693
   69MOL   H34830404   7.133   5.573   0.149  0.3799 -0.6045 -0.7860
   69MOL   H34930405   7.003   5.473   0.214 -0.4319 -3.4496 -0.5884
   69MOL   H35030406   6.942   5.539   7.747  0.4732  0.0087 -0.5274
   69MOL   H35130407   6.947   5.371   7.768  1.1197 -1.1290  0.8185
   69MOL   H35230408   6.890   5.498   7.483  0.8199  0.4034  2.3043
   69MOL   H35330409   6.987   5.490   7.334  0.9478  2.4717 -1.1860
   69MOL   C35430410   7.036   5.654   7.470  0.2903 -0.0140  0.3665
   69MOL   C35530411   6.915   5.744   7.446  0.1231  0.3093  0.3969
   69MOL   C35630412   6.806   5.730   7.550 -0.7488 -0.4822 -0.2770
   69MOL   C35730413   6.693   5.834   7.529  0.1247  0.8967  0.2019
   69MOL   C35830414   6.643   5.829   7.385 -0.6266  0.5441 -0.1373
   69MOL   C35930415   6.754   5.839   7.278 -0.6883 -0.1328 -0.7816
   69MOL   C36030416   6.852   5.735   7.309  0.9067 -0.2414  0.0813
   69MOL   C36130417   7.154   5.694   7.380  0.0271 -0.2913  0.9253
   69MOL   H36230418   7.059   5.661   7.576 -0.5717  0.1259  0.5479
   69MOL   H36330419   6.956   5.845   7.455 -0.7668  1.0365 -3.1005
   69MOL   H36430420   6.852   5.735   7.649 -0.5127  2.0718 -0.4769
   69MOL   H36530421   6.760   5.632   7.542 -0.4128 -0.7182  0.5373
   69MOL   H36630422   6.601   5.820   7.587  0.6713 -0.6072  0.7416
   69MOL   H36730423   6.729   5.933   7.555 -0.4532  1.2250 -0.2196
   69MOL   H36830424   6.592   5.735   7.364 -4.0993  2.3658 -0.2612
   69MOL   H36930425   6.559   5.895   7.361  0.8748  1.3161 -3.6186
   69MOL   H37030426   6.716   5.840   7.175 -0.4419 -1.5646 -0.9011
   69MOL   H37130427   6.789   5.942   7.283  0.0232 -0.3233 -1.6641
   69MOL   H37230428   6.931   5.737   7.233  2.4231 -0.8309  1.5972
   69MOL   H37330429   6.807   5.636   7.295  1.7783 -0.7956  1.0859
   69MOL   H37430430   7.125   5.666   7.279  0.3460 -0.1220  0.7883
   69MOL   H37530431   7.226   5.614   7.399 -0.1234 -1.0264 -1.4717
   69MOL   C37630432   7.219   5.835   7.389 -0.0497  0.6196 -0.5188
   69MOL   C37730433   7.252   5.890   7.530 -0.0529 -0.0748  0.7662
   69MOL   C37830434   7.257   6.045   7.534 -0.3151 -0.8059  0.1516
   69MOL   C37930435   7.292   6.090   7.673  0.2161  0.7362  0.3713
   69MOL   C38030436   7.418   6.031   7.729 -0.0855  0.2195 -0.4144
   69MOL   C38130437   7.409   5.879   7.730 -0.1354  0.2826  0.2265
   69MOL   C38230438   7.383   5.830   7.588  0.5480  0.5082 -0.0636
   69MOL   C38330439   7.333   5.850   7.284  0.5307  0.3383  0.6901
   69MOL   H38430440   7.145   5.901   7.344 -0.8504  1.2780  1.7088
   69MOL   H38530441   7.173   5.860   7.599 -0.4628  1.8153  1.1380
   69MOL   H38630442   7.329   6.087   7.464 -2.4344  0.6727 -1.2004
   69MOL   H38730443   7.161   6.086   7.503  1.2351  2.3557 -0.7515
   69MOL   H38830444   7.203   6.068   7.732  0.6858 -0.7093  0.5726
   69MOL   H38930445   7.307   6.198   7.668  2.7115  0.3178 -2.2126
   69MOL   H39030446   7.503   6.060   7.667  2.6873 -1.4245  2.4517
   69MOL   H39130447   7.454   6.073   0.051  0.5810  0.3604 -0.7278
   69MOL   H39230448   7.505   5.841   7.766 -0.1650 -1.0309 -1.0224
   69MOL   H39330449   7.335   5.839   0.027  0.7478  0.9943  1.5991
   69MOL   H39430450   7.466   5.859   7.524  0.1571 -1.5652 -1.5499
   69MOL   H39530451   7.377   5.722   7.585 -0.6188  0.5927 -1.0064
   69MOL   H39630452   7.386   5.758   7.257 -0.6934  0.3789 -1.9976
   69MOL   H39730453   7.420   5.906   7.320  0.1262  1.7903 -0.5611
   69MOL   C39830454   7.295   5.920   7.146 -0.1332  0.2151 -0.1397
   69MOL   C39930455   7.275   6.075   7.162 -0.2874  0.0654 -0.1967
   69MOL   C40030456   7.411   6.155   7.179  0.0267 -0.7123  0.1525
   69MOL   C40130457   7.383   6.304   7.190  0.3220  0.8309  0.0616
   69MOL   C40230458   7.301   6.357   7.073 -0.2768 -0.0333 -0.2392
   69MOL   C40330459   7.170   6.283   7.057 -0.2264  0.2255 -0.1760
   69MOL   C40430460   7.188   6.130   7.044 -0.3498 -0.5199 -1.3559
   69MOL   C40530461   7.400   5.892   7.029  0.6479  0.5326 -0.8893
   69MOL   H40630462   7.199   5.879   7.113  1.9134 -1.1380 -4.8658
   69MOL   H40730463   7.217   6.094   7.252  0.2199 -1.1749  0.3958
   69MOL   H40830464   7.470   6.146   7.088  1.9791 -0.0621  1.3325
   69MOL   H40930465   7.471   6.131   7.267  0.1247  1.9094  0.8379
   69MOL   H41030466   7.478   6.357   7.186  2.1836 -2.4346 -0.8694
   69MOL   H41130467   7.333   6.320   7.285 -1.7949 -1.8184 -0.5475
   69MOL   H41230468   7.356   6.356   6.980 -0.5247 -1.6578 -0.3820
   69MOL   H41330469   7.266   6.459   7.091  0.8451  0.7622 -2.4271
   69MOL   H41430470   7.116   6.308   7.148  0.2103 -0.2024  0.2052
   69MOL   H41530471   7.117   6.336   6.978  0.4838 -0.4290 -1.1016
   69MOL   H41630472   7.088   6.085   7.049 -0.4560 -0.0343  1.4242
   69MOL   H41730473   7.232   6.108   6.947  1.4817  1.4828 -1.0108
   69MOL   H41830474   7.402   5.971   6.955  0.3507 -0.7176 -2.2674
   69MOL   H41930475   7.500   5.909   7.069  0.9822 -0.5215 -1.2427
   69MOL   C42030476   7.417   5.746   6.976 -0.1007  0.3162  0.8804
   69MOL   C42130477   7.481   5.735   6.831  0.0606  0.0662  0.1082
   69MOL   C42230478   7.625   5.788   6.821 -0.3597 -0.5160  0.1647
   69MOL   C42330479   7.681   5.761   6.677  0.2003  0.1651  0.5303
   69MOL   C42430480   7.596   5.815   6.561  0.6501  0.8373 -0.8387
   69MOL   C42530481   7.448   5.789   6.575  0.1334  0.0722 -0.0385
   69MOL   C42630482   7.403   5.812   6.721 -0.0235  0.0308 -0.0799
   69MOL   C42730483   7.288   5.661   6.981 -0.6330 -0.2229 -0.7402
   69MOL   H42830484   7.485   5.696   7.046  1.2024 -0.5803 -0.9837
   69MOL   H42930485   7.490   5.632   6.798  1.3004  0.1705  0.1149
   69MOL   H43030486   7.620   5.895   6.841  0.2517 -0.6171  0.8635
   69MOL   H43130487   7.695   5.753   6.897 -0.2078 -0.6075 -0.0198
   69MOL   H43230488   0.010   5.796   6.654  0.0510 -0.3452 -0.9496
   69MOL   H43330489   7.697   5.654   6.666  1.5833  0.4044  0.0943
   69MOL   H43430490   7.633   5.771   6.468 -2.2346 -0.4537 -1.4095
   69MOL   H43530491   7.609   5.923   6.557 -0.5535  1.0013 -0.5077
   69MOL   H43630492   7.444   5.680   6.564 -0.1611  0.1347 -0.6176
   69MOL   H43730493   7.381   5.826   6.497 -1.3945 -1.7946  0.3283
   69MOL   H43830494   7.436   5.913   6.742  3.6766 -1.1172 -0.0582
   69MOL   H43930495   7.294   5.802   6.730  0.0733 -0.7363  0.2977
   69MOL   H44030496   7.200   5.724   6.970 -0.6010 -0.2985 -1.4155
   69MOL   H44130497   7.290   5.594   6.895 -0.4465 -0.0713 -0.8540
   69MOL   H44230498   7.276   5.617   7.080 -2.7740  2.5191  0.3004
   70MOL     C130499   6.128   4.264   3.957  0.4500 -0.4647 -0.3532
   70MOL     C230500   6.039   4.301   3.833 -0.6222 -0.0607 -0.3883
   70MOL     C330501   5.885   4.293   3.872 -0.0219 -0.1037 -0.0093
   70MOL     C430502   5.838   4.142   3.888  0.2242 -0.0260  0.1748
   70MOL     C530503   5.872   4.067   3.760  0.5645 -0.2959  0.4159
   70MOL     C630504   6.021   4.076   3.713  0.3569  0.1556 -0.6287
   70MOL     C730505   6.071   4.222   3.703  0.6561  0.8053 -0.2309
   70MOL     C830506   6.273   4.236   3.932 -0.1356 -0.0077 -0.1784
   70MOL     H930507   6.108   4.339   4.033  1.3853 -0.7200  0.1426
   70MOL    H1030508   6.073   4.402   3.809  2.6394 -1.1366 -0.5240
   70MOL    H1130509   5.851   4.337   3.966  0.1124 -0.3727  0.1660
   70MOL    H1230510   5.834   4.342   3.789 -1.2869 -0.7661  0.3550
   70MOL    H1330511   5.731   4.123   3.892  0.3063 -0.1676  1.9734
   70MOL    H1430512   5.883   4.109   3.982 -1.2560  1.2850  1.3677
   70MOL    H1530513   5.806   4.099   3.680  1.4534  2.7172  0.8397
   70MOL    H1630514   5.840   3.965   3.782  0.3983 -0.5593 -0.9639
   70MOL    H1730515   6.076   4.015   3.784 -1.0428 -2.8195 -1.9906
   70MOL    H1830516   6.046   4.033   3.616  2.6825 -2.7322  1.1666
   70MOL    H1930517   6.010   4.260   3.620 -0.8903  0.2201  0.6084
   70MOL    H2030518   6.174   4.229   3.670  1.0829  0.8087  1.0715
   70MOL    H2130519   6.309   4.306   3.857 -3.2048  0.6821 -1.0850
   70MOL    H2230520   6.279   4.148   3.868 -0.3550 -0.6329  0.6500
   70MOL    H2330521   6.086   4.177   4.007  0.5044  0.3571  1.1365
   70MOL    C2430522   6.364   4.217   4.058  0.1002 -0.2244  0.2395
   70MOL    C2530523   6.333   4.095   4.146 -0.0078 -0.0414  0.4403
   70MOL    C2630524   6.370   4.117   4.296 -0.3747 -0.4618  0.2038
   70MOL    C2730525   6.316   4.000   4.383  0.0954 -0.2393  0.7057
   70MOL    C2830526   6.368   3.866   4.342 -0.3848 -0.5063  0.1286
   70MOL    C2930527   6.342   3.843   4.199 -0.3037 -0.2709  0.2436
   70MOL    C3030528   6.393   3.963   4.106 -0.5203 -0.1347 -0.5358
   70MOL    C3130529   6.522   4.243   4.041  0.5669  0.1608  0.0444
   70MOL    H3230530   6.324   4.298   4.119 -0.3096 -0.2844  0.0568
   70MOL    H3330531   6.226   4.077   4.138 -0.2481  1.0184  1.2630
   70MOL    H3430532   6.314   4.202   4.334  0.8846 -1.0264  3.4411
   70MOL    H3530533   6.476   4.132   4.314 -0.4915 -0.0155  0.5171
   70MOL    H3630534   6.329   4.016   4.490  0.5514 -0.1892  0.6461
   70MOL    H3730535   6.208   4.002   4.369  0.1488 -1.8483 -0.0622
   70MOL    H3830536   6.333   3.786   4.408 -1.4276  0.5720  0.9015
   70MOL    H3930537   6.475   3.854   4.360 -0.6862 -0.1284  2.2126
   70MOL    H4030538   6.385   3.749   4.163 -1.8377 -1.2507  0.9381
   70MOL    H4130539   6.235   3.827   4.190 -0.7939 -0.3214  5.1157
   70MOL    H4230540   6.502   3.970   4.097 -0.6534  2.4293 -0.5105
   70MOL    H4330541   6.355   3.951   4.005  0.3409 -3.8729 -0.4622
   70MOL    H4430542   6.554   4.185   3.954 -0.6211  0.8322 -0.8627
   70MOL    H4530543   6.580   4.198   4.121 -1.7473 -0.3543  1.4889
   70MOL    C4630544   6.571   4.393   4.019 -0.6518 -0.6413  0.3888
   70MOL    C4730545   6.708   4.395   3.950  0.7459  0.5459 -0.2763
   70MOL    C4830546   6.714   4.375   3.792  1.2000 -0.4567 -0.5885
   70MOL    C4930547   6.849   4.403   3.731  0.4724  0.2051  0.0406
   70MOL    C5030548   6.945   4.308   3.798  0.5369  0.6312  0.0974
   70MOL    C5130549   6.957   4.325   3.952 -0.1866  0.3855 -0.2585
   70MOL    C5230550   6.822   4.313   4.017 -0.2588  0.3740 -0.2352
   70MOL    C5330551   6.571   4.474   4.155  0.3097 -0.0162  0.1339
   70MOL    H5430552   6.494   4.435   3.954  0.3952  0.8581  0.0980
   70MOL    H5530553   6.728   4.501   3.963 -1.8680  1.0664 -0.2192
   70MOL    H5630554   6.668   4.285   3.751 -1.1195  0.7902 -0.8430
   70MOL    H5730555   6.647   4.456   3.763  0.4950 -1.2137 -1.0862
   70MOL    H5830556   6.880   4.504   3.757 -1.5074 -0.0083  3.5997
   70MOL    H5930557   6.836   4.393   3.623  0.2482  1.0640 -0.0195
   70MOL    H6030558   6.912   4.206   3.778 -2.3158  1.5388  0.0047
   70MOL    H6130559   7.045   4.322   3.757  1.2511  1.5813  2.1131
   70MOL    H6230560   7.005   4.418   3.984  0.1319  0.4856 -1.0055
   70MOL    H6330561   7.027   4.252   3.992  0.8544  1.3107 -0.3633
   70MOL    H6430562   6.800   4.207   4.002 -0.0697  0.1578  0.9256
   70MOL    H6530563   6.835   4.326   4.125  0.3820 -2.7977  0.1362
   70MOL    H6630564   6.661   4.438   4.205 -1.4907 -4.0347  0.6898
   70MOL    H6730565   6.487   4.439   4.215 -0.4798 -1.8769 -1.9779
   70MOL    C6830566   6.571   4.630   4.137  0.6480 -0.3941  0.0712
   70MOL    C6930567   6.431   4.676   4.124 -0.0788 -0.0612 -0.7962
   70MOL    C7030568   6.335   4.653   4.251  0.0004 -1.2231 -0.3950
   70MOL    C7130569   6.191   4.676   4.211 -0.2515 -0.3612 -0.8141
   70MOL    C7230570   6.184   4.825   4.172  0.2840 -0.0206 -0.3746
   70MOL    C7330571   6.259   4.850   4.042  0.0379  0.0425 -0.7507
   70MOL    C7430572   6.407   4.818   4.061  0.1215 -0.8954  0.7227
   70MOL    C7530573   6.645   4.700   4.251 -0.5829  0.0911 -0.3504
   70MOL    H7630574   6.622   4.653   4.043 -1.3276  2.1964 -0.4164
   70MOL    H7730575   6.388   4.608   4.050 -1.7250  1.6197 -1.4567
   70MOL    H7830576   6.371   4.728   4.322  0.8969 -3.2494  1.3143
   70MOL    H7930577   6.356   4.558   4.299  1.8483 -1.0613 -0.8560
   70MOL    H8030578   6.153   4.619   4.126 -2.7365  2.6747 -1.8460
   70MOL    H8130579   6.130   4.659   4.300  0.7280 -2.8951 -0.5857
   70MOL    H8230580   6.226   4.894   4.245  0.8080 -0.4388 -0.2862
   70MOL    H8330581   6.086   4.869   4.150  0.8423  1.6673  0.4324
   70MOL    H8430582   6.245   4.956   4.024 -1.1811  0.4817  2.4401
   70MOL    H8530583   6.213   4.795   3.960  0.3535  0.5893 -1.3031
   70MOL    H8630584   6.452   4.900   4.116 -1.5913  0.5221  0.0617
   70MOL    H8730585   6.465   4.817   3.969 -0.4844 -2.3531  0.3473
   70MOL    H8830586   6.605   4.801   4.266 -2.5460 -0.1937 -3.2017
   70MOL    H8930587   6.618   4.649   4.344  2.6728  0.0205  0.5991
   70MOL    C9030588   6.796   4.701   4.240 -0.8148 -0.2419  0.7722
   70MOL    C9130589   6.852   4.825   4.158  0.3625 -0.1661  0.0901
   70MOL    C9230590   6.812   4.814   4.008  0.1111  0.0417 -0.2884
   70MOL    C9330591   6.884   4.925   3.937 -0.7924  0.0862 -0.0412
   70MOL    C9430592   6.837   5.065   3.988  0.0145  0.0417  0.7106
   70MOL    C9530593   6.878   5.079   4.138 -0.3017 -0.4089 -0.5579
   70MOL    C9630594   6.811   4.963   4.217 -0.2690  0.5408  0.6084
   70MOL    C9730595   6.853   4.702   4.386 -0.3181  0.7723  0.5974
   70MOL    H9830596   6.832   4.611   4.189 -1.7658  0.9505 -2.1546
   70MOL    H9930597   6.960   4.823   4.169  0.4513 -0.2552 -0.7309
   70MOL   H10030598   6.708   4.837   3.984 -0.1540 -0.8847 -0.0546
   70MOL   H10130599   6.841   4.716   3.970  2.6118  1.8028 -3.1684
   70MOL   H10230600   6.878   4.928   3.828 -1.4241 -2.0158 -0.0754
   70MOL   H10330601   6.992   4.917   3.944 -0.6011  2.7702  0.7666
   70MOL   H10430602   6.733   5.095   3.978  0.6835  1.7950 -1.3573
   70MOL   H10530603   6.884   5.143   3.928 -1.1724 -0.5287 -0.9883
   70MOL   H10630604   6.987   5.083   4.134 -0.2614 -1.9656 -1.6087
   70MOL   H10730605   6.838   5.174   4.171 -0.6801 -0.0384 -2.0353
   70MOL   H10830606   6.838   4.973   4.322 -1.2198  1.3087  0.7904
   70MOL   H10930607   6.702   4.971   4.216 -0.2238  1.0615 -0.4569
   70MOL   H11030608   6.813   4.792   4.433 -0.1949  0.8763  0.5012
   70MOL   H11130609   6.814   4.612   4.434 -0.1507  1.2629  1.6819
   70MOL   C11230610   7.008   4.691   4.418  0.1120 -0.0766  0.4165
   70MOL   C11330611   7.071   4.559   4.364  0.2502 -0.0806  0.2878
   70MOL   C11430612   7.038   4.432   4.449  0.1640 -0.3561  0.1181
   70MOL   C11530613   7.100   4.300   4.383 -0.3170  0.5915  0.4301
   70MOL   C11630614   7.244   4.308   4.338 -0.3519  0.4837 -0.5481
   70MOL   C11730615   7.278   4.433   4.263 -0.6335  0.1740  0.2008
   70MOL   C11830616   7.226   4.563   4.338  0.1991 -1.2854 -0.0491
   70MOL   C11930617   7.020   4.715   4.573  0.3779 -0.1002  0.3220
   70MOL   H12030618   7.062   4.771   4.369  1.4347 -1.9253 -1.2453
   70MOL   H12130619   7.038   4.558   4.260 -0.0625 -1.6359  0.3894
   70MOL   H12230620   6.935   4.416   4.480  0.9089 -0.8006  2.4599
   70MOL   H12330621   7.092   4.439   4.544 -1.0599  0.1658  0.7797
   70MOL   H12430622   7.092   4.225   4.461  1.2682  0.2269  0.2601
   70MOL   H12530623   7.038   4.252   4.307  1.2036 -0.4307 -0.2076
   70MOL   H12630624   7.308   4.294   4.425 -0.1194  0.8874 -0.6547
   70MOL   H12730625   7.274   4.223   4.278  0.2670  0.7563 -0.6195
   70MOL   H12830626   7.381   4.432   4.228 -0.7754 -3.3734 -0.2847
   70MOL   H12930627   7.220   4.427   4.170  0.0510  3.0057 -0.4682
   70MOL   H13030628   7.238   4.654   4.278 -2.2306 -0.9109 -0.0131
   70MOL   H13130629   7.278   4.581   4.432  1.9406 -1.4220 -0.9598
   70MOL   H13230630   7.124   4.689   4.593  0.6849  1.5080  0.9485
   70MOL   H13330631   6.966   4.634   4.623 -0.0877  0.7711  1.2692
   70MOL   C13430632   6.981   4.857   4.633  0.2716 -0.3072 -0.0221
   70MOL   C13530633   7.051   4.975   4.568 -0.0201 -0.2148 -0.8285
   70MOL   C13630634   7.206   4.994   4.591 -0.0582 -0.0932  0.2439
   70MOL   C13730635   7.264   5.100   4.497 -0.3171 -0.2074 -0.1259
   70MOL   C13830636   7.198   5.237   4.531  0.0797 -0.2838  0.0567
   70MOL   C13930637   7.043   5.222   4.516 -0.8507 -0.0265 -0.0813
   70MOL   C14030638   6.994   5.111   4.607  0.6334 -0.2133 -0.2525
   70MOL   C14130639   6.988   4.854   4.785 -0.3351  0.1288  0.3393
   70MOL   H14230640   6.875   4.864   4.611  0.4359  1.3101 -0.4025
   70MOL   H14330641   7.045   4.969   4.459 -1.7647 -1.1707 -0.7016
   70MOL   H14430642   7.228   5.020   4.695 -2.1101  1.6350  0.2913
   70MOL   H14530643   7.253   4.897   4.575  0.8793  0.4777 -0.4918
   70MOL   H14630644   7.227   5.093   4.395 -1.8683 -0.4161  0.4433
   70MOL   H14730645   7.373   5.103   4.491 -0.1477 -0.7476  2.1477
   70MOL   H14830646   7.214   5.273   4.633 -3.8466 -0.2493  0.7431
   70MOL   H14930647   7.226   5.311   4.456 -1.2014 -0.8066 -0.9825
   70MOL   H15030648   7.022   5.193   4.413  0.5466 -0.1305 -0.3484
   70MOL   H15130649   6.995   5.316   4.542 -1.0888  0.4379 -2.1328
   70MOL   H15230650   7.011   5.135   4.712 -0.4340 -1.3141  0.1895
   70MOL   H15330651   6.887   5.097   4.594  0.4877 -0.4648  1.1826
   70MOL   H15430652   7.087   4.891   4.812 -0.8620  2.1425 -0.4237
   70MOL   H15530653   6.973   4.752   4.821  1.8601  0.5643  2.6585
   70MOL   C15630654   6.870   4.920   4.856  0.0339 -0.1204  0.2524
   70MOL   C15730655   6.906   4.923   5.011 -0.6401 -0.3789 -0.5335
   70MOL   C15830656   6.950   4.779   5.059 -0.6230  0.1012  0.6189
   70MOL   C15930657   6.954   4.777   5.214 -1.0176  0.2506  0.5666
   70MOL   C16030658   7.041   4.887   5.270  0.1785  0.8176 -0.5315
   70MOL   C16130659   7.013   5.026   5.213  0.2355  0.0361 -0.0000
   70MOL   C16230660   7.008   5.031   5.059 -0.3916  0.1110 -0.3394
   70MOL   C16330661   6.735   4.844   4.840 -0.0061 -0.5860  0.1163
   70MOL   H16430662   6.868   5.022   4.819 -0.0281 -0.2443 -0.0903
   70MOL   H16530663   6.814   4.946   5.064  0.4100  1.4270  0.5610
   70MOL   H16630664   6.893   4.690   5.032  1.4717 -1.2431  0.5318
   70MOL   H16730665   7.051   4.763   5.020 -0.1054  3.1936  0.6351
   70MOL   H16830666   6.852   4.796   5.248 -0.1428  2.9625  1.8034
   70MOL   H16930667   6.975   4.680   5.258 -0.4927  0.7409  1.4014
   70MOL   H17030668   7.141   4.872   5.231 -0.6744 -1.5116 -1.9131
   70MOL   H17130669   7.050   4.878   5.379  0.2901 -0.3180 -0.6316
   70MOL   H17230670   7.104   5.075   5.247  1.5794  0.2282 -3.6217
   70MOL   H17330671   6.927   5.072   5.260  0.1646  0.1089 -0.2041
   70MOL   H17430672   6.982   5.133   5.030 -0.2671  1.1768  3.1281
   70MOL   H17530673   7.114   5.027   5.033  0.1458 -0.3767  1.8123
   70MOL   H17630674   6.733   4.752   4.898 -2.8811 -0.7619 -0.2199
   70MOL   H17730675   6.717   4.805   4.740 -3.2576 -0.9420  0.7835
   70MOL   C17830676   6.610   4.934   4.876 -0.5724  0.1072 -0.7520
   70MOL   C17930677   6.519   4.969   4.756  0.5723 -0.7345  0.9305
   70MOL   C18030678   6.437   4.854   4.686 -0.6442  0.1043 -0.3177
   70MOL   C18130679   6.344   4.911   4.573  0.2154 -0.1121  0.0762
   70MOL   C18230680   6.411   5.000   4.472 -0.3934  0.6244 -0.4527
   70MOL   C18330681   6.501   5.101   4.537 -0.0355  0.2256  0.1555
   70MOL   C18430682   6.594   5.041   4.643 -0.3595 -0.1243 -0.4991
   70MOL   C18530683   6.543   4.883   5.004 -0.7864  0.1328  0.8633
   70MOL   H18630684   6.654   5.031   4.894  0.4108 -0.1059 -1.9832
   70MOL   H18730685   6.437   5.032   4.792 -0.3810 -1.2156 -0.3425
   70MOL   H18830686   6.499   4.780   4.635 -4.2984 -3.1499 -0.1673
   70MOL   H18930687   6.378   4.790   4.751 -0.7356  0.5404  0.0319
   70MOL   H19030688   6.262   4.969   4.615  1.1545  1.2298  0.0700
   70MOL   H19130689   6.291   4.826   4.529  2.3032 -0.7704 -1.2219
   70MOL   H19230690   6.467   4.933   4.408  0.4087 -0.6887  1.5734
   70MOL   H19330691   6.337   5.043   4.404 -0.1946  1.9707  0.1527
   70MOL   H19430692   6.442   5.174   4.593 -1.1735 -0.0069 -0.7298
   70MOL   H19530693   6.563   5.134   4.454 -0.6843 -1.7035 -1.1440
   70MOL   H19630694   6.660   4.966   4.599 -1.0051 -1.4967  0.8286
   70MOL   H19730695   6.667   5.114   4.675 -1.8606  0.4430  1.7300
   70MOL   H19830696   6.489   4.791   4.981  1.7337 -0.9338 -0.9996
   70MOL   H19930697   6.620   4.862   5.079  0.2792 -0.0851 -0.2753
   70MOL   C20030698   6.442   4.984   5.068  0.1774 -0.5396 -0.5882
   70MOL   C20130699   6.333   4.914   5.150  0.2297 -0.3076 -0.0685
   70MOL   C20230700   6.227   4.830   5.068 -0.0129 -0.0925 -0.4410
   70MOL   C20330701   6.123   4.758   5.151 -0.4307  0.2167  0.3805
   70MOL   C20430702   6.187   4.667   5.257 -0.5291 -0.0495 -0.4996
   70MOL   C20530703   6.297   4.747   5.342  0.3478 -0.0204 -0.4087
   70MOL   C20630704   6.400   4.819   5.254 -0.0300  0.0758  0.1727
   70MOL   C20730705   6.517   5.088   5.156 -0.6367 -0.0338 -0.6248
   70MOL   H20830706   6.389   5.049   4.999 -2.0981  0.3889  1.9720
   70MOL   H20930707   6.284   4.990   5.212  2.2791 -0.4120  1.7397
   70MOL   H21030708   6.271   4.751   5.007 -1.3954 -1.8282  0.7469
   70MOL   H21130709   6.170   4.892   4.998  0.2541  1.6553  0.8733
   70MOL   H21230710   6.053   4.828   5.198 -1.4650 -0.6218  0.0943
   70MOL   H21330711   6.062   4.707   5.077 -0.2718  1.5979 -0.7420
   70MOL   H21430712   6.120   4.622   5.330  2.3895 -1.4984  1.3291
   70MOL   H21530713   6.240   4.583   5.212  0.2470 -0.1151  0.5331
   70MOL   H21630714   6.256   4.818   5.413  0.3649  0.3022 -0.7201
   70MOL   H21730715   6.353   4.675   5.402  1.2451  1.0250  0.0173
   70MOL   H21830716   6.470   4.884   5.306  0.4172  0.2913 -0.6912
   70MOL   H21930717   6.465   4.748   5.202 -0.6935  1.2156 -2.3204
   70MOL   H22030718   6.505   5.073   5.264  0.3008 -2.7211 -0.8594
   70MOL   H22130719   6.625   5.079   5.143 -0.6955 -0.3156 -0.9024
   70MOL   C22230720   6.476   5.238   5.148 -0.5531  0.2817  0.4058
   70MOL   C22330721   6.542   5.326   5.257 -0.7569 -0.8274  0.0955
   70MOL   C22430722   6.696   5.345   5.256  0.1030 -0.7803  0.0481
   70MOL   C22530723   6.740   5.459   5.351  0.4844 -0.9792 -0.2921
   70MOL   C22630724   6.680   5.432   5.487  0.0173  0.8044 -0.6688
   70MOL   C22730725   6.531   5.406   5.486 -0.4975 -0.3201  0.0531
   70MOL   C22830726   6.499   5.287   5.400  0.0534  0.5585 -0.4497
   70MOL   C22930727   6.516   5.292   5.007 -0.3242 -0.6901  1.7167
   70MOL   H23030728   6.368   5.230   5.154 -0.4443 -2.1853 -0.5284
   70MOL   H23130729   6.506   5.428   5.242  3.7877  0.8168 -0.5196
   70MOL   H23230730   6.752   5.252   5.264 -0.8712 -1.1915  2.6733
   70MOL   H23330731   6.725   5.381   5.158 -1.6382 -0.4558 -0.3765
   70MOL   H23430732   6.724   5.563   5.322 -0.8056 -1.6364 -2.0203
   70MOL   H23530733   6.849   5.447   5.354  0.3427 -2.9792 -1.9669
   70MOL   H23630734   6.726   5.347   5.537 -1.0158  1.5816  1.6838
   70MOL   H23730735   6.701   5.521   5.546 -0.4014 -0.1485  0.9526
   70MOL   H23830736   6.469   5.490   5.452 -2.2941 -2.1988 -1.4247
   70MOL   H23930737   6.490   5.391   5.586 -0.9067 -4.8645 -0.6932
   70MOL   H24030738   6.554   5.203   5.443 -0.8323  0.1086 -0.1900
   70MOL   H24130739   6.391   5.283   5.418  0.0121  0.2645 -0.7530
   70MOL   H24230740   6.486   5.233   4.920  0.9998  1.3137 -0.1212
   70MOL   H24330741   6.623   5.274   5.015 -0.4226 -0.8801  2.7206
   70MOL   C24430742   6.488   5.447   4.979 -0.2191  1.0721 -0.1471
   70MOL   C24530743   6.345   5.502   5.006  0.4371  0.7018 -0.2018
   70MOL   C24630744   6.309   5.529   5.147 -0.5201 -0.4145  0.3894
   70MOL   C24730745   6.179   5.606   5.153 -0.3986  0.1229  0.7554
   70MOL   C24830746   6.060   5.526   5.097  0.0094  0.3300 -0.0492
   70MOL   C24930747   6.090   5.478   4.955 -0.7512  0.4539  0.6480
   70MOL   C25030748   6.227   5.420   4.944  0.8309 -0.6026  0.0845
   70MOL   C25130749   6.535   5.478   4.839 -0.2548  0.0670 -0.1191
   70MOL   H25230750   6.549   5.512   5.041 -2.2817  1.1672  1.8661
   70MOL   H25330751   6.343   5.602   4.962  2.4260  0.0283 -1.9011
   70MOL   H25430752   6.381   5.589   5.203 -2.2505  1.3715  0.7813
   70MOL   H25530753   6.300   5.445   5.216  0.7981 -0.4445  0.5473
   70MOL   H25630754   6.147   5.634   5.253 -2.6133  0.5776 -0.0512
   70MOL   H25730755   6.181   5.700   5.096 -0.8150  0.4910  1.3441
   70MOL   H25830756   6.032   5.451   5.170 -2.6829  0.7224 -0.6442
   70MOL   H25930757   5.974   5.592   5.094 -0.6938 -0.6159 -1.9120
   70MOL   H26030758   6.078   5.554   4.878  3.9833 -1.0065 -1.7899
   70MOL   H26130759   6.010   5.414   4.918  1.2668 -0.9802 -1.3994
   70MOL   H26230760   6.230   5.317   4.980 -2.9017 -0.7851  0.0909
   70MOL   H26330761   6.254   5.414   4.838 -0.0637  1.5709 -0.3025
   70MOL   H26430762   6.461   5.439   4.769 -0.4900  1.7606 -0.8450
   70MOL   H26530763   6.621   5.414   4.821  0.0362 -0.2205  2.1324
   70MOL   C26630764   6.564   5.632   4.806  0.6146  0.0112  0.2185
   70MOL   C26730765   6.708   5.683   4.838 -0.3055 -0.4223  0.2102
   70MOL   C26830766   6.814   5.614   4.755  0.0159 -0.1471  1.1303
   70MOL   C26930767   6.955   5.664   4.770 -0.1527 -0.5070 -0.1166
   70MOL   C27030768   6.998   5.657   4.920 -0.1857  0.3766 -0.0334
   70MOL   C27130769   6.888   5.728   5.013  0.2944 -0.2842 -0.0785
   70MOL   C27230770   6.751   5.662   4.985 -0.9122  0.2319  0.2299
   70MOL   C27330771   6.531   5.667   4.660 -0.2821  0.0007  0.3848
   70MOL   H27430772   6.504   5.699   4.867 -0.0089 -0.6884  0.3795
   70MOL   H27530773   6.707   5.790   4.814 -2.1560 -0.3216  0.6218
   70MOL   H27630774   6.812   5.510   4.788 -0.3695 -0.2847  0.6880
   70MOL   H27730775   6.792   5.628   4.649  1.0564 -0.1196  0.9093
   70MOL   H27830776   6.963   5.771   4.751  1.7371 -0.8532 -1.3781
   70MOL   H27930777   7.025   5.601   4.716  1.2160 -1.0201  2.2126
   70MOL   H28030778   6.990   5.553   4.950 -0.3286 -0.1560 -1.8547
   70MOL   H28130779   7.100   5.691   4.939  0.3797  1.1041 -3.9727
   70MOL   H28230780   6.876   5.830   4.977  3.4525  0.7415  1.5948
   70MOL   H28330781   6.904   5.733   5.121 -3.1398 -1.2588  0.5184
   70MOL   H28430782   6.681   5.721   5.043 -1.0073  0.3305  0.0168
   70MOL   H28530783   6.756   5.557   5.014 -1.5639  0.0076 -0.4477
   70MOL   H28630784   6.540   5.577   4.600  0.7356  0.6879 -0.5027
   70MOL   H28730785   6.598   5.741   4.616 -1.8687  1.0469 -0.3213
   70MOL   C28830786   6.389   5.725   4.646  0.0003 -0.2905 -0.1610
   70MOL   C28930787   6.317   5.668   4.511  0.6245 -0.6967 -0.0103
   70MOL   C29030788   6.402   5.699   4.391 -0.4169  0.5206 -0.2506
   70MOL   C29130789   6.328   5.666   4.263 -0.0462 -0.1054  0.0806
   70MOL   C29230790   6.295   5.522   4.260 -0.7359  0.7347  0.9465
   70MOL   C29330791   6.216   5.473   4.386 -0.3039 -0.8410 -0.4681
   70MOL   C29430792   6.293   5.515   4.516  0.4210  0.4588 -0.1019
   70MOL   C29530793   6.379   5.878   4.673 -0.4735 -0.0544 -0.2019
   70MOL   H29630794   6.331   5.674   4.723 -0.2289  1.9649  1.2133
   70MOL   H29730795   6.222   5.719   4.500  1.1778  1.0897  2.8260
   70MOL   H29830796   6.433   5.803   4.393  3.3968 -0.5268 -0.5216
   70MOL   H29930797   6.497   5.644   4.388 -0.0847  0.9465  2.0574
   70MOL   H30030798   6.232   5.717   4.261  0.3759  0.6534 -2.2343
   70MOL   H30130799   6.390   5.697   4.179  1.6122 -1.1688  0.8768
   70MOL   H30230800   6.385   5.461   4.253 -0.5502  1.2978 -2.2281
   70MOL   H30330801   6.244   5.508   4.165  1.5931  0.1069 -0.2412
   70MOL   H30430802   6.205   5.364   4.385 -2.0880 -0.6706 -2.0685
   70MOL   H30530803   6.114   5.510   4.398  0.1399  0.6202 -1.1381
   70MOL   H30630804   6.385   5.457   4.515 -0.4627 -0.9993  0.5216
   70MOL   H30730805   6.232   5.497   4.605 -0.3525 -0.2347 -0.7588
   70MOL   H30830806   6.446   5.882   4.760  0.9687 -1.1995 -1.2353
   70MOL   H30930807   6.434   5.934   4.597 -1.5392 -0.4736 -1.2864
   70MOL   C31030808   6.239   5.933   4.713  0.1068  0.1257 -0.1529
   70MOL   C31130809   6.238   6.036   4.831  0.4880 -0.1110  0.0153
   70MOL   C31230810   6.247   5.980   4.971 -0.7869  0.8672  0.3691
   70MOL   C31330811   6.265   6.088   5.090  0.2997 -0.4813  0.7260
   70MOL   C31430812   6.378   6.184   5.060  0.2194 -0.1104 -0.2718
   70MOL   C31530813   6.356   6.247   4.922 -0.4446 -0.0185  0.2299
   70MOL   C31630814   6.349   6.147   4.806 -0.5112 -0.6526 -0.1861
   70MOL   C31730815   6.164   5.977   4.586 -0.7158  0.1550  0.0180
   70MOL   H31830816   6.177   5.851   4.750 -0.5356  0.6983  0.0556
   70MOL   H31930817   6.141   6.086   4.833  0.6438  0.1508  1.5053
   70MOL   H32030818   6.157   5.923   4.993 -0.8545  0.7182 -0.3031
   70MOL   H32130819   6.332   5.913   4.983 -1.1506  0.5534  1.2166
   70MOL   H32230820   6.290   6.029   5.178  1.9481 -0.0678  0.5445
   70MOL   H32330821   6.176   6.149   5.104 -0.3882 -1.4217  0.5365
   70MOL   H32430822   6.376   6.258   5.140 -0.3444 -1.0561  0.6004
   70MOL   H32530823   6.478   6.142   5.053 -0.3543 -1.4267 -0.9193
   70MOL   H32630824   6.266   6.307   4.934 -1.2375 -0.6755 -2.1396
   70MOL   H32730825   6.442   6.309   4.894  0.8287 -2.2135 -0.8821
   70MOL   H32830826   6.451   6.107   4.807  0.1953  1.1186  0.8932
   70MOL   H32930827   6.322   6.197   4.713 -2.5284 -0.5536  0.4496
   70MOL   H33030828   6.224   5.946   4.501  2.4133  0.6640  1.9333
   70MOL   H33130829   6.163   6.086   4.583 -0.1279  0.1788  0.6325
   70MOL   C33230830   6.023   5.920   4.582  0.0528 -0.3946 -0.8101
   70MOL   C33330831   5.943   5.945   4.449 -0.3649  0.1137  0.1063
   70MOL   C33430832   6.013   5.880   4.329  0.4021  0.4011  0.9176
   70MOL   C33530833   5.925   5.882   4.201 -0.4038 -1.0017 -0.0772
   70MOL   C33630834   5.881   6.029   4.169  0.4614 -0.1590  0.2256
   70MOL   C33730835   5.829   6.107   4.292  0.1037  0.3382  0.4857
   70MOL   C33830836   5.921   6.092   4.413  0.1318 -0.4995 -0.1793
   70MOL   C33930837   5.937   5.941   4.715  1.0873  0.8786 -0.4722
   70MOL   H34030838   6.038   5.812   4.591 -0.6375 -0.5957 -1.8735
   70MOL   H34130839   5.842   5.903   4.452 -0.6823  0.8826  0.1438
   70MOL   H34230840   6.111   5.920   4.302  1.0794 -1.5368  0.3801
   70MOL   H34330841   6.030   5.774   4.353  2.5217  0.0936 -1.6351
   70MOL   H34430842   5.976   5.829   4.121  1.2004  1.2084 -0.5392
   70MOL   H34530843   5.831   5.827   4.214 -1.9107  1.0613 -1.8772
   70MOL   H34630844   5.961   6.093   4.131 -0.0540  1.0192  1.1031
   70MOL   H34730845   5.803   6.030   4.093  0.0520  2.4981  0.6255
   70MOL   H34830846   5.728   6.080   4.322  1.0961  0.0089  3.6676
   70MOL   H34930847   5.821   6.210   4.257 -1.3736  0.1341  0.2094
   70MOL   H35030848   5.887   6.149   4.499 -1.0262 -2.0098  0.3962
   70MOL   H35130849   6.013   6.140   4.380 -0.6079  0.9625 -0.1302
   70MOL   H35230850   5.911   6.046   4.723  0.8575  0.8612 -0.9507
   70MOL   H35330851   6.001   5.918   4.800 -1.7987  0.4740  1.7050
   70MOL   C35430852   5.795   5.891   4.719  0.0667  0.1524 -0.7370
   70MOL   C35530853   5.721   5.910   4.862 -0.1813  0.6670 -0.7988
   70MOL   C35630854   5.716   6.049   4.919  0.4457  0.1357 -0.0674
   70MOL   C35730855   5.633   6.060   5.049 -0.3390  0.4825  0.5854
   70MOL   C35830856   5.674   5.954   5.153 -0.0381 -0.0796  0.6904
   70MOL   C35930857   5.691   5.815   5.083  0.6423  0.4185  0.0902
   70MOL   C36030858   5.785   5.812   4.963 -0.5455 -0.1738 -0.1878
   70MOL   C36130859   5.791   5.738   4.681 -0.1715 -0.7872  0.1370
   70MOL   H36230860   5.736   5.944   4.644 -2.0194 -0.8159  0.1588
   70MOL   H36330861   5.616   5.884   4.852  0.4667 -2.7457  0.5918
   70MOL   H36430862   5.669   6.126   4.858  0.3201  1.3115  1.5014
   70MOL   H36530863   5.819   6.079   4.936  0.6980  0.0994 -1.4843
   70MOL   H36630864   5.643   6.157   5.097  1.1011  0.2407  0.7810
   70MOL   H36730865   5.528   6.053   5.019 -0.1832  2.2672 -0.4313
   70MOL   H36830866   5.776   5.975   5.185  0.9867  0.2218 -2.5365
   70MOL   H36930867   5.605   5.954   5.237 -2.2592 -0.9488 -1.0932
   70MOL   H37030868   5.715   5.733   5.149  2.0038  1.5153  0.9808
   70MOL   H37130869   5.591   5.781   5.056  0.5243  1.5757 -1.0347
   70MOL   H37230870   5.790   5.706   4.937  2.8711  0.5021 -2.6121
   70MOL   H37330871   5.887   5.838   4.989 -1.1345  0.8398  1.1671
   70MOL   H37430872   5.849   5.679   4.752 -0.7101 -4.6008 -2.4171
   70MOL   H37530873   5.860   5.723   4.597  1.4375  0.0507  1.2874
   70MOL   C37630874   5.651   5.668   4.652 -0.4552 -0.1085  0.1919
   70MOL   C37730875   5.572   5.726   4.528 -0.6571  0.5447 -0.1452
   70MOL   C37830876   5.420   5.698   4.518 -0.2179 -1.0607  0.1287
   70MOL   C37930877   5.357   5.786   4.413  0.3732 -0.5317 -0.6611
   70MOL   C38030878   5.420   5.745   4.281 -0.0650  0.5518  0.1742
   70MOL   C38130879   5.580   5.749   4.277 -0.0191 -0.2698  0.8726
   70MOL   C38230880   5.644   5.678   4.398  0.0316  0.0510 -0.5352
   70MOL   C38330881   5.676   5.513   4.637 -0.0145  0.0461 -0.3877
   70MOL   H38430882   5.579   5.683   4.732 -0.4499 -2.7494  0.7421
   70MOL   H38530883   5.581   5.834   4.530 -0.2171  0.5526 -1.7977
   70MOL   H38630884   5.395   5.593   4.504  0.3365 -0.8402 -2.9741
   70MOL   H38730885   5.368   5.730   4.608  0.6500 -1.7150  0.8739
   70MOL   H38830886   5.356   5.894   4.430  0.7189 -0.8478  1.5074
   70MOL   H38930887   5.252   5.758   4.405  0.0616  0.1531  0.7661
   70MOL   H39030888   5.403   5.642   4.252  0.6108  0.9254 -1.6179
   70MOL   H39130889   5.372   5.807   4.205  0.9883  0.4631 -0.5809
   70MOL   H39230890   5.628   5.714   4.185 -1.4564  1.3976 -0.5597
   70MOL   H39330891   5.596   5.856   4.266  1.0455 -0.5627 -0.7517
   70MOL   H39430892   5.626   5.571   4.388  0.9899 -0.2042  0.4157
   70MOL   H39530893   5.748   5.708   4.409  0.5112 -0.1240 -3.9698
   70MOL   H39630894   5.750   5.507   4.557 -0.5297  1.0950 -0.9439
   70MOL   H39730895   5.589   5.468   4.590 -2.8710  2.0989  2.7344
   70MOL   C39830896   5.720   5.435   4.768 -0.0506  0.1338  1.0188
   70MOL   C39930897   5.624   5.463   4.885 -0.4467 -0.6724  0.8977
   70MOL   C40030898   5.475   5.424   4.851 -0.4914  0.0247  0.6147
   70MOL   C40130899   5.378   5.457   4.965  0.1533  0.5655  1.0320
   70MOL   C40230900   5.423   5.382   5.092 -0.0750 -0.2779  0.7572
   70MOL   C40330901   5.560   5.433   5.135  0.1104  0.2308 -0.5004
   70MOL   C40430902   5.663   5.397   5.023 -0.7463 -0.0606 -0.3578
   70MOL   C40530903   5.779   5.290   4.747 -0.3726  0.4024  0.0729
   70MOL   H40630904   5.810   5.491   4.792  0.0870  0.4479 -0.2057
   70MOL   H40730905   5.632   5.568   4.911  2.5299 -0.4055 -0.8556
   70MOL   H40830906   5.472   5.317   4.830  0.0538  0.0444  0.4424
   70MOL   H40930907   5.451   5.466   4.754  0.2101  0.7170  0.7407
   70MOL   H41030908   5.274   5.427   4.952  0.4986 -0.6676  0.9861
   70MOL   H41130909   5.386   5.565   4.979 -0.4130  0.6099  1.0171
   70MOL   H41230910   5.438   5.276   5.072 -0.4455 -0.4957  1.6067
   70MOL   H41330911   5.351   5.394   5.173  0.4468  1.8455  0.9520
   70MOL   H41430912   5.562   5.542   5.136  0.3491  0.2255  0.7263
   70MOL   H41530913   5.582   5.395   5.235  0.3558 -0.4974 -0.8282
   70MOL   H41630914   5.757   5.437   5.061 -1.5592  0.2707  1.3441
   70MOL   H41730915   5.674   5.289   5.014 -0.1446  0.0532 -1.1207
   70MOL   H41830916   5.817   5.239   4.836  0.2582  0.0179 -0.4160
   70MOL   H41930917   5.701   5.220   4.716  0.3684  0.4670 -1.9701
   70MOL   C42030918   5.889   5.286   4.635  0.3018  0.6644 -0.7073
   70MOL   C42130919   5.834   5.254   4.489  0.4665  0.5972 -0.0980
   70MOL   C42230920   5.800   5.105   4.479  0.8806  0.5803 -0.7947
   70MOL   C42330921   5.754   5.059   4.335  0.5899 -0.8839 -0.0287
   70MOL   C42430922   5.860   5.103   4.230  0.4599 -0.4025  0.4019
   70MOL   C42530923   5.879   5.252   4.239 -0.2462 -0.2520 -0.2820
   70MOL   C42630924   5.934   5.289   4.372  0.0512 -0.3235  0.4326
   70MOL   C42730925   6.020   5.207   4.685  0.6123 -0.3919 -0.1678
   70MOL   H42830926   5.931   5.387   4.629  1.6054  0.5266  4.2339
   70MOL   H42930927   5.741   5.310   4.478  0.5397  0.5479 -0.9901
   70MOL   H43030928   5.887   5.048   4.509 -0.0033 -0.7334 -0.6660
   70MOL   H43130929   5.714   5.074   4.539 -0.2716  1.4785 -1.9394
   70MOL   H43230930   5.723   4.956   4.323 -2.5844 -0.1164  0.9181
   70MOL   H43330931   5.666   5.120   4.314  0.9347 -0.4486 -0.2340
   70MOL   H43430932   5.811   5.073   4.137  0.8051 -1.6249  0.6080
   70MOL   H43530933   5.947   5.037   4.236  0.2802 -0.8772 -1.8251
   70MOL   H43630934   5.793   5.315   4.218  0.4325  0.2990 -1.5091
   70MOL   H43730935   5.949   5.279   4.160  0.6220 -1.8121 -0.0541
   70MOL   H43830936   6.030   5.243   4.397  1.0027  1.1150 -0.4909
   70MOL   H43930937   5.950   5.397   4.376  2.6244 -0.6587 -0.2116
   70MOL   H44030938   6.116   5.229   4.637  1.2235 -0.9747  0.7802
   70MOL   H44130939   6.046   5.226   4.789  0.1286  2.2861 -0.5085
   70MOL   H44230940   5.997   5.100   4.691  0.0920 -0.2233  0.9065
   71MOL     C130941   3.565   2.860   4.973  0.4172  0.0970 -0.3813
   71MOL     C230942   3.578   3.011   4.985 -0.3213  0.7392  0.2681
   71MOL     C330943   3.437   3.079   5.000  0.0982 -1.4334 -0.0727
   71MOL     C430944   3.443   3.231   5.004  0.7845  0.2398  0.2873
   71MOL     C530945   3.521   3.288   4.883  0.6464  0.0355 -0.3048
   71MOL     C630946   3.659   3.224   4.865  0.5575 -0.1002 -0.0225
   71MOL     C730947   3.646   3.071   4.874 -0.1575  0.0087  0.0301
   71MOL     C830948   3.506   2.788   5.099  0.7239 -0.8619 -0.1163
   71MOL     H930949   3.502   2.842   4.885  1.6331 -1.4818 -0.9683
   71MOL    H1030950   3.637   3.036   5.074  1.4600  1.0889 -0.9832
   71MOL    H1130951   3.367   3.049   4.922  0.6525 -1.2627 -0.6500
   71MOL    H1230952   3.389   3.050   5.093 -4.4408  1.6061 -1.2993
   71MOL    H1330953   3.495   3.268   5.092 -0.6050  1.6495  0.5347
   71MOL    H1430954   3.337   3.254   5.013  0.5262 -1.5265  1.8287
   71MOL    H1530955   3.532   3.396   4.900  1.7814 -0.1139 -0.0775
   71MOL    H1630956   3.458   3.286   4.794  1.0473  0.0707 -0.5892
   71MOL    H1730957   3.702   3.259   4.772 -2.1806  4.2845  0.2230
   71MOL    H1830958   3.720   3.249   4.952 -1.1662  2.3340  0.5360
   71MOL    H1930959   3.746   3.027   4.874 -0.2644 -0.2693 -0.9952
   71MOL    H2030960   3.608   3.026   4.782 -1.2807 -0.7327  0.8455
   71MOL    H2130961   3.412   2.835   5.126  0.2911 -0.1447 -2.7340
   71MOL    H2230962   3.561   2.813   5.190 -1.4855 -0.0765  1.0320
   71MOL    H2330963   3.664   2.816   4.961  1.1374  1.4463  0.5956
   71MOL    C2430964   3.498   2.632   5.095 -0.4790 -0.7488 -0.2288
   71MOL    C2530965   3.497   2.573   5.238  0.3701  0.6594  0.3503
   71MOL    C2630966   3.515   2.422   5.241 -0.4854  0.2742  0.2217
   71MOL    C2730967   3.516   2.363   5.380  0.5049  0.4079  0.0060
   71MOL    C2830968   3.401   2.405   5.458  0.6170  0.3711 -0.2873
   71MOL    C2930969   3.361   2.564   5.457 -0.2208 -0.0661 -0.3399
   71MOL    C3030970   3.379   2.627   5.324  0.1462 -0.1458 -0.0436
   71MOL    C3130971   3.380   2.582   5.004 -0.6209 -0.0214  0.2695
   71MOL    H3230972   3.597   2.603   5.059  1.0946  2.5144  1.2927
   71MOL    H3330973   3.589   2.602   5.289  0.2300  2.4182 -0.3481
   71MOL    H3430974   3.611   2.397   5.197  0.5815  1.6214  1.7341
   71MOL    H3530975   3.439   2.366   5.187 -1.0000  1.7028 -0.5523
   71MOL    H3630976   3.523   2.255   5.370 -0.5882  0.1744  1.6809
   71MOL    H3730977   3.609   2.397   5.427  0.4238  2.0920 -0.9909
   71MOL    H3830978   3.406   2.369   5.561  0.9313 -0.7672 -0.6987
   71MOL    H3930979   3.319   2.349   5.414 -1.3727  3.6999 -0.9860
   71MOL    H4030980   3.264   2.573   5.505  0.5205  3.1328  0.7101
   71MOL    H4130981   3.436   2.611   5.522 -0.0272  0.0764 -0.6633
   71MOL    H4230982   3.280   2.624   5.278 -0.5495 -1.8520  1.5154
   71MOL    H4330983   3.408   2.727   5.356 -0.7317 -0.0136  0.3547
   71MOL    H4430984   3.304   2.659   5.014  0.2289  1.1333 -1.7605
   71MOL    H4530985   3.338   2.492   5.049 -0.2452  1.0879  2.8849
   71MOL    C4630986   3.398   2.567   4.852 -0.7045  0.6153  0.3147
   71MOL    C4730987   3.269   2.582   4.770  0.1508  0.5577 -0.3807
   71MOL    C4830988   3.219   2.723   4.760 -0.3548  0.0853  0.1590
   71MOL    C4930989   3.112   2.742   4.653 -0.1779 -0.1827 -0.1974
   71MOL    C5030990   2.997   2.647   4.678 -0.9655  0.1921  0.0891
   71MOL    C5130991   3.041   2.501   4.713  0.6816 -0.9269 -0.5642
   71MOL    C5230992   3.147   2.498   4.823  0.6492 -0.0967 -0.0543
   71MOL    C5330993   3.469   2.427   4.818 -0.0411  0.3748 -0.6806
   71MOL    H5430994   3.469   2.647   4.832 -0.9322  0.8806  0.5571
   71MOL    H5530995   3.295   2.541   4.673 -1.1285 -2.0508  0.3222
   71MOL    H5630996   3.181   2.767   4.852  0.7344 -0.8376  1.0756
   71MOL    H5730997   3.299   2.781   4.714 -2.3493  1.0962 -2.1535
   71MOL    H5830998   3.161   2.726   4.557  0.2907 -1.6107  0.2717
   71MOL    H5930999   3.084   2.847   4.659  2.3517  0.4950  0.4606
   71MOL    H6031000   2.930   2.697   4.748 -1.1171  0.4374 -0.2309
   71MOL    H6131001   2.939   2.635   4.586  1.2212  1.5610 -1.5051
   71MOL    H6231002   3.083   2.452   4.625  0.7889 -1.1189 -0.4078
   71MOL    H6331003   2.954   2.451   4.754 -0.1440  0.9442  0.0004
   71MOL    H6431004   3.114   2.539   4.918 -0.1230  0.1826 -0.4417
   71MOL    H6531005   3.161   2.394   4.852 -0.7349 -0.5412 -0.9257
   71MOL    H6631006   3.394   2.347   4.824 -0.6848  1.1121  2.4021
   71MOL    H6731007   3.546   2.419   4.895 -0.5830  2.7732  0.1613
   71MOL    C6831008   3.538   2.410   4.680 -0.5145  0.5153 -0.3397
   71MOL    C6931009   3.649   2.518   4.636  0.2414 -0.4111 -0.2887
   71MOL    C7031010   3.589   2.635   4.548 -0.1212  0.1095 -0.4580
   71MOL    C7131011   3.702   2.729   4.506  0.7275  0.1202  0.7164
   71MOL    C7231012   3.774   2.782   4.623  0.4292 -0.5844  0.4381
   71MOL    C7331013   3.838   2.674   4.712  0.1392 -0.5247  0.0734
   71MOL    C7431014   3.738   2.557   4.752  0.1442  0.0015 -0.6433
   71MOL    C7531015   3.592   2.261   4.663  0.4547 -0.2304 -0.1380
   71MOL    H7631016   3.460   2.424   4.605 -0.0535  0.7209 -0.7883
   71MOL    H7731017   3.717   2.467   4.567 -1.1890 -2.3164 -0.3334
   71MOL    H7831018   3.518   2.694   4.607 -0.4028  0.0375 -0.7255
   71MOL    H7931019   3.534   2.604   4.459  0.4368 -0.8344 -0.4819
   71MOL    H8031020   3.771   2.674   4.442  0.6033  2.2391 -1.3337
   71MOL    H8131021   3.659   2.811   4.448  3.2634  0.8900 -0.1321
   71MOL    H8231022   3.705   2.841   4.683  1.6426  0.0812  1.2050
   71MOL    H8331023   3.861   2.843   4.597 -0.0560  0.3175  0.9068
   71MOL    H8431024   3.887   2.723   4.795  0.4616 -0.4716 -0.1481
   71MOL    H8531025   3.922   2.626   4.661 -0.5573 -0.5149 -1.0978
   71MOL    H8631026   3.687   2.595   4.841 -2.1213  0.7981 -2.2227
   71MOL    H8731027   3.784   2.466   4.792  0.5770  0.3378 -0.3682
   71MOL    H8831028   3.664   2.250   4.744 -0.6291  0.9373  1.0096
   71MOL    H8931029   3.502   2.209   4.696  0.8709  0.2944  1.8861
   71MOL    C9031030   3.625   2.224   4.513 -0.7076 -0.4712 -1.1344
   71MOL    C9131031   3.756   2.136   4.511  0.3832  0.0218 -0.1448
   71MOL    C9231032   3.883   2.215   4.549 -0.1034 -0.1180  0.3840
   71MOL    C9331033   4.009   2.129   4.527 -0.0137 -0.5282  0.1358
   71MOL    C9431034   4.000   1.984   4.589  0.3871 -0.3332 -0.2167
   71MOL    C9531035   3.867   1.915   4.564 -0.2752  0.1192  0.3823
   71MOL    C9631036   3.745   2.004   4.592  0.5604  0.6549 -0.0311
   71MOL    C9731037   3.499   2.174   4.434  0.5199 -0.5066 -0.6678
   71MOL    H9831038   3.656   2.315   4.462  0.1501 -0.6833 -1.0010
   71MOL    H9931039   3.771   2.104   4.408 -0.8700 -0.8274 -0.0761
   71MOL   H10031040   3.884   2.251   4.652 -1.0088 -0.4425  0.5039
   71MOL   H10131041   3.888   2.298   4.479  1.6107 -0.1287  0.4601
   71MOL   H10231042   4.093   2.189   4.562  0.6174 -1.2132 -0.1969
   71MOL   H10331043   4.024   2.119   4.419  2.4367  2.8824  0.0779
   71MOL   H10431044   4.023   1.987   4.696  2.0648 -0.1459 -0.5628
   71MOL   H10531045   4.081   1.925   4.546 -1.7571 -1.5089 -2.7805
   71MOL   H10631046   3.872   1.879   4.461  0.2323  1.1003  0.0493
   71MOL   H10731047   3.870   1.818   4.613  0.6546 -0.1154 -0.1227
   71MOL   H10831048   3.651   1.952   4.569  0.6797 -0.4229  1.8175
   71MOL   H10931049   3.749   2.017   4.700 -0.4588 -0.4938  0.1663
   71MOL   H11031050   3.526   2.069   4.422  1.8424 -0.2362 -0.1325
   71MOL   H11131051   3.407   2.174   4.493  1.2385 -1.0658  0.4754
   71MOL   C11231052   3.469   2.227   4.287  0.3230 -0.9555 -0.5133
   71MOL   C11331053   3.419   2.374   4.278  0.1657 -0.1095 -0.0598
   71MOL   C11431054   3.276   2.393   4.335  0.7564  0.0352 -0.5752
   71MOL   C11531055   3.235   2.538   4.335 -0.6119  0.1410 -0.8347
   71MOL   C11631056   3.248   2.608   4.193  0.1470  0.4098  0.1390
   71MOL   C11731057   3.393   2.593   4.141 -0.1522 -0.3950 -0.4201
   71MOL   C11831058   3.429   2.439   4.140  0.2451 -0.6343 -0.0002
   71MOL   C11931059   3.394   2.129   4.194  0.2561 -0.0433 -0.2333
   71MOL   H12031060   3.568   2.227   4.240  0.0438 -1.8296 -1.1092
   71MOL   H12131061   3.484   2.433   4.342 -1.0486 -0.4750  1.5357
   71MOL   H12231062   3.274   2.374   4.442 -1.8596  1.6615 -0.2816
   71MOL   H12331063   3.210   2.331   4.274  1.9874 -1.3594 -0.5254
   71MOL   H12431064   3.136   2.549   4.379 -0.2733  0.8830 -0.2569
   71MOL   H12531065   3.299   2.601   4.396 -0.9961  0.1484 -0.4353
   71MOL   H12631066   3.175   2.569   4.122 -0.2477  2.2330 -0.4914
   71MOL   H12731067   3.220   2.713   4.200 -2.2078 -0.1680  0.0626
   71MOL   H12831068   3.417   2.637   4.044 -0.6960 -0.7801 -0.7348
   71MOL   H12931069   3.457   2.643   4.213  1.5466 -2.1038 -0.7194
   71MOL   H13031070   3.533   2.430   4.107  0.8705 -2.1422  2.2276
   71MOL   H13131071   3.356   2.395   4.072 -2.1081  0.0962  1.9975
   71MOL   H13231072   3.328   2.171   4.118 -3.0774 -2.8888  0.9941
   71MOL   H13331073   3.334   2.077   4.269  0.9764  1.6206  1.5393
   71MOL   C13431074   3.485   2.023   4.122 -0.3776 -0.5943  0.0838
   71MOL   C13531075   3.554   2.088   3.990 -0.2789  0.0536 -0.9034
   71MOL   C13631076   3.472   2.086   3.862  0.8320  0.4230  0.0351
   71MOL   C13731077   3.548   2.171   3.758 -0.1139  0.8085 -0.0069
   71MOL   C13831078   3.686   2.113   3.737 -0.1454 -0.4797  0.4689
   71MOL   C13931079   3.759   2.093   3.865  0.0576  0.0982 -0.3150
   71MOL   C14031080   3.683   2.019   3.970  0.0258 -0.3356  0.1472
   71MOL   C14131081   3.407   1.895   4.087 -0.4436  0.6646  0.1682
   71MOL   H14231082   3.566   2.001   4.192 -0.2260  0.5115  0.2687
   71MOL   H14331083   3.576   2.189   4.023  1.0962 -0.4936 -0.1333
   71MOL   H14431084   3.434   1.993   3.820 -1.9743  0.7287  1.7341
   71MOL   H14531085   3.378   2.139   3.882  0.6524 -0.2535  1.0254
   71MOL   H14631086   3.561   2.275   3.789  1.6151 -0.0673  2.4267
   71MOL   H14731087   3.486   2.173   3.669  1.7964 -2.6508 -1.5036
   71MOL   H14831088   3.669   2.021   3.681 -0.2121 -0.3658  0.3024
   71MOL   H14931089   3.748   2.180   3.677  1.4377 -0.1136  2.4359
   71MOL   H15031090   3.770   2.191   3.912  0.8522  0.6559 -1.6281
   71MOL   H15131091   3.856   2.045   3.858 -0.6939 -1.3220 -1.2219
   71MOL   H15231092   3.673   1.913   3.946 -1.1679  0.0452 -1.0562
   71MOL   H15331093   3.738   2.024   4.064 -0.4770 -1.8362  0.5334
   71MOL   H15431094   3.465   1.838   4.015  1.7650  2.0373  0.8186
   71MOL   H15531095   3.315   1.924   4.036  0.5047  1.8026 -0.9220
   71MOL   C15631096   3.372   1.811   4.209  0.9855  0.1248 -0.4234
   71MOL   C15731097   3.457   1.677   4.220  0.0642 -0.4469  0.0315
   71MOL   C15831098   3.401   1.561   4.125 -0.2038  0.0206  0.8423
   71MOL   C15931099   3.474   1.433   4.157  0.0775 -0.4749  0.4387
   71MOL   C16031100   3.623   1.434   4.146 -0.2692 -0.7412 -0.0028
   71MOL   C16131101   3.684   1.551   4.230  0.1539 -0.3259  0.1613
   71MOL   C16231102   3.607   1.688   4.212 -0.3658 -0.1526  0.3199
   71MOL   C16331103   3.221   1.797   4.248  0.4644 -0.3199  0.5018
   71MOL   H16431104   3.422   1.861   4.292  2.6863 -0.2854 -1.1740
   71MOL   H16531105   3.454   1.632   4.319  1.6030  2.4091  1.4295
   71MOL   H16631106   3.296   1.537   4.139 -0.2002 -0.6748 -0.3507
   71MOL   H16731107   3.428   1.595   4.025 -0.3145  2.2717  1.5460
   71MOL   H16831108   3.439   1.399   4.254  0.3360 -0.3644  0.5710
   71MOL   H16931109   3.434   1.360   4.086 -0.9504  0.5340 -0.0259
   71MOL   H17031110   3.643   1.435   4.039  2.4620 -0.2046  0.4951
   71MOL   H17131111   3.651   1.340   4.193  2.1055 -0.5240 -0.9370
   71MOL   H17231112   3.789   1.566   4.205 -0.1016  1.5899  0.1087
   71MOL   H17331113   3.681   1.532   4.337 -2.0692  0.6493  0.2957
   71MOL   H17431114   3.651   1.767   4.273 -1.0492 -2.1357  3.4898
   71MOL   H17531115   3.632   1.731   4.115  0.3379  1.0633  1.0346
   71MOL   H17631116   3.177   1.716   4.190  1.5389  0.3368 -1.2937
   71MOL   H17731117   3.158   1.886   4.251 -0.5370 -1.0280  0.8884
   71MOL   C17831118   3.215   1.739   4.395 -0.1926 -0.2329  0.0599
   71MOL   C17931119   3.119   1.820   4.485  0.7431  0.5478  0.1335
   71MOL   C18031120   2.976   1.843   4.434  0.4137  0.0690 -0.0104
   71MOL   C18131121   2.888   1.916   4.536 -1.2770 -0.3950  0.6969
   71MOL   C18231122   2.954   2.041   4.610  0.4222  0.9994 -0.3222
   71MOL   C18331123   3.087   1.996   4.666 -0.4014  0.0764 -0.7667
   71MOL   C18431124   3.173   1.955   4.543  0.0817 -0.2010 -0.5187
   71MOL   C18531125   3.182   1.583   4.410 -0.3038 -0.2060  0.1274
   71MOL   H18631126   3.310   1.763   4.443 -0.4020 -0.6927  0.7152
   71MOL   H18731127   3.091   1.753   4.567 -1.1278 -1.7319 -2.2944
   71MOL   H18831128   2.970   1.896   4.339  0.5865 -2.5694 -1.5501
   71MOL   H18931129   2.925   1.750   4.409 -0.7775  0.3727  1.2090
   71MOL   H19031130   2.887   1.844   4.618  2.8915 -0.8350  0.4702
   71MOL   H19131131   2.785   1.938   4.509 -0.7855  1.6157  0.3679
   71MOL   H19231132   2.976   2.118   4.536  0.0022  1.5957  0.1627
   71MOL   H19331133   2.902   2.083   4.697  1.2202  1.8815 -0.2616
   71MOL   H19431134   3.088   1.920   4.744 -3.0583 -0.0023 -0.7470
   71MOL   H19531135   3.127   2.085   4.714  1.5150 -0.3975 -1.4363
   71MOL   H19631136   3.180   2.040   4.476  1.5364  0.6984  0.7265
   71MOL   H19731137   3.272   1.935   4.585 -1.3644 -3.4198  1.6297
   71MOL   H19831138   3.074   1.572   4.396 -0.7152  0.8369  2.2747
   71MOL   H19931139   3.227   1.528   4.327 -3.8569 -1.7717 -0.8520
   71MOL   C20031140   3.222   1.507   4.538 -0.0532  0.7027 -0.0644
   71MOL   C20131141   3.148   1.370   4.556  0.0020  0.0850 -0.5949
   71MOL   C20231142   2.999   1.388   4.591  0.8323  0.6054 -0.7769
   71MOL   C20331143   2.927   1.249   4.627 -0.0366 -0.5351 -0.2857
   71MOL   C20431144   2.949   1.149   4.506  1.0598  0.0224  0.2549
   71MOL   C20531145   3.095   1.139   4.465 -0.4069  0.3991  0.7208
   71MOL   C20631146   3.163   1.276   4.438 -0.2665  0.2478  0.3469
   71MOL   C20731147   3.377   1.499   4.549 -0.1344 -0.1993 -0.2038
   71MOL   H20831148   3.181   1.570   4.618 -1.7739 -0.9674  0.4011
   71MOL   H20931149   3.177   1.313   4.645  2.7396 -0.9367 -2.0773
   71MOL   H21031150   2.945   1.419   4.502 -3.0835 -1.5062  0.7442
   71MOL   H21131151   2.978   1.467   4.664 -0.0980  0.8654 -1.3209
   71MOL   H21231152   2.968   1.208   4.720 -2.7858 -2.1508  0.2652
   71MOL   H21331153   2.822   1.264   4.653 -0.0526 -1.0002 -0.0839
   71MOL   H21431154   2.910   1.050   4.527 -1.5502  1.4477  2.5661
   71MOL   H21531155   2.903   1.207   4.426 -0.7460  1.0380  1.9773
   71MOL   H21631156   3.150   1.086   4.542  0.5922  1.7912  0.9659
   71MOL   H21731157   3.107   1.087   4.370  0.1168  2.8699 -0.5997
   71MOL   H21831158   3.262   1.272   4.393  1.2829  1.9789  3.4414
   71MOL   H21931159   3.104   1.314   4.354 -1.2838 -2.8475 -0.4160
   71MOL   H22031160   3.413   1.453   4.457 -0.5225  0.3437 -0.6297
   71MOL   H22131161   3.423   1.597   4.535 -0.2153  0.1918  2.0787
   71MOL   C22231162   3.439   1.416   4.671  0.0827  0.2369 -0.2494
   71MOL   C22331163   3.598   1.397   4.654 -0.2903 -0.6136 -0.1412
   71MOL   C22431164   3.676   1.531   4.663 -0.0342 -0.0246 -0.2496
   71MOL   C22531165   3.830   1.500   4.653  0.2689  0.0597  0.5576
   71MOL   C22631166   3.867   1.430   4.528 -0.8649  0.0891 -0.1636
   71MOL   C22731167   3.786   1.296   4.510 -0.2795  0.0221 -0.1974
   71MOL   C22831168   3.632   1.321   4.525  0.0876 -0.4493  0.7752
   71MOL   C22931169   3.389   1.458   4.816 -0.3148 -0.0626  0.1426
   71MOL   H23031170   3.409   1.311   4.672  2.6519 -0.5377  0.8850
   71MOL   H23131171   3.629   1.330   4.734 -2.9584 -2.1614 -0.3257
   71MOL   H23231172   3.651   1.613   4.595  2.0086  1.0509  0.2566
   71MOL   H23331173   3.647   1.574   4.759 -3.0241 -2.7760  0.1503
   71MOL   H23431174   3.860   1.447   4.744  1.8843 -0.6685 -0.3729
   71MOL   H23531175   3.883   1.595   4.642  2.6493 -1.3045 -0.1960
   71MOL   H23631176   3.860   1.499   4.444 -0.2093 -1.1651 -1.2834
   71MOL   H23731177   3.973   1.403   4.523 -0.5613  1.2382  0.0125
   71MOL   H23831178   3.829   1.230   4.585  0.1156 -0.9365 -1.2547
   71MOL   H23931179   3.806   1.262   4.409 -1.3366  0.0760 -0.4263
   71MOL   H24031180   3.593   1.357   4.430 -0.4316 -1.0627  0.7544
   71MOL   H24131181   3.584   1.224   4.537 -1.6488  0.1610 -0.9273
   71MOL   H24231182   3.322   1.541   4.795  2.1528  1.5700 -1.6423
   71MOL   H24331183   3.470   1.514   4.863  3.2568 -4.6233 -0.2328
   71MOL   C24431184   3.329   1.350   4.914 -0.6971 -0.6966 -0.3307
   71MOL   C24531185   3.241   1.400   5.037 -0.7267  0.3852  0.0453
   71MOL   C24631186   3.098   1.434   5.011  0.0785 -0.4582 -0.7006
   71MOL   C24731187   3.023   1.477   5.144  0.4129 -0.0530  0.4785
   71MOL   C24831188   3.095   1.599   5.195  0.4177  0.4622 -0.4498
   71MOL   C24931189   3.235   1.572   5.244 -0.5695 -0.3257  0.7035
   71MOL   C25031190   3.314   1.509   5.124  0.4734 -0.6637  0.5118
   71MOL   C25131191   3.446   1.258   4.943 -0.5200 -0.7430 -0.2813
   71MOL   H25231192   3.260   1.291   4.854  0.7885 -1.6684 -1.0986
   71MOL   H25331193   3.239   1.315   5.105  0.3529  0.2624 -0.0704
   71MOL   H25431194   3.040   1.347   4.978 -0.5251 -0.4670  0.3655
   71MOL   H25531195   3.093   1.518   4.942 -0.2782  0.5401  0.5374
   71MOL   H25631196   2.916   1.488   5.127  0.7546 -0.6284 -2.3583
   71MOL   H25731197   3.025   1.396   5.217 -1.8238 -1.5440 -1.0592
   71MOL   H25831198   3.102   1.664   5.108 -0.3082  0.6270 -0.3873
   71MOL   H25931199   3.033   1.644   5.272  2.1091 -0.1074  1.3060
   71MOL   H26031200   3.214   1.501   5.323 -0.0478 -1.5854 -0.2694
   71MOL   H26131201   3.289   1.664   5.269  1.4462 -1.7347  1.6569
   71MOL   H26231202   3.328   1.590   5.053 -2.0021 -0.9190 -0.3068
   71MOL   H26331203   3.412   1.475   5.156  1.7924  2.2648 -0.2092
   71MOL   H26431204   3.520   1.323   4.988 -1.3279 -1.6793  2.4903
   71MOL   H26531205   3.486   1.225   4.847  2.9301 -2.8764  1.7731
   71MOL   C26631206   3.427   1.128   5.030 -0.7828  0.0307  0.3022
   71MOL   C26731207   3.300   1.042   4.983  0.2820 -0.0471 -0.5219
   71MOL   C26831208   3.251   0.943   5.092  1.1844 -0.6765 -0.1594
   71MOL   C26931209   3.122   0.862   5.056 -0.4024 -0.0041  0.0630
   71MOL   C27031210   3.144   0.794   4.917  0.0576 -0.3084  0.2798
   71MOL   C27131211   3.185   0.906   4.818  0.0264 -0.2291  0.1787
   71MOL   C27231212   3.323   0.963   4.856 -0.0038 -0.4564 -0.3188
   71MOL   C27331213   3.554   1.041   5.037 -0.0337  0.8290 -0.2368
   71MOL   H27431214   3.419   1.164   5.133  3.8306 -0.6630  1.0100
   71MOL   H27531215   3.217   1.110   4.963  2.1557  1.7239 -2.6396
   71MOL   H27631216   3.334   0.876   5.112  1.4125 -0.8754 -1.7373
   71MOL   H27731217   3.229   0.998   5.184 -0.6671 -0.5954 -0.6278
   71MOL   H27831218   3.043   0.937   5.049 -1.2450 -0.8706 -0.0180
   71MOL   H27931219   3.107   0.785   5.132 -0.8582  0.8402  0.8405
   71MOL   H28031220   3.216   0.712   4.917  3.3844  2.4706 -2.7427
   71MOL   H28131221   3.042   0.760   4.897 -0.7408  1.1644  1.7027
   71MOL   H28231222   3.114   0.986   4.797 -1.5157 -2.3713 -3.1895
   71MOL   H28331223   3.214   0.863   4.722  0.3010  2.8488 -1.1583
   71MOL   H28431224   3.365   1.033   4.784 -1.2983  2.6135  1.8235
   71MOL   H28531225   3.402   0.888   4.868  0.9678  0.4922 -0.7245
   71MOL   H28631226   3.583   1.014   4.935 -2.1252  1.2250 -0.9619
   71MOL   H28731227   3.529   0.948   5.088  1.1943  1.7892  2.2207
   71MOL   C28831228   3.669   1.098   5.108  0.1489 -0.6622  0.2675
   71MOL   C28931229   3.801   1.041   5.065 -0.2145  0.4612  0.5739
   71MOL   C29031230   3.816   0.886   5.073 -0.3224  0.1230 -0.2925
   71MOL   C29131231   3.960   0.845   5.029  0.2484 -0.0273  0.0639
   71MOL   C29231232   4.008   0.890   4.890  0.7722 -0.0298 -0.2525
   71MOL   C29331233   3.989   1.042   4.882  0.2993 -0.3424  0.4681
   71MOL   C29431234   3.848   1.086   4.920  0.1305  0.4107 -0.1674
   71MOL   C29531235   3.648   1.091   5.264  0.1984  0.0752 -0.3828
   71MOL   H29631236   3.677   1.202   5.076 -0.9307 -0.6706 -0.0384
   71MOL   H29731237   3.874   1.073   5.139 -1.6731 -1.8274  3.1045
   71MOL   H29831238   3.790   0.843   5.170 -1.1532  0.8674 -0.1726
   71MOL   H29931239   3.747   0.848   4.997  0.0550 -1.2581  0.0506
   71MOL   H30031240   4.021   0.864   5.116  3.7900  1.1562 -2.5730
   71MOL   H30131241   3.952   0.736   5.023 -0.4421  0.0332 -0.1828
   71MOL   H30231242   3.960   0.846   4.802 -3.0622  2.1172  0.6448
   71MOL   H30331243   4.105   0.849   4.862  0.5212 -0.9722  0.2305
   71MOL   H30431244   4.007   1.074   4.780 -2.7090 -1.2689 -0.4054
   71MOL   H30531245   4.061   1.087   4.951 -0.2735 -1.9231  2.1588
   71MOL   H30631246   3.771   1.058   4.848 -3.1678  0.3737  3.2037
   71MOL   H30731247   3.851   1.195   4.916 -0.7062  0.4065 -1.2574
   71MOL   H30831248   3.561   1.028   5.281 -1.5334  2.2847 -0.8129
   71MOL   H30931249   3.735   1.049   5.313  0.1255  3.1965  2.6711
   71MOL   C31031250   3.623   1.227   5.337 -0.5786  0.9134 -0.4810
   71MOL   C31131251   3.507   1.216   5.438  0.1733 -0.2534  0.4315
   71MOL   C31231252   3.530   1.132   5.563  0.7776  0.3134 -0.5332
   71MOL   C31331253   3.402   1.114   5.641 -0.5379  0.4893 -0.0204
   71MOL   C31431254   3.346   1.256   5.687  0.0589 -0.4833 -0.6883
   71MOL   C31531255   3.331   1.338   5.561  1.2609 -0.3725 -0.2090
   71MOL   C31631256   3.459   1.352   5.483  0.2871  0.1262  0.4910
   71MOL   C31731257   3.764   1.281   5.384 -0.2836  0.1440 -0.2853
   71MOL   H31831258   3.583   1.280   5.251  0.0396 -0.8769 -1.9112
   71MOL   H31931259   3.426   1.166   5.384  1.6791 -2.5023  0.1822
   71MOL   H32031260   3.560   1.034   5.526  0.6184 -0.5081  1.4767
   71MOL   H32131261   3.616   1.164   5.622  0.3972 -1.5308  1.0573
   71MOL   H32231262   3.431   1.069   5.736 -1.0137  1.5625  0.6477
   71MOL   H32331263   3.332   1.060   5.577 -1.2321  0.3698  0.8168
   71MOL   H32431264   3.250   1.239   5.737  0.0719  0.3457 -0.3769
   71MOL   H32531265   3.412   1.315   5.750 -1.6812  2.9275 -1.9224
   71MOL   H32631266   3.254   1.296   5.496  1.1511 -1.1732  0.4259
   71MOL   H32731267   3.293   1.435   5.592  3.2685  0.7310 -1.1409
   71MOL   H32831268   3.537   1.408   5.535  1.5363 -0.7675 -0.3797
   71MOL   H32931269   3.433   1.409   5.394  0.1057 -1.6194 -0.5912
   71MOL   H33031270   3.836   1.243   5.312  0.4141  0.7168  0.1067
   71MOL   H33131271   3.790   1.239   5.482 -2.0018 -0.7936 -0.2096
   71MOL   C33231272   3.782   1.434   5.390  0.5119 -0.1943 -0.4325
   71MOL   C33331273   3.709   1.516   5.280 -0.0063  0.0960  0.0326
   71MOL   C33431274   3.791   1.507   5.146  0.1031  0.1126  0.6649
   71MOL   C33531275   3.721   1.580   5.028 -0.5363 -0.6581  0.1690
   71MOL   C33631276   3.705   1.725   5.055  0.3566 -0.3868  0.1054
   71MOL   C33731277   3.631   1.753   5.192  0.6988  0.7233  0.4913
   71MOL   C33831278   3.691   1.671   5.314 -0.1374  0.4017 -0.0599
   71MOL   C33931279   3.931   1.477   5.413  0.3800  0.0056  0.0700
   71MOL   H34031280   3.718   1.458   5.475 -3.2344 -2.3338 -2.5099
   71MOL   H34131281   3.608   1.482   5.258  1.0058 -2.2139 -1.2470
   71MOL   H34231282   3.890   1.550   5.162 -1.0293  3.0682  0.1660
   71MOL   H34331283   3.813   1.403   5.121 -3.5566 -1.0411  1.8409
   71MOL   H34431284   3.778   1.574   4.935 -0.6741 -1.3244  0.1224
   71MOL   H34531285   3.620   1.540   5.018 -0.6309 -0.2364 -0.5706
   71MOL   H34631286   3.802   1.775   5.047 -0.2856  0.9101  0.2439
   71MOL   H34731287   3.650   1.785   4.982 -0.7229 -0.6082  0.7290
   71MOL   H34831288   3.530   1.715   5.176  1.0425  0.2887 -0.6654
   71MOL   H34931289   3.618   1.854   5.231 -0.0267  0.6474  0.4483
   71MOL   H35031290   3.605   1.676   5.382  0.1360  0.3192  0.2923
   71MOL   H35131291   3.783   1.706   5.359  1.2154 -0.4265 -2.1254
   71MOL   H35231292   3.936   1.585   5.403  1.1991 -0.1599 -1.3198
   71MOL   H35331293   3.995   1.434   5.336 -3.2049  0.1162 -3.0642
   71MOL   C35431294   3.987   1.455   5.559 -0.2111  0.8752  1.3482
   71MOL   C35531295   3.921   1.545   5.669 -0.0763 -0.7681  0.3091
   71MOL   C35631296   3.954   1.692   5.655 -0.3506  0.1845 -0.2381
   71MOL   C35731297   3.879   1.771   5.762  0.3849 -0.6409 -0.2303
   71MOL   C35831298   3.914   1.734   5.903  0.8321  0.5963 -0.3941
   71MOL   C35931299   3.874   1.590   5.920 -0.4474 -0.6012 -0.6546
   71MOL   C36031300   3.941   1.495   5.812 -0.3721 -0.3223 -0.7164
   71MOL   C36131301   4.143   1.465   5.548 -0.6586 -0.8858 -0.1666
   71MOL   H36231302   3.972   1.352   5.593 -1.9062  0.6554  0.0160
   71MOL   H36331303   3.814   1.544   5.650 -0.3093  1.3056  1.3037
   71MOL   H36431304   3.935   1.745   5.561  2.2713  2.5865  0.5035
   71MOL   H36531305   4.057   1.719   5.676 -1.5771  2.7795  2.9454
   71MOL   H36631306   3.891   1.876   5.737 -1.4985  0.0159  1.4339
   71MOL   H36731307   3.771   1.764   5.751  0.2367 -0.6391  1.0908
   71MOL   H36831308   4.019   1.744   5.929  0.9867 -0.3593 -0.6521
   71MOL   H36931309   3.865   1.786   5.986  2.6649 -0.5879  1.4716
   71MOL   H37031310   3.909   1.556   6.017 -0.1793  0.0334 -0.5264
   71MOL   H37131311   3.769   1.562   5.928 -0.1008 -1.4117  1.2323
   71MOL   H37231312   3.904   1.393   5.820 -1.3637 -0.0180 -1.2458
   71MOL   H37331313   4.049   1.494   5.825 -0.6757 -1.1521  2.1757
   71MOL   H37431314   4.181   1.517   5.636 -2.9120  0.3899  0.0969
   71MOL   H37531315   4.182   1.527   5.467  4.0645 -1.3183  1.6376
   71MOL   C37631316   4.212   1.329   5.555 -0.4451  0.8191  0.1863
   71MOL   C37731317   4.353   1.326   5.487  0.2180  0.4866  0.1176
   71MOL   C37831318   4.448   1.421   5.566  0.3330  0.6043  0.3206
   71MOL   C37931319   4.581   1.420   5.489  0.9003 -0.1408 -0.4079
   71MOL   C38031320   4.564   1.473   5.342  0.7935 -0.5490 -0.6560
   71MOL   C38131321   4.475   1.382   5.259  0.5719 -0.0412  0.3773
   71MOL   C38231322   4.339   1.357   5.333 -0.0597  0.1019 -0.4768
   71MOL   C38331323   4.205   1.257   5.696 -0.6534  0.3326  0.1392
   71MOL   H38431324   4.148   1.269   5.490  0.9540 -1.3776  0.7452
   71MOL   H38531325   4.394   1.225   5.481  0.8118  0.7971 -1.2219
   71MOL   H38631326   4.411   1.523   5.576  1.5708  1.0076  0.9651
   71MOL   H38731327   4.458   1.380   5.667  0.2248 -0.3887 -0.0664
   71MOL   H38831328   4.616   1.318   5.478 -0.1658 -0.7092  1.2811
   71MOL   H38931329   4.657   1.474   5.546  2.9590 -1.2549 -2.0120
   71MOL   H39031330   4.529   1.574   5.361  0.9822 -0.2311 -1.9693
   71MOL   H39131331   4.657   1.500   5.291  0.8868  4.3849  1.7975
   71MOL   H39231332   4.451   1.433   5.166  0.6364 -0.1523  0.3003
   71MOL   H39331333   4.523   1.289   5.230 -1.0979 -1.0493  0.7915
   71MOL   H39431334   4.276   1.442   5.308 -0.5822 -0.0554  0.3048
   71MOL   H39531335   4.292   1.278   5.274 -0.1000  0.4441 -0.9080
   71MOL   H39631336   4.114   1.276   5.753  0.7448  0.1619  2.5185
   71MOL   H39731337   4.269   1.313   5.764 -1.4657  0.0821  1.1267
   71MOL   C39831338   4.245   1.107   5.706  0.3334 -0.0322  0.5743
   71MOL   C39931339   4.334   1.079   5.823 -0.1189 -0.3683  0.4572
   71MOL   C40031340   4.258   1.102   5.959  0.4270 -0.5891 -0.1701
   71MOL   C40131341   4.348   1.094   6.077 -0.0751  0.2048  0.3810
   71MOL   C40231342   4.422   0.956   6.074 -0.3296  0.2795 -0.1050
   71MOL   C40331343   4.492   0.938   5.941  0.1787  0.2000  0.2195
   71MOL   C40431344   4.389   0.941   5.826 -0.2555  0.2497  0.0526
   71MOL   C40531345   4.126   1.012   5.704 -0.3822 -0.3443 -0.4458
   71MOL   H40631346   4.315   1.084   5.625 -1.2946  0.0843 -0.9004
   71MOL   H40731347   4.420   1.146   5.823  0.5458 -1.1962  1.6819
   71MOL   H40831348   4.179   1.031   5.980 -0.4431  0.4482  0.1038
   71MOL   H40931349   4.214   1.201   5.968 -2.9604 -2.1781  1.2514
   71MOL   H41031350   4.295   1.106   6.172  0.8608  0.7718  0.8372
   71MOL   H41131351   4.425   1.171   6.080  0.3521  0.0059 -3.2221
   71MOL   H41231352   4.352   0.873   6.088  1.6605 -1.8108 -2.1953
   71MOL   H41331353   4.499   0.952   6.151 -3.6007 -0.3960  3.3163
   71MOL   H41431354   4.568   1.012   5.919  0.7782 -0.5959 -0.4334
   71MOL   H41531355   4.562   0.854   5.945  2.6781  2.1794 -1.0601
   71MOL   H41631356   4.436   0.926   5.729 -3.1122 -0.7985 -1.2273
   71MOL   H41731357   4.313   0.864   5.834 -1.5381  1.3727 -1.1619
   71MOL   H41831358   4.174   0.914   5.702  2.0675  0.8549 -1.3349
   71MOL   H41931359   4.063   1.027   5.792 -0.7174  1.2598 -0.9428
   71MOL   C42031360   4.021   1.016   5.584 -0.8803  0.2527 -0.2444
   71MOL   C42131361   3.913   0.905   5.595  0.3001 -0.2158  0.3154
   71MOL   C42231362   3.811   0.939   5.711 -0.4940 -0.1914  0.0562
   71MOL   C42331363   3.703   0.827   5.729  0.3395  0.8571 -0.1085
   71MOL   C42431364   3.765   0.684   5.743  0.0082 -0.7088 -0.2080
   71MOL   C42531365   3.861   0.646   5.628  0.1050 -0.2975 -0.3047
   71MOL   C42631366   3.969   0.756   5.605  0.6399  0.5469 -0.1069
   71MOL   C42731367   4.094   1.000   5.454 -0.3482 -0.9544  0.1707
   71MOL   H42831368   3.971   1.113   5.581 -2.3560 -0.5183 -1.3202
   71MOL   H42931369   3.855   0.908   5.503  0.5080  1.4002  0.2207
   71MOL   H43031370   3.861   0.966   5.804  0.1585  0.2972 -0.4335
   71MOL   H43131371   3.758   1.030   5.680  0.7212  0.5721  0.2003
   71MOL   H43231372   3.650   0.844   5.822  0.4785  2.5979 -0.3296
   71MOL   H43331373   3.631   0.830   5.647 -1.8321  1.2445  1.7690
   71MOL   H43431374   3.679   0.617   5.748  0.5584 -1.3551  0.7249
   71MOL   H43531375   3.816   0.673   5.838 -0.8400  0.3010  0.3695
   71MOL   H43631376   3.806   0.619   5.538  1.9555  1.1769 -1.9231
   71MOL   H43731377   3.906   0.549   5.653  0.6731  0.3702  1.3648
   71MOL   H43831378   4.041   0.740   5.685  0.3406 -0.5176 -0.0345
   71MOL   H43931379   4.028   0.722   5.520  0.6263  1.0760 -0.3299
   71MOL   H44031380   4.033   1.028   5.368  2.1582  2.7454 -0.5183
   71MOL   H44131381   4.190   1.047   5.434 -0.9691 -0.2046 -1.1012
   71MOL   H44231382   4.117   0.896   5.433  0.0350 -0.7029 -0.6529
   72MOL     C131383   6.240   2.649   6.396  0.0185 -0.5287 -0.0493
   72MOL     C231384   6.312   2.579   6.272 -0.1035 -0.6074  0.1926
   72MOL     C331385   6.217   2.495   6.188  0.1685  1.0023 -0.0880
   72MOL     C431386   6.286   2.441   6.063  0.7691 -0.2591  0.7135
   72MOL     C531387   6.409   2.350   6.095 -0.1263  0.4491 -0.4020
   72MOL     C631388   6.510   2.428   6.190 -0.3255 -0.0893  0.1150
   72MOL     C731389   6.437   2.496   6.308 -0.3785 -0.1936 -0.4108
   72MOL     C831390   6.312   2.782   6.445 -0.1565 -0.5514  0.5124
   72MOL     H931391   6.138   2.672   6.365  0.1841  0.5320  0.1801
   72MOL    H1031392   6.347   2.657   6.205  3.1571 -1.0562  1.2694
   72MOL    H1131393   6.164   2.419   6.245 -1.2464  2.9658  1.3034
   72MOL    H1231394   6.128   2.552   6.162 -1.4326 -0.8271  1.2248
   72MOL    H1331395   6.313   2.534   6.013 -1.3876  0.3140  0.5621
   72MOL    H1431396   6.214   2.386   6.003 -1.6352  2.0456  1.4022
   72MOL    H1531397   6.455   2.309   6.005  1.3019  1.3165 -0.0843
   72MOL    H1631398   6.373   2.266   6.154  1.6553  0.2414  0.4481
   72MOL    H1731399   6.575   2.351   6.231 -1.1315 -0.7951  0.0791
   72MOL    H1831400   6.561   2.510   6.138  0.0662 -0.8478 -0.7137
   72MOL    H1931401   6.505   2.560   6.364 -0.6557 -0.9870  0.8402
   72MOL    H2031402   6.409   2.410   6.367 -0.6347 -0.3323 -0.7345
   72MOL    H2131403   6.344   2.841   6.359 -2.0475  0.4908  0.5029
   72MOL    H2231404   6.411   2.768   6.488  0.8266  0.4945 -1.3471
   72MOL    H2331405   6.221   2.579   6.478  1.1243 -0.5957  0.1589
   72MOL    C2431406   6.233   2.884   6.529 -0.4215  0.0713  0.0998
   72MOL    C2531407   6.204   2.823   6.673 -0.5784 -0.9945  0.0020
   72MOL    C2631408   6.125   2.920   6.771 -0.1368 -0.3497 -0.3033
   72MOL    C2731409   6.078   2.845   6.894 -0.4439  0.1521  0.2437
   72MOL    C2831410   6.194   2.763   6.958 -1.5576 -0.6042 -0.4704
   72MOL    C2931411   6.280   2.687   6.863  0.2655  0.2232  0.2212
   72MOL    C3031412   6.329   2.768   6.745  0.3049 -0.1510 -0.2610
   72MOL    C3131413   6.297   3.023   6.539 -0.1802  0.2584 -0.1456
   72MOL    H3231414   6.134   2.894   6.485 -0.7765  1.0779  1.0804
   72MOL    H3331415   6.144   2.736   6.648  0.1763 -1.2653 -0.9214
   72MOL    H3431416   6.042   2.960   6.713  0.6396  0.9344 -0.5408
   72MOL    H3531417   6.193   3.002   6.795 -0.0877 -0.1465 -1.1128
   72MOL    H3631418   6.046   2.915   6.971  0.1473  0.4664  0.2144
   72MOL    H3731419   5.999   2.779   6.859 -0.1073  1.3543 -2.9757
   72MOL    H3831420   6.155   2.704   7.041 -0.0351 -1.5411 -0.3872
   72MOL    H3931421   6.254   2.840   7.005 -4.4528  0.3233  1.8551
   72MOL    H4031422   6.361   2.634   6.913  2.1034  3.2407  0.6196
   72MOL    H4131423   6.216   2.607   6.827 -0.8457  0.1873  2.2133
   72MOL    H4231424   6.398   2.849   6.772  0.8318 -0.7673  0.2539
   72MOL    H4331425   6.394   2.705   6.684 -2.3283 -1.9342 -1.2750
   72MOL    H4431426   6.398   3.020   6.581  0.2963 -0.0542 -1.2925
   72MOL    H4531427   6.244   3.100   6.595 -0.9165  1.1941 -2.0774
   72MOL    C4631428   6.315   3.108   6.408  0.3407  0.6230  0.6256
   72MOL    C4731429   6.392   3.243   6.450  0.0262  0.7624 -0.5704
   72MOL    C4831430   6.541   3.222   6.508 -0.5353 -0.0348  0.3568
   72MOL    C4931431   6.617   3.359   6.501  0.2560 -0.2911 -0.4529
   72MOL    C5031432   6.539   3.456   6.592 -0.0256 -0.2453 -0.7439
   72MOL    C5131433   6.390   3.465   6.559 -0.1447 -0.0519  0.4622
   72MOL    C5231434   6.318   3.330   6.550  0.4673 -0.4598  0.1120
   72MOL    C5331435   6.198   3.137   6.315  0.2193  0.4321 -0.1011
   72MOL    H5431436   6.379   3.045   6.347  2.3912  1.8882  1.4031
   72MOL    H5531437   6.396   3.300   6.357  2.2285  0.6507 -0.5734
   72MOL    H5631438   6.541   3.192   6.612  0.6387 -0.1382  0.3331
   72MOL    H5731439   6.594   3.140   6.460 -0.1963  0.3873 -0.0007
   72MOL    H5831440   6.617   3.376   6.393 -2.1988  2.0548 -0.1314
   72MOL    H5931441   6.714   3.357   6.552 -0.1843  0.6506  0.4344
   72MOL    H6031442   6.555   3.432   6.697 -1.3472 -1.1800 -0.7366
   72MOL    H6131443   6.582   3.556   6.582 -0.1471 -0.1815 -0.6353
   72MOL    H6231444   6.397   3.506   6.458 -0.5161 -0.9996  0.0492
   72MOL    H6331445   6.341   3.544   6.615 -0.6334 -1.5024  2.1123
   72MOL    H6431446   6.324   3.280   6.646 -0.0438 -1.1586 -0.2107
   72MOL    H6531447   6.214   3.343   6.519  1.0485  1.9156 -0.9278
   72MOL    H6631448   6.150   3.229   6.347 -0.5934 -0.2295  0.6114
   72MOL    H6731449   6.130   3.053   6.329  0.4690  0.0945 -0.8642
   72MOL    C6831450   6.231   3.148   6.161 -0.1200  0.5903 -0.1575
   72MOL    C6931451   6.222   3.018   6.081 -0.6443  0.2943  0.5969
   72MOL    C7031452   6.075   2.978   6.054  0.5628 -0.1953 -0.2841
   72MOL    C7131453   6.063   2.842   5.994 -0.4524 -0.3363  0.2483
   72MOL    C7231454   6.127   2.850   5.855  1.2986 -0.1531  0.3126
   72MOL    C7331455   6.279   2.880   5.869 -0.0446  0.0672 -0.2206
   72MOL    C7431456   6.302   3.020   5.944  0.2735  0.0842 -0.6753
   72MOL    C7531457   6.169   3.268   6.077  0.3769  0.1584  0.3075
   72MOL    H7631458   6.338   3.169   6.175 -0.2369  1.5643 -0.6691
   72MOL    H7731459   6.263   2.931   6.132  3.9630  2.6134  1.0349
   72MOL    H7831460   6.026   3.056   5.997  0.0357  0.2523  0.7636
   72MOL    H7931461   6.031   2.974   6.153  2.4484 -1.7725  0.5426
   72MOL    H8031462   6.115   2.769   6.056  1.4596 -0.4669 -1.4800
   72MOL    H8131463   5.959   2.813   5.976 -0.0197 -0.5747 -1.9609
   72MOL    H8231464   6.073   2.928   5.802  1.5776  0.8702  1.5128
   72MOL    H8331465   6.108   2.751   5.813 -0.8930 -0.6428  2.3500
   72MOL    H8431466   6.321   2.870   5.769 -1.1445  1.4439 -0.8357
   72MOL    H8531467   6.323   2.808   5.938  0.3508 -0.6636 -1.2150
   72MOL    H8631468   6.259   3.101   5.885  0.5573 -0.2089 -1.2899
   72MOL    H8731469   6.407   3.047   5.957  0.3983 -1.7629  2.5292
   72MOL    H8831470   6.173   3.269   5.968  0.0198  0.3553  0.2970
   72MOL    H8931471   6.064   3.276   6.104 -0.2608 -0.2237 -1.9146
   72MOL    C9031472   6.227   3.411   6.100 -0.0038  0.8422 -0.4256
   72MOL    C9131473   6.378   3.419   6.061  0.2316  0.0271  0.8251
   72MOL    C9231474   6.414   3.402   5.920  0.4192 -0.4609  0.2747
   72MOL    C9331475   6.571   3.413   5.899 -0.0989 -0.1768 -0.6863
   72MOL    C9431476   6.630   3.546   5.959 -0.2995  0.4197  0.3434
   72MOL    C9531477   6.593   3.543   6.110  0.3615  0.1527  0.2883
   72MOL    C9631478   6.444   3.547   6.122 -0.0478  0.1032  0.5805
   72MOL    C9731479   6.141   3.521   6.038 -0.2852 -0.3510  0.1863
   72MOL    H9831480   6.231   3.419   6.208  0.1145  2.5392 -0.5459
   72MOL    H9931481   6.434   3.334   6.101 -1.1505 -0.6325  1.3987
   72MOL   H10031482   6.361   3.481   5.866  0.3151 -0.6420  0.1135
   72MOL   H10131483   6.378   3.312   5.870 -2.6849  1.0383 -0.2950
   72MOL   H10231484   6.593   3.409   5.792  0.8902 -1.4294 -0.4478
   72MOL   H10331485   6.623   3.331   5.948 -0.7665  1.0389  2.1421
   72MOL   H10431486   6.592   3.632   5.905 -0.1792 -0.0834 -0.5470
   72MOL   H10531487   6.738   3.548   5.946 -0.5531  0.6365 -1.9319
   72MOL   H10631488   6.631   3.459   6.167 -0.5331 -0.3118  0.1912
   72MOL   H10731489   6.636   3.632   6.157 -1.5062  0.5691  1.2576
   72MOL   H10831490   6.413   3.570   6.224  1.1067  1.0451  0.7297
   72MOL   H10931491   6.413   3.632   6.061  0.9522 -0.2451 -0.4402
   72MOL   H11031492   6.195   3.613   6.059 -1.0591  0.9053 -3.0076
   72MOL   H11131493   6.136   3.510   5.930 -1.1863 -0.9082  0.2743
   72MOL   C11231494   6.001   3.540   6.105  0.1312 -0.5255  0.6504
   72MOL   C11331495   5.884   3.481   6.032  0.5295  0.1478  0.8920
   72MOL   C11431496   5.845   3.558   5.903  0.3039  0.3735  0.1510
   72MOL   C11531497   5.757   3.468   5.812 -0.3095 -0.3478  0.2070
   72MOL   C11631498   5.629   3.425   5.882  0.6614 -0.4266 -0.0153
   72MOL   C11731499   5.655   3.381   6.023  0.1737  0.1220  0.0485
   72MOL   C11831500   5.754   3.464   6.107 -0.1371  0.8222 -0.0414
   72MOL   C11931501   5.976   3.686   6.142 -0.3013  0.0327  0.6991
   72MOL   H12031502   6.008   3.486   6.199 -1.7580  1.4216  1.9466
   72MOL   H12131503   5.910   3.378   6.008  1.1837  0.7063 -0.9009
   72MOL   H12231504   5.929   3.593   5.842 -0.0200 -1.1986 -1.2436
   72MOL   H12331505   5.804   3.656   5.924 -0.1026  0.3760 -0.6447
   72MOL   H12431506   5.733   3.515   5.717  0.8033  1.5745  0.8363
   72MOL   H12531507   5.814   3.380   5.782 -2.1746 -2.0766  1.5824
   72MOL   H12631508   5.567   3.512   5.860  0.1939 -1.2141 -1.9200
   72MOL   H12731509   5.584   3.344   5.825 -0.7772  0.8448 -0.7314
   72MOL   H12831510   5.565   3.383   6.085 -0.0662  3.7419 -0.3016
   72MOL   H12931511   5.696   3.280   6.017 -0.3967 -0.0803 -0.4557
   72MOL   H13031512   5.771   3.413   6.203 -0.1005 -0.3351 -0.6493
   72MOL   H13131513   5.705   3.557   6.136 -0.0063 -0.7009  5.8133
   72MOL   H13231514   5.870   3.709   6.136 -0.4542  0.0217  2.9713
   72MOL   H13331515   6.011   3.750   6.061 -0.3620  0.2977  0.8837
   72MOL   C13431516   6.046   3.727   6.273  0.0491 -0.9192  0.1440
   72MOL   C13531517   5.966   3.665   6.400  0.3478  0.1099  0.1828
   72MOL   C13631518   5.863   3.754   6.463  0.0851 -0.1238 -0.4080
   72MOL   C13731519   5.791   3.693   6.583  0.5624  0.3094 -0.5374
   72MOL   C13831520   5.883   3.634   6.685  0.1403  0.1892 -0.5502
   72MOL   C13931521   5.974   3.538   6.616  0.2528 -0.0170  0.2288
   72MOL   C14031522   6.063   3.609   6.506  1.0823  0.0008 -0.4836
   72MOL   C14131523   6.063   3.880   6.300  0.1217  0.0763 -0.4858
   72MOL   H14231524   6.146   3.685   6.283  0.7435  0.8859  0.9658
   72MOL   H14331525   5.913   3.574   6.368  0.9133 -0.7975  1.7715
   72MOL   H14431526   5.899   3.851   6.497 -2.6374  1.0386 -0.6535
   72MOL   H14531527   5.788   3.779   6.387 -1.2094  3.9231  2.0543
   72MOL   H14631528   5.717   3.620   6.552  0.7848 -0.6581  1.1335
   72MOL   H14731529   5.732   3.772   6.630  0.8011  0.7451 -0.9572
   72MOL   H14831530   5.934   3.712   6.742  1.1455 -1.4335  0.8269
   72MOL   H14931531   5.824   3.572   6.753  0.6785 -0.7620 -0.9357
   72MOL   H15031532   5.919   3.453   6.576 -0.9998  1.2672 -0.8336
   72MOL   H15131533   6.038   3.502   6.696  2.7838  0.8134 -1.3549
   72MOL   H15231534   6.109   3.693   6.557  2.8229 -1.3361  0.2170
   72MOL   H15331535   6.144   3.549   6.464 -0.5944 -4.5307  2.2650
   72MOL   H15431536   6.106   3.893   6.399 -0.6359  1.2823 -0.3048
   72MOL   H15531537   5.971   3.934   6.320  0.9058  0.9160  0.8801
   72MOL   C15631538   6.144   3.964   6.198  0.0571 -0.5874  0.1689
   72MOL   C15731539   6.301   3.923   6.189  0.5787  0.5612  0.0976
   72MOL   C15831540   6.371   4.006   6.077  0.4693 -0.6126 -0.2475
   72MOL   C15931541   6.513   3.952   6.058 -0.3602 -0.5017  0.9936
   72MOL   C16031542   6.595   3.982   6.179  0.2031  1.3611  0.4217
   72MOL   C16131543   6.529   3.883   6.290  0.1231 -0.4081  0.0260
   72MOL   C16231544   6.382   3.922   6.315  0.2525  0.3025 -1.0826
   72MOL   C16331545   6.114   4.114   6.211 -0.2335 -0.0146  0.4415
   72MOL   H16431546   6.109   3.933   6.099 -0.4420  1.5609 -0.3641
   72MOL   H16531547   6.299   3.825   6.139  0.8633  1.2679 -1.3278
   72MOL   H16631548   6.318   4.011   5.982  2.0873  3.3105 -1.0599
   72MOL   H16731549   6.377   4.112   6.104 -0.0497 -0.2246 -1.5971
   72MOL   H16831550   6.529   3.846   6.039  2.2982 -0.2654  1.6313
   72MOL   H16931551   6.561   4.020   5.987  0.0300  0.4188  2.1363
   72MOL   H17031552   6.578   4.085   6.210  0.5364  1.7406 -0.6301
   72MOL   H17131553   6.701   3.958   6.168  0.1712  1.5125 -0.2418
   72MOL   H17231554   6.584   3.914   6.379 -0.5413  0.2009  0.2292
   72MOL   H17331555   6.538   3.776   6.275  1.6310 -0.8198  3.3395
   72MOL   H17431556   6.322   3.854   6.375  0.5049  2.7747  2.1200
   72MOL   H17531557   6.375   4.017   6.369  1.4965 -0.9706  1.4501
   72MOL   H17631558   6.199   4.175   6.182 -0.3796 -0.3037 -0.6253
   72MOL   H17731559   6.102   4.143   6.315 -2.0357 -0.9423  0.5190
   72MOL   C17831560   5.989   4.162   6.137  0.0562 -0.3858 -0.0053
   72MOL   C17931561   5.932   4.301   6.194 -0.1533 -0.5034 -0.0383
   72MOL   C18031562   6.038   4.409   6.216  0.0743  0.2716  0.0979
   72MOL   C18131563   5.992   4.533   6.286  0.2149 -0.0986 -0.3002
   72MOL   C18231564   5.902   4.498   6.408  0.1638  0.1227 -0.4866
   72MOL   C18331565   5.787   4.393   6.372 -0.1574 -0.6712 -0.0635
   72MOL   C18431566   5.855   4.269   6.319 -0.5539  0.9091  0.4170
   72MOL   C18531567   6.016   4.171   5.982  0.0721 -0.2781  0.2235
   72MOL   H18631568   5.917   4.080   6.143 -0.6724  0.0542 -2.3854
   72MOL   H18731569   5.861   4.325   6.115 -0.8631  1.1571  1.0715
   72MOL   H18831570   6.123   4.371   6.274  1.2788 -0.5625 -2.1472
   72MOL   H18931571   6.083   4.425   6.118  1.4415  1.0490  0.8373
   72MOL   H19031572   5.933   4.604   6.228 -0.1844  0.6558  1.0130
   72MOL   H19131573   6.079   4.589   6.320 -0.4531  0.5381  0.3706
   72MOL   H19231574   5.970   4.451   6.479 -0.0918 -1.4159 -1.2218
   72MOL   H19331575   5.866   4.589   6.456 -1.6848 -0.5005 -0.6476
   72MOL   H19431576   5.710   4.432   6.305 -0.9645 -1.2102  0.5360
   72MOL   H19531577   5.735   4.361   6.463  1.1910  0.4848  1.1240
   72MOL   H19631578   5.912   4.218   6.397  0.0431  0.5727 -0.2343
   72MOL   H19731579   5.779   4.193   6.302 -0.1646  0.7741 -0.7499
   72MOL   H19831580   6.088   4.251   5.966  0.2862 -0.5250 -0.0538
   72MOL   H19931581   6.059   4.074   5.954 -2.1480 -1.1939 -0.1523
   72MOL   C20031582   5.917   4.212   5.873 -0.3721 -0.4972  0.7887
   72MOL   C20131583   5.776   4.135   5.847  0.3337  0.2694 -0.5004
   72MOL   C20231584   5.798   3.979   5.850 -0.2548  0.1282 -0.2602
   72MOL   C20331585   5.663   3.910   5.815 -0.0988 -0.0554 -0.2569
   72MOL   C20431586   5.568   3.940   5.927  0.2684 -0.2381  0.0927
   72MOL   C20531587   5.537   4.094   5.931  0.6000 -0.5480  0.1133
   72MOL   C20631588   5.667   4.175   5.949 -0.1854 -0.0929 -0.0448
   72MOL   C20731589   5.900   4.370   5.849 -0.2877  0.0042  0.0131
   72MOL   H20831590   5.971   4.182   5.783  1.0792  0.4037  1.3567
   72MOL   H20931591   5.753   4.161   5.744 -1.7220 -4.4912 -1.3506
   72MOL   H21031592   5.835   3.944   5.946 -0.5883  1.4658  0.3621
   72MOL   H21131593   5.867   3.944   5.773 -0.0033  3.0756 -1.4504
   72MOL   H21231594   5.633   3.948   5.718 -1.3587 -0.6030 -0.0926
   72MOL   H21331595   5.669   3.802   5.799  0.2821 -0.1696  0.6300
   72MOL   H21431596   5.481   3.874   5.930 -0.5091  0.7659 -0.1489
   72MOL   H21531597   5.608   3.903   6.022 -3.1034 -2.2733  0.8307
   72MOL   H21631598   5.482   4.128   5.843  0.4297 -0.1002  0.3943
   72MOL   H21731599   5.464   4.115   6.009  0.6116  3.4686 -0.8507
   72MOL   H21831600   5.645   4.281   5.957 -1.7863 -0.2862 -1.4512
   72MOL   H21931601   5.697   4.141   6.048 -4.0946 -3.3547  0.1629
   72MOL   H22031602   5.794   4.392   5.855 -0.5419 -1.0144 -0.6116
   72MOL   H22131603   5.932   4.431   5.933  0.8075  0.5539 -0.7951
   72MOL   C22231604   5.954   4.424   5.712  0.3822  0.7644 -0.7351
   72MOL   C22331605   5.881   4.545   5.657 -0.2476 -0.2530  0.4044
   72MOL   C22431606   5.901   4.567   5.513 -0.2979 -0.3457  0.0425
   72MOL   C22531607   5.780   4.647   5.458  0.5423 -0.0639  0.3259
   72MOL   C22631608   5.755   4.776   5.540 -0.1356 -0.6022  0.1488
   72MOL   C22731609   5.751   4.755   5.692 -0.0456  0.9943 -0.0665
   72MOL   C22831610   5.877   4.677   5.739  0.0945  0.1675 -0.4663
   72MOL   C22931611   6.106   4.441   5.714  0.1239 -0.1846 -0.7811
   72MOL   H23031612   5.933   4.341   5.644  1.7951 -1.8206  1.8619
   72MOL   H23131613   5.780   4.504   5.659 -0.3631 -0.0216 -0.8267
   72MOL   H23231614   5.997   4.616   5.497 -0.7911 -0.1125 -2.3907
   72MOL   H23331615   5.903   4.477   5.453  0.7737  1.1003 -2.1616
   72MOL   H23431616   5.688   4.590   5.445  1.3897 -1.5406  0.6530
   72MOL   H23531617   5.810   4.680   5.358 -0.6665 -2.4862 -0.8797
   72MOL   H23631618   5.849   4.829   5.526 -0.8039  0.3462 -0.8402
   72MOL   H23731619   5.673   4.838   5.504 -0.8762 -1.7290 -0.1272
   72MOL   H23831620   5.665   4.694   5.717 -0.1356  1.0748 -0.1781
   72MOL   H23931621   5.736   4.853   5.737 -2.4526  0.4352  0.4261
   72MOL   H24031622   5.971   4.730   5.728  0.1450 -0.3290 -2.7289
   72MOL   H24131623   5.867   4.661   5.846  5.7430 -4.0558 -0.3690
   72MOL   H24231624   6.141   4.482   5.809 -0.6642  2.7190 -1.6947
   72MOL   H24331625   6.132   4.524   5.649 -0.7203  4.1669  4.0934
   72MOL   C24431626   6.200   4.324   5.677 -0.6124  0.6860 -0.6147
   72MOL   C24531627   6.351   4.353   5.699  0.2917  0.5094 -0.4945
   72MOL   C24631628   6.395   4.363   5.853 -0.2316  0.1793  0.2032
   72MOL   C24731629   6.534   4.383   5.884 -0.6183 -0.1286 -0.0831
   72MOL   C24831630   6.571   4.512   5.804  0.3914 -0.1186 -0.1466
   72MOL   C24931631   6.547   4.502   5.650 -0.1759  0.3092  0.0235
   72MOL   C25031632   6.396   4.475   5.614  0.2861  0.6802 -0.9644
   72MOL   C25131633   6.178   4.275   5.532  0.0272  0.5405  0.7496
   72MOL   H25231634   6.169   4.238   5.736  0.6787  0.7296  0.1658
   72MOL   H25331635   6.407   4.263   5.675 -0.0239  0.4848 -1.1377
   72MOL   H25431636   6.363   4.274   5.907  0.0645 -1.0706 -1.6079
   72MOL   H25531637   6.343   4.445   5.902  1.4614  1.1320  0.4445
   72MOL   H25631638   6.556   4.400   5.989  0.4918 -1.6189 -0.0645
   72MOL   H25731639   6.596   4.298   5.856  1.3817  0.6595  1.8926
   72MOL   H25831640   6.519   4.597   5.849 -0.1134 -1.1860  1.3238
   72MOL   H25931641   6.676   4.535   5.820  0.8966 -1.6714 -1.0950
   72MOL   H26031642   6.620   4.434   5.608  0.8364  2.7296 -2.3083
   72MOL   H26131643   6.580   4.597   5.609  0.7467 -0.0815 -0.1489
   72MOL   H26231644   6.332   4.563   5.629  0.2298  0.8065 -1.8632
   72MOL   H26331645   6.387   4.461   5.506  3.3564 -0.7592 -1.0712
   72MOL   H26431646   6.185   4.353   5.457  0.2333  0.1791  0.3967
   72MOL   H26531647   6.076   4.237   5.534  0.8311 -1.6544  1.1867
   72MOL   C26631648   6.251   4.154   5.480  0.3310  1.2806  0.0165
   72MOL   C26731649   6.235   4.034   5.581 -0.7547 -0.6466  0.0124
   72MOL   C26831650   6.346   3.928   5.568 -0.3599 -0.1533  0.3803
   72MOL   C26931651   6.349   3.820   5.675 -0.0957  0.0354 -0.2034
   72MOL   C27031652   6.219   3.745   5.666 -0.1759 -0.5778  0.9117
   72MOL   C27131653   6.096   3.836   5.686 -0.5141 -0.4139  0.6346
   72MOL   C27231654   6.107   3.957   5.597 -0.3191 -0.4493  0.0230
   72MOL   C27331655   6.198   4.119   5.332  0.3003  0.3088 -0.4337
   72MOL   H27431656   6.359   4.170   5.473  0.2884  1.2056 -0.8390
   72MOL   H27531657   6.261   4.074   5.680 -0.4249  1.2951 -0.8242
   72MOL   H27631658   6.341   3.880   5.470  2.9259 -0.6382  0.3941
   72MOL   H27731659   6.439   3.985   5.568  0.2810 -1.1892 -0.2843
   72MOL   H27831660   6.345   3.868   5.773 -0.0033 -1.0754  0.3586
   72MOL   H27931661   6.429   3.746   5.670  1.5173  1.7365  0.0585
   72MOL   H28031662   6.208   3.705   5.565  0.0590 -1.3283  1.1779
   72MOL   H28131663   6.226   3.662   5.737  1.5167 -1.8421 -0.6956
   72MOL   H28231664   6.096   3.872   5.789 -2.0135 -0.4882  0.6735
   72MOL   H28331665   6.005   3.776   5.673 -1.1966  0.6654  0.3165
   72MOL   H28431666   6.039   4.031   5.638  1.5577  0.5354  1.4113
   72MOL   H28531667   6.070   3.932   5.497  0.5953 -1.6975 -0.0180
   72MOL   H28631668   6.089   4.117   5.333  0.3022 -2.7174 -0.5505
   72MOL   H28731669   6.207   4.013   5.307 -1.2118 -0.0732  0.5909
   72MOL   C28831670   6.260   4.213   5.229 -1.1559 -0.2460  1.2200
   72MOL   C28931671   6.168   4.229   5.102 -0.4575 -0.1584 -0.6687
   72MOL   C29031672   6.143   4.095   5.026 -0.0051  0.3731  0.1223
   72MOL   C29131673   6.047   4.108   4.911  0.5970  0.6756 -0.7405
   72MOL   C29231674   5.924   4.190   4.949  0.2881 -0.2846 -0.7372
   72MOL   C29331675   5.960   4.333   4.994  0.6010  1.0374  0.1550
   72MOL   C29431676   6.047   4.317   5.125  0.0674  0.0465 -0.7049
   72MOL   C29531677   6.409   4.162   5.197 -0.0727  0.5575 -0.0492
   72MOL   H29631678   6.277   4.314   5.267  0.0194  0.0384  0.0120
   72MOL   H29731679   6.229   4.289   5.035 -0.5903 -0.8755 -1.4459
   72MOL   H29831680   6.235   4.053   4.985 -0.0503  0.7617 -0.3835
   72MOL   H29931681   6.110   4.023   5.101  0.6045 -0.5348 -0.4739
   72MOL   H30031682   6.105   4.134   4.823  0.0172 -1.4398 -1.7960
   72MOL   H30131683   6.005   4.011   4.883 -0.7197  1.2581 -0.8245
   72MOL   H30231684   5.871   4.126   5.020 -1.6862  0.5337 -1.4660
   72MOL   H30331685   5.872   4.216   4.857  1.3097  0.3082 -1.1534
   72MOL   H30431686   5.870   4.395   4.993  0.7170  1.2303  1.0241
   72MOL   H30531687   6.023   4.378   4.917 -0.4077  3.6404  0.7771
   72MOL   H30631688   5.985   4.283   5.208  0.0048 -0.7832 -1.0849
   72MOL   H30731689   6.077   4.415   5.162  1.4752 -0.9552  0.8736
   72MOL   H30831690   6.455   4.160   5.296  0.4354  2.9022 -0.2014
   72MOL   H30931691   6.414   4.056   5.171 -1.4380  0.9792 -2.1471
   72MOL   C31031692   6.498   4.245   5.103  0.3833  0.1749 -0.1885
   72MOL   C31131693   6.614   4.325   5.149 -0.7677 -0.6251  0.1696
   72MOL   C31231694   6.568   4.438   5.238  1.0721  0.8985  0.0147
   72MOL   C31331695   6.687   4.525   5.265 -0.5584 -0.6339 -0.9379
   72MOL   C31431696   6.795   4.455   5.342 -0.4988  0.1877  0.0253
   72MOL   C31531697   6.846   4.328   5.266 -1.2891 -0.0786 -0.2176
   72MOL   C31631698   6.721   4.242   5.226  0.2287 -0.8380  0.3634
   72MOL   C31731699   6.539   4.149   4.990  0.1740  0.3411  0.0458
   72MOL   H31831700   6.438   4.318   5.049 -0.7423  0.3792  1.3279
   72MOL   H31931701   6.648   4.379   5.061  2.1326 -1.4172  0.7540
   72MOL   H32031702   6.495   4.498   5.184 -1.0553 -2.0261 -0.4882
   72MOL   H32131703   6.526   4.390   5.327  1.5144  2.2657  0.9692
   72MOL   H32231704   6.647   4.614   5.315  1.3105 -1.0681  1.3983
   72MOL   H32331705   6.733   4.567   5.176 -2.8952 -0.1382 -1.9413
   72MOL   H32431706   6.877   4.522   5.367  0.7184 -1.5443  0.8115
   72MOL   H32531707   6.772   4.426   5.444 -0.1659 -3.7198 -0.8975
   72MOL   H32631708   6.911   4.350   5.181  1.1017 -2.3352  0.9362
   72MOL   H32731709   6.907   4.263   5.329  0.2162  2.7122  1.2806
   72MOL   H32831710   6.679   4.198   5.315 -2.6530 -1.2025 -1.1285
   72MOL   H32931711   6.745   4.156   5.164  0.1924 -1.5571  1.3463
   72MOL   H33031712   6.449   4.097   4.958 -1.0148  3.7298 -2.3509
   72MOL   H33131713   6.605   4.071   5.029 -0.5409 -1.0703 -1.5184
   72MOL   C33231714   6.611   4.202   4.862  0.2448 -0.2370 -0.2517
   72MOL   C33331715   6.531   4.308   4.778  0.6892 -0.4108  0.5703
   72MOL   C33431716   6.398   4.259   4.717 -0.2196 -0.6664 -0.1188
   72MOL   C33531717   6.326   4.383   4.650 -0.0565 -0.3273  0.0640
   72MOL   C33631718   6.421   4.442   4.544  0.4920  0.1763  0.0876
   72MOL   C33731719   6.553   4.489   4.610 -0.2412  0.2298  0.3258
   72MOL   C33831720   6.628   4.376   4.680  0.3327  0.2034  0.0914
   72MOL   C33931721   6.666   4.074   4.790 -0.0543 -0.0040 -0.0341
   72MOL   H34031722   6.699   4.256   4.896 -0.6733  1.2586 -0.2014
   72MOL   H34131723   6.491   4.382   4.849 -0.9046 -0.5321 -0.1748
   72MOL   H34231724   6.414   4.180   4.643 -1.8354  0.1233 -1.3301
   72MOL   H34331725   6.335   4.208   4.790 -0.2186  0.4835  0.6974
   72MOL   H34431726   6.233   4.367   4.597 -0.8757  2.4735  0.5414
   72MOL   H34531727   6.307   4.470   4.713 -1.0313 -1.5592  1.4927
   72MOL   H34631728   6.430   4.376   4.458  0.9672  3.3989 -2.4583
   72MOL   H34731729   6.373   4.528   4.497  0.9740 -0.2882 -1.3015
   72MOL   H34831730   6.534   4.566   4.684  1.0486  1.0039 -0.1323
   72MOL   H34931731   6.626   4.524   4.537  1.0408 -1.7139  0.6598
   72MOL   H35031732   6.723   4.412   4.718  1.0789 -0.9752 -0.5939
   72MOL   H35131733   6.661   4.300   4.609 -1.2711  1.6015 -2.2181
   72MOL   H35231734   6.601   4.051   4.705 -0.8993 -1.9081  1.1009
   72MOL   H35331735   6.658   3.986   4.854  1.2108  2.0321  3.0349
   72MOL   C35431736   6.818   4.078   4.749  0.2436 -0.0637 -0.6933
   72MOL   C35531737   6.854   3.997   4.619  0.2696  0.2192 -0.1290
   72MOL   C35631738   6.795   4.057   4.491  0.5641  0.3356 -0.0113
   72MOL   C35731739   6.840   3.988   4.369  0.1516 -0.0441 -0.0386
   72MOL   C35831740   6.798   3.837   4.382  0.0249  0.2484  0.4752
   72MOL   C35931741   6.862   3.766   4.499  0.6530 -0.0214  0.0964
   72MOL   C36031742   6.821   3.840   4.630 -0.2774 -0.6702  0.1590
   72MOL   C36131743   6.895   4.045   4.875  0.9549  0.3404 -0.2754
   72MOL   H36231744   6.838   4.184   4.733 -2.7643  0.8017  0.8698
   72MOL   H36331745   6.961   3.997   4.603  0.7596 -1.4899  2.7393
   72MOL   H36431746   6.826   4.162   4.485 -0.0050  0.7676  3.5725
   72MOL   H36531747   6.687   4.070   4.497  0.4020 -0.3575 -1.2357
   72MOL   H36631748   6.806   4.049   4.286 -1.5208  0.2430  0.8369
   72MOL   H36731749   6.948   3.977   4.377  0.6391  4.0455  0.2059
   72MOL   H36831750   6.690   3.831   4.397  0.2466 -1.7669  1.3718
   72MOL   H36931751   6.828   3.788   4.289 -0.9664 -1.6883  1.1559
   72MOL   H37031752   6.820   3.665   4.504 -0.3834  0.4562  1.5089
   72MOL   H37131753   6.966   3.765   4.468  0.5459 -1.8603 -0.2753
   72MOL   H37231754   6.865   3.787   4.714 -2.3517  2.0962  3.1242
   72MOL   H37331755   6.716   3.826   4.658 -0.6055 -2.5367 -1.7861
   72MOL   H37431756   6.865   3.947   4.912 -2.7018  0.9351 -1.4618
   72MOL   H37531757   6.855   4.110   4.953  1.0064  0.6626 -0.5198
   72MOL   C37631758   7.054   4.062   4.870 -0.0682  0.1278 -0.5332
   72MOL   C37731759   7.101   4.204   4.827  0.3345  0.1590 -0.4607
   72MOL   C37831760   7.256   4.204   4.819 -0.0270 -0.0966  0.3305
   72MOL   C37931761   7.321   4.333   4.762  0.0539 -0.3968  0.3482
   72MOL   C38031762   7.273   4.455   4.849 -0.6184 -0.3906  0.3196
   72MOL   C38131763   7.121   4.460   4.860  0.0760  0.3104  0.2011
   72MOL   C38231764   7.058   4.327   4.921  0.3321  0.8953  0.1992
   72MOL   C38331765   7.116   4.009   5.003 -0.4437 -0.9307 -0.3167
   72MOL   H38431766   7.091   3.994   4.794  1.1826  0.9881 -0.7181
   72MOL   H38531767   7.067   4.223   4.725  2.1837  1.5132 -0.8663
   72MOL   H38631768   7.291   4.197   4.921  1.3438  0.0289 -0.1202
   72MOL   H38731769   7.290   4.118   4.760 -2.1340 -0.4953 -0.3515
   72MOL   H38831770   7.284   4.338   4.660  1.0292  2.5773  0.1050
   72MOL   H38931771   7.430   4.330   4.755 -0.1190 -2.1397 -2.1281
   72MOL   H39031772   7.318   4.446   4.948  0.2732  0.0675 -0.0395
   72MOL   H39131773   7.311   4.540   4.792 -2.1232  0.2638  0.2569
   72MOL   H39231774   7.096   4.538   4.933 -0.3029 -0.7668  1.2432
   72MOL   H39331775   7.075   4.487   4.765 -0.7281 -1.6285  0.0248
   72MOL   H39431776   7.107   4.317   5.018 -0.7561 -1.1923  0.5541
   72MOL   H39531777   6.950   4.327   4.935  0.3117 -2.2141  0.3993
   72MOL   H39631778   7.079   4.065   5.089  0.0638  1.2904 -1.5243
   72MOL   H39731779   7.223   4.023   5.009 -0.4840 -1.0953  1.2396
   72MOL   C39831780   7.096   3.858   5.028  0.4658 -0.5894  0.0484
   72MOL   C39931781   7.226   3.778   4.980 -0.4511 -0.7310 -0.2271
   72MOL   C40031782   7.364   3.793   5.066  0.2155  0.8644  0.3845
   72MOL   C40131783   7.480   3.727   5.002  0.3208  0.4719  0.1716
   72MOL   C40231784   7.454   3.577   4.977 -0.2031 -0.0882  0.2083
   72MOL   C40331785   7.332   3.569   4.889  0.3966 -0.5890 -0.1756
   72MOL   C40431786   7.204   3.627   4.957 -0.5727  0.9932  0.0086
   72MOL   C40531787   7.059   3.809   5.173 -0.2789  1.0125  0.5090
   72MOL   H40631788   7.019   3.821   4.960 -0.2129 -1.6085  1.3414
   72MOL   H40731789   7.241   3.821   4.881 -1.9066  1.9555  0.6476
   72MOL   H40831790   7.363   3.741   5.161  0.6552 -2.1326 -1.2100
   72MOL   H40931791   7.385   3.898   5.088  1.1005  0.4903  1.3157
   72MOL   H41031792   7.568   3.739   5.065 -0.5081 -1.1141  1.6595
   72MOL   H41131793   7.517   3.771   4.909  2.3686 -0.6134  0.4489
   72MOL   H41231794   7.435   3.510   5.060 -1.3287  0.0469  0.0723
   72MOL   H41331795   7.542   3.545   4.921  0.1159 -0.5535  0.9731
   72MOL   H41431796   7.355   3.625   4.798  1.8438  1.4163  1.3996
   72MOL   H41531797   7.309   3.470   4.851 -0.6923  0.2655 -1.8614
   72MOL   H41631798   7.118   3.619   4.891 -3.3611  1.4674  3.4223
   72MOL   H41731799   7.185   3.567   5.046  0.3268 -0.0107 -0.4577
   72MOL   H41831800   7.061   3.700   5.169  0.4027  1.0675 -1.0128
   72MOL   H41931801   7.141   3.849   5.232  0.6259  0.5560 -0.4057
   72MOL   C42031802   6.920   3.851   5.226  0.0224  0.4179 -0.7367
   72MOL   C42131803   6.896   3.839   5.379  0.6778 -0.3675  0.4311
   72MOL   C42231804   6.745   3.866   5.408 -0.0634  0.0308  0.5780
   72MOL   C42331805   6.713   3.859   5.559 -0.3150  0.7302 -0.2246
   72MOL   C42431806   6.795   3.961   5.642  0.2032  0.0734  0.2457
   72MOL   C42531807   6.941   3.936   5.611 -0.9140  0.3612  0.5393
   72MOL   C42631808   6.974   3.944   5.461  0.7163  0.0387 -0.8051
   72MOL   C42731809   6.807   3.784   5.140 -0.6089  0.0980 -0.3594
   72MOL   H42831810   6.905   3.957   5.202  2.0380  1.0818  0.8227
   72MOL   H42931811   6.926   3.737   5.403 -1.9759 -1.0763  0.9562
   72MOL   H43031812   6.724   3.964   5.366  0.9261  0.4916  1.1279
   72MOL   H43131813   6.674   3.802   5.355  0.1248 -0.6716  1.1812
   72MOL   H43231814   6.606   3.866   5.579 -0.0046  0.7947  1.5421
   72MOL   H43331815   6.739   3.764   5.608  1.2075  2.6678  2.8745
   72MOL   H43431816   6.769   3.949   5.747  0.1878 -2.1378  0.0225
   72MOL   H43531817   6.770   4.060   5.605 -2.4405 -0.3870  0.7218
   72MOL   H43631818   6.979   3.844   5.654 -0.0685  0.7574  0.6573
   72MOL   H43731819   7.004   4.009   5.663 -0.7870  0.6690 -0.0445
   72MOL   H43831820   6.957   4.046   5.426  1.0549  1.4748  2.9935
   72MOL   H43931821   7.080   3.928   5.439  0.4273  0.4148 -2.5780
   72MOL   H44031822   6.779   3.692   5.192 -0.4143  1.5702  2.4092
   72MOL   H44131823   6.731   3.861   5.126 -1.4923 -0.9636 -1.6115
   72MOL   H44231824   6.833   3.759   5.037 -1.6987  2.6280 -1.2732
   73MOL     C131825   7.700   6.714   6.105 -1.0283  0.4595 -0.3000
   73MOL     C231826   7.697   6.856   6.166 -0.5417  0.6017 -0.2647
   73MOL     C331827   7.606   6.951   6.076  0.4585  1.1258 -0.6457
   73MOL     C431828   7.604   7.090   6.140 -0.2593 -0.1292 -0.0675
   73MOL     C531829   7.744   7.148   6.154 -0.0954  0.3191 -0.6446
   73MOL     C631830   0.060   7.065   6.252  0.6496  0.5164  0.1684
   73MOL     C731831   0.065   6.925   6.187 -0.0270 -0.0144  0.0002
   73MOL     C831832   0.010   6.613   6.194  0.3556 -0.8653  0.2453
   73MOL     H931833   7.595   6.685   6.100 -0.7853 -0.5782  0.5622
   73MOL    H1031834   7.646   6.852   6.262 -0.1129 -3.3379 -0.1098
   73MOL    H1131835   7.648   6.971   5.977 -0.6763 -1.8055 -1.7815
   73MOL    H1231836   7.505   6.913   6.062  1.2659 -1.3598  0.0980
   73MOL    H1331837   7.546   7.087   6.233 -0.4939  0.8389 -0.1762
   73MOL    H1431838   7.540   7.161   6.087  2.2766  2.8607  0.7508
   73MOL    H1531839   7.745   7.247   6.200  1.6589  0.4595 -0.9733
   73MOL    H1631840   0.018   7.150   6.055 -0.0908  0.1540 -0.6469
   73MOL    H1731841   0.160   7.101   6.277 -0.1845  1.1924  2.6135
   73MOL    H1831842   0.005   7.065   6.345  0.6138 -0.5297  0.1488
   73MOL    H1931843   0.131   6.865   6.250  0.6064 -1.1858 -1.7224
   73MOL    H2031844   0.113   6.927   6.089  0.8986  0.6069  0.4445
   73MOL    H2131845   7.752   6.640   6.296  0.3365 -1.2831  0.3531
   73MOL    H2231846   0.117   6.633   6.197  0.3226 -0.7443  0.8205
   73MOL    H2331847   7.754   6.712   6.011  3.4865  0.0569  2.1762
   73MOL    C2431848   7.750   6.459   6.169 -0.7982  0.2541 -0.3307
   73MOL    C2531849   7.604   6.404   6.211  0.4649 -0.5314 -0.6379
   73MOL    C2631850   7.552   6.467   6.346 -0.5905  1.4142  0.3061
   73MOL    C2731851   7.403   6.421   6.371  0.3019 -0.1031 -0.0843
   73MOL    C2831852   7.394   6.269   6.369  0.7749  0.0278 -0.5021
   73MOL    C2931853   7.456   6.195   6.251  0.1587 -0.5799 -0.0006
   73MOL    C3031854   7.594   6.249   6.219 -0.3301 -0.2308  0.1692
   73MOL    C3131855   0.022   6.425   6.022  0.6130 -0.4508 -0.0702
   73MOL    H3231856   0.042   6.413   6.243 -0.5227 -0.0968 -0.7836
   73MOL    H3331857   7.530   6.440   6.139  1.9790  0.5284 -1.7038
   73MOL    H3431858   7.559   6.576   6.341  1.9579  1.1578 -2.4521
   73MOL    H3531859   7.620   6.451   6.430  1.1174 -1.7990 -1.5766
   73MOL    H3631860   7.362   6.459   6.464  1.0515 -2.6360  1.3112
   73MOL    H3731861   7.333   6.464   6.299  1.4047  0.5763 -0.7681
   73MOL    H3831862   7.294   6.231   6.391  2.1255 -2.8227  1.0500
   73MOL    H3931863   7.442   6.239   6.463 -1.2201  0.7291  0.7757
   73MOL    H4031864   7.452   6.087   6.244 -1.2563 -0.4944 -0.6190
   73MOL    H4131865   7.393   6.234   6.172 -1.7675 -0.6996  1.4500
   73MOL    H4231866   7.669   6.218   6.292  0.9740  1.6397 -0.3491
   73MOL    H4331867   7.629   6.202   6.127  2.3955 -0.3961  1.2544
   73MOL    H4431868   7.726   6.480   5.957 -0.7983 -1.0617  0.8783
   73MOL    H4531869   7.767   6.324   5.991  0.1639 -0.8651  1.6288
   73MOL    C4631870   0.173   6.435   5.985 -0.0124 -0.4508  0.0169
   73MOL    C4731871   0.201   6.441   5.829  0.6024  0.5904  0.0299
   73MOL    C4831872   0.176   6.584   5.776  0.3712  0.4416  0.1702
   73MOL    C4931873   0.199   6.609   5.627 -0.6840  0.5144  0.0732
   73MOL    C5031874   0.124   6.501   5.542  0.0359 -0.7707 -0.2241
   73MOL    C5131875   0.163   6.358   5.601  0.4311  0.1488 -0.1265
   73MOL    C5231876   0.124   6.333   5.747 -0.4301 -0.3355 -0.1099
   73MOL    C5331877   0.243   6.324   6.064  0.0818  0.5730 -0.5745
   73MOL    H5431878   0.202   6.530   6.028 -2.3245  0.5181 -0.4713
   73MOL    H5531879   0.306   6.424   5.806  0.5788 -0.6825  0.7974
   73MOL    H5631880   0.071   6.608   5.792  0.4099 -0.4996  2.0145
   73MOL    H5731881   0.226   6.659   5.837 -1.2941 -0.0202  2.1644
   73MOL    H5831882   0.304   6.591   5.606 -0.7490  0.7399 -0.4421
   73MOL    H5931883   0.177   6.713   5.604 -0.8076  0.1445 -1.5045
   73MOL    H6031884   0.016   6.513   5.554  0.4531  1.4217  1.8142
   73MOL    H6131885   0.147   6.490   5.436  0.0396  0.0308 -0.3095
   73MOL    H6231886   0.270   6.347   5.585  0.7167  1.0783  1.1408
   73MOL    H6331887   0.117   6.274   5.547  2.4758 -1.0547 -0.0352
   73MOL    H6431888   0.015   6.340   5.747 -0.3881  0.3654 -1.0982
   73MOL    H6531889   0.147   6.232   5.781 -0.6556  0.7269  3.4877
   73MOL    H6631890   0.200   6.228   6.035  0.7762  1.1406 -3.6447
   73MOL    H6731891   0.216   6.340   6.169  1.3444  0.5822 -0.2462
   73MOL    C6831892   0.392   6.319   6.047  0.4632  0.7455 -0.1363
   73MOL    C6931893   0.467   6.455   6.091  0.6201  0.0591 -0.3285
   73MOL    C7031894   0.444   6.502   6.238  0.0939  0.0675  0.1871
   73MOL    C7131895   0.507   6.639   6.266 -0.0926 -0.8042 -0.0020
   73MOL    C7231896   0.651   6.636   6.230 -0.0568  0.2679  0.0908
   73MOL    C7331897   0.677   6.602   6.086 -0.0042  0.7294 -0.0237
   73MOL    C7431898   0.612   6.465   6.050 -0.3198 -0.7467 -0.0020
   73MOL    C7531899   0.460   6.197   6.121 -0.3269 -0.8136  0.9131
   73MOL    H7631900   0.413   6.296   5.943  0.6892 -5.4741  1.0791
   73MOL    H7731901   0.412   6.527   6.031 -2.1055 -0.1444  1.8200
   73MOL    H7831902   0.462   6.424   6.311  0.1691 -0.4548 -0.3846
   73MOL    H7931903   0.336   6.520   6.247  0.2765  2.1646 -1.4674
   73MOL    H8031904   0.446   6.704   6.202  2.6551  1.6712 -0.2402
   73MOL    H8131905   0.494   6.684   6.364 -0.1115  0.7788 -0.7092
   73MOL    H8231906   0.699   6.561   6.293  1.3963  1.8335  0.8687
   73MOL    H8331907   0.682   6.737   6.258 -1.6880  0.3144  1.8406
   73MOL    H8431908   0.786   6.596   6.084 -0.0314  0.7083 -2.1329
   73MOL    H8531909   0.647   6.678   6.013  0.8479  1.1887  0.0975
   73MOL    H8631910   0.662   6.384   6.103 -0.6552 -1.6411 -1.0470
   73MOL    H8731911   0.625   6.447   5.944 -1.6332 -1.1113 -0.1018
   73MOL    H8831912   0.502   6.236   6.214  2.4174  0.1783 -0.6887
   73MOL    H8931913   0.377   6.136   6.157 -1.7058  0.3235 -0.2986
   73MOL    C9031914   0.566   6.108   6.040  0.1921  0.1467 -0.4589
   73MOL    C9131915   0.668   6.032   6.137  0.4983 -0.2748 -0.0688
   73MOL    C9231916   0.770   6.120   6.210  0.2375  0.6436  0.5654
   73MOL    C9331917   0.862   6.036   6.306  0.5546 -0.2366  0.4625
   73MOL    C9431918   0.778   5.971   6.413  0.5242 -0.3593  0.0341
   73MOL    C9531919   0.668   5.882   6.343  0.2107 -0.3969  0.0219
   73MOL    C9631920   0.579   5.959   6.238 -0.7593 -0.3684  0.6548
   73MOL    C9731921   0.503   6.003   5.941 -0.0333 -0.6097  0.3091
   73MOL    H9831922   0.619   6.181   5.979  0.6673  1.0653  1.0427
   73MOL    H9931923   0.710   5.964   6.063 -2.3024  1.8880 -3.8256
   73MOL   H10031924   0.713   6.184   6.277 -0.3260 -2.1635  2.8914
   73MOL   H10131925   0.829   6.173   6.135 -0.7772 -1.3253 -1.7181
   73MOL   H10231926   0.946   6.088   6.352  1.9497 -1.9580 -0.0495
   73MOL   H10331927   0.910   5.955   6.250 -0.0411 -0.9248  0.9291
   73MOL   H10431928   0.733   6.043   6.481  1.5432 -1.7197  2.2075
   73MOL   H10531929   0.827   5.906   6.486  0.3059  1.2498  1.6563
   73MOL   H10631930   0.724   5.794   6.310  0.3873 -0.6717  1.0251
   73MOL   H10731931   0.610   5.839   6.424 -0.0812  0.8031  0.4572
   73MOL   H10831932   0.506   5.896   6.187 -1.3522  1.1044 -0.3476
   73MOL   H10931933   0.527   6.037   6.294  0.6425  0.9765  0.1091
   73MOL   H11031934   0.461   5.916   5.992 -0.0786 -1.4669 -1.1919
   73MOL   H11131935   0.420   6.054   5.894  1.8225  0.9237 -1.3679
   73MOL   C11231936   0.588   5.946   5.824 -0.0283 -0.1088 -0.1216
   73MOL   C11331937   0.688   6.048   5.755  0.4288 -0.7850  0.1355
   73MOL   C11431938   0.617   6.157   5.681 -0.4782 -0.1319 -0.0123
   73MOL   C11531939   0.723   6.265   5.642  0.4266  0.7788  0.0278
   73MOL   C11631940   0.832   6.199   5.554  0.6630 -0.3593 -0.7886
   73MOL   C11731941   0.895   6.076   5.606  0.4447  0.0201 -0.2856
   73MOL   C11831942   0.782   5.980   5.657  0.4659  0.1126 -0.2000
   73MOL   C11931943   0.501   5.860   5.727 -0.5982 -0.4830  0.2115
   73MOL   H12031944   0.661   5.880   5.871 -0.4444  1.0743  2.2709
   73MOL   H12131945   0.742   6.105   5.832 -1.0470  0.1562  0.4838
   73MOL   H12231946   0.547   6.209   5.746 -0.4045  2.4810 -1.9180
   73MOL   H12331947   0.568   6.112   5.595 -1.4120 -1.2982  1.1131
   73MOL   H12431948   0.680   6.351   5.592  1.5694  1.4439  0.1782
   73MOL   H12531949   0.767   6.300   5.736 -3.3573  2.0201  1.4251
   73MOL   H12631950   0.774   6.178   5.464  0.1288  0.7405 -0.7052
   73MOL   H12731951   0.914   6.263   5.519 -0.3094  1.3019 -0.0681
   73MOL   H12831952   0.953   6.023   5.531  2.7219 -0.5523  1.7861
   73MOL   H12931953   0.956   6.103   5.692 -1.4888 -0.4144  1.2781
   73MOL   H13031954   0.837   5.912   5.723 -0.3902 -0.2112  0.1768
   73MOL   H13131955   0.735   5.922   5.578  0.4856  2.1942 -1.7953
   73MOL   H13231956   0.554   5.830   5.637 -1.7507 -1.5120 -0.1414
   73MOL   H13331957   0.420   5.919   5.683 -1.8014 -1.1940  1.4168
   73MOL   C13431958   0.422   5.736   5.779 -0.7590  0.5884 -0.1408
   73MOL   C13531959   0.521   5.635   5.852 -0.5559 -0.2043 -0.3537
   73MOL   C13631960   0.628   5.570   5.751  0.1339  0.1580 -0.2619
   73MOL   C13731961   0.733   5.494   5.822  0.1255 -0.1944 -0.6309
   73MOL   C13831962   0.679   5.387   5.921  0.2804  0.0823 -0.2541
   73MOL   C13931963   0.577   5.455   6.019  0.2480 -0.1392 -0.0139
   73MOL   C14031964   0.463   5.527   5.945  0.6687 -0.4953 -0.4560
   73MOL   C14131965   0.333   5.682   5.670  0.3305  0.1180  0.0060
   73MOL   H14231966   0.355   5.773   5.857 -0.2532 -0.1612  0.6588
   73MOL   H14331967   0.579   5.699   5.919 -0.2029  0.7834 -1.5891
   73MOL   H14431968   0.580   5.500   5.682 -0.1209 -0.9845  1.0500
   73MOL   H14531969   0.670   5.658   5.703 -1.0261  0.3773 -0.8989
   73MOL   H14631970   0.796   5.554   5.888  0.2738 -0.2179 -0.7538
   73MOL   H14731971   0.793   5.449   5.744 -0.1568  0.0767 -1.0056
   73MOL   H14831972   0.609   5.321   5.870  0.1811 -2.0802  2.5462
   73MOL   H14931973   0.755   5.335   5.979  0.3658  1.2035  0.6742
   73MOL   H15031974   0.621   5.530   6.084 -1.8329  0.4113  0.7923
   73MOL   H15131975   0.533   5.381   6.086  0.5395  2.2623  2.8897
   73MOL   H15231976   0.401   5.466   5.879 -1.0463 -0.1567  0.7991
   73MOL   H15331977   0.380   5.570   6.002  0.8644  1.3617 -1.5268
   73MOL   H15431978   0.372   5.596   5.616 -1.2582  0.5003 -1.7841
   73MOL   H15531979   0.338   5.733   5.574  1.6754 -1.3307 -0.7188
   73MOL   C15631980   0.180   5.669   5.706 -0.6517  0.5239 -0.2592
   73MOL   C15731981   0.097   5.558   5.627  0.6797  0.1796 -0.0497
   73MOL   C15831982   0.098   5.565   5.466 -0.0022 -1.1744  0.0307
   73MOL   C15931983   0.014   5.455   5.404 -0.0173  0.0245  0.6053
   73MOL   C16031984   0.046   5.323   5.468  0.6391 -0.2668 -0.7381
   73MOL   C16131985   0.048   5.320   5.622 -0.8922 -0.4057 -0.5236
   73MOL   C16231986   0.140   5.422   5.683 -0.1826 -0.2700  0.9602
   73MOL   C16331987   0.113   5.808   5.696 -0.1321 -1.3784  0.2455
   73MOL   H16431988   0.187   5.638   5.810 -2.7603  0.5244 -0.0799
   73MOL   H16531989   7.767   5.576   5.661  0.4367 -0.3664 -0.4834
   73MOL   H16631990   0.068   5.666   5.438  0.6115 -0.9913  0.0194
   73MOL   H16731991   0.202   5.557   5.432 -0.7750  0.1717 -2.7310
   73MOL   H16831992   7.680   5.478   5.401  0.1897  1.0599  1.0802
   73MOL   H16931993   0.029   5.454   5.296  1.2300 -0.4548  0.7670
   73MOL   H17031994   0.134   5.279   5.422  2.1679  1.0077  0.8768
   73MOL   H17131995   7.739   5.260   5.428  0.2033  0.6367 -1.3025
   73MOL   H17231996   0.075   5.217   5.647  1.2670 -0.6181 -3.4611
   73MOL   H17331997   7.723   5.345   5.663 -0.2598  1.3250 -0.0241
   73MOL   H17431998   0.125   5.412   5.790  1.6202  1.0911  1.3705
   73MOL   H17531999   0.244   5.399   5.659 -0.6224 -0.1031 -1.1776
   73MOL   H17632000   0.087   5.821   5.591 -3.5391 -2.9340  0.8073
   73MOL   H17732001   0.189   5.881   5.725  0.8107 -1.9615 -0.7162
   73MOL   C17832002   7.761   5.845   5.778  0.2969 -1.1258 -0.2315
   73MOL   C17932003   0.021   5.835   5.937  0.4971  0.5604 -0.2162
   73MOL   C18032004   7.660   5.833   6.017 -0.8580  0.3269  0.2364
   73MOL   C18132005   7.680   5.817   6.164 -0.0830  0.4980  0.7031
   73MOL   C18232006   0.007   5.923   6.226 -0.1534 -0.4837  0.3505
   73MOL   C18332007   0.137   5.921   6.154 -0.1744 -0.3655 -0.2812
   73MOL   C18432008   0.110   5.952   6.004 -0.1915  0.2350 -0.0803
   73MOL   C18532009   7.710   5.988   5.740 -0.2414  0.0453  0.6037
   73MOL   H18632010   7.689   5.766   5.760 -2.3308  1.0881  0.2517
   73MOL   H18732011   0.071   5.741   5.960 -3.6671 -1.7166  0.0938
   73MOL   H18832012   7.603   5.921   5.986 -1.1720 -0.1197 -0.4647
   73MOL   H18932013   7.608   5.746   5.977 -1.2142 -0.1503  1.7009
   73MOL   H19032014   7.717   5.718   6.191 -0.6587  0.1770  0.3250
   73MOL   H19132015   7.579   5.827   6.204 -0.4055  0.5101 -0.1134
   73MOL   H19232016   7.737   6.022   6.210 -0.5590 -0.5863  0.7625
   73MOL   H19332017   0.018   5.904   6.333  1.0300 -0.1387  0.2950
   73MOL   H19432018   0.167   5.817   6.155 -0.9413 -0.5753  0.6313
   73MOL   H19532019   0.213   5.989   6.192 -2.1770  2.1077 -0.5509
   73MOL   H19632020   0.062   6.048   5.982 -3.0772 -1.0564  0.4103
   73MOL   H19732021   0.206   5.950   5.951  0.4899 -2.4731  1.1676
   73MOL   H19832022   7.727   6.059   5.820 -2.0536 -0.1308  1.1666
   73MOL   H19932023   0.002   6.014   5.655 -0.3463 -1.2316  0.1158
   73MOL   C20032024   7.556   5.992   5.697  0.3914 -0.0340 -0.2513
   73MOL   C20132025   7.497   6.132   5.690 -0.6021 -0.0024 -0.1193
   73MOL   C20232026   7.510   6.221   5.819  0.1427 -0.4136  0.2323
   73MOL   C20332027   7.434   6.354   5.798 -0.3257 -0.2067 -0.1603
   73MOL   C20432028   7.484   6.436   5.677 -0.1161 -0.1057 -0.5581
   73MOL   C20532029   7.492   6.348   5.549  0.3086  0.0339  0.1098
   73MOL   C20632030   7.570   6.218   5.576  0.2227  0.0612 -0.0682
   73MOL   C20732031   7.529   5.892   5.578 -0.6863 -0.4942  0.2907
   73MOL   H20832032   7.515   5.958   5.792 -0.0472 -2.4556 -1.2708
   73MOL   H20932033   7.392   6.123   5.660 -1.2743  0.7929  1.9191
   73MOL   H21032034   7.615   6.239   5.842  0.4918 -0.2009 -1.4201
   73MOL   H21132035   7.475   6.164   5.905  2.1240 -1.0111  0.6773
   73MOL   H21232036   7.331   6.322   5.782 -0.1840 -0.5289 -0.4451
   73MOL   H21332037   7.428   6.401   5.896 -1.4007  0.5118 -0.5475
   73MOL   H21432038   7.423   6.525   5.662  0.2168  0.2909  0.3611
   73MOL   H21532039   7.582   6.471   5.708 -0.5513  1.6475 -1.1127
   73MOL   H21632040   7.391   6.327   5.513  0.4057  0.8919 -0.6949
   73MOL   H21732041   7.541   6.393   5.462 -0.4448 -0.1773 -0.4268
   73MOL   H21832042   7.571   6.165   5.481 -1.5597  0.9824 -0.6380
   73MOL   H21932043   7.674   6.240   5.600  0.2102 -0.5689  0.5883
   73MOL   H22032044   7.582   5.937   5.494 -0.3817 -1.3459  0.0259
   73MOL   H22132045   7.581   5.797   5.565 -1.2247 -0.8874  0.9940
   73MOL   C22232046   7.380   5.856   5.561 -0.1065 -0.0423 -0.4973
   73MOL   C22332047   7.366   5.777   5.419 -0.2681  0.2076  0.5760
   73MOL   C22432048   7.227   5.798   5.349  0.5314  0.2611 -0.3036
   73MOL   C22532049   7.238   5.731   5.211 -0.0774 -0.1261  0.5488
   73MOL   C22632050   7.287   5.587   5.199  0.7849  0.3054  0.1851
   73MOL   C22732051   7.420   5.567   5.276 -0.0636 -0.1680 -0.4318
   73MOL   C22832052   7.416   5.631   5.418 -0.0376 -0.2414  0.0784
   73MOL   C22932053   7.312   5.779   5.684 -0.8859 -0.1557 -0.5256
   73MOL   H23032054   7.330   5.952   5.549  0.4914  0.3403  0.1077
   73MOL   H23132055   7.433   5.821   5.345  1.2837  1.3161  2.5829
   73MOL   H23232056   7.144   5.756   5.406  2.5617 -3.2633  0.2535
   73MOL   H23332057   7.216   5.906   5.339  2.4117  0.3629 -1.6284
   73MOL   H23432058   7.316   5.788   5.159  1.1110 -2.2510 -0.0456
   73MOL   H23532059   7.146   5.741   5.153  1.7357 -0.9209 -2.5829
   73MOL   H23632060   7.212   5.525   5.249 -1.3169  2.1220 -0.6423
   73MOL   H23732061   7.278   5.565   5.093 -0.4367  1.4227  0.0442
   73MOL   H23832062   7.500   5.612   5.216  0.4509  1.2168  1.2551
   73MOL   H23932063   7.452   5.464   5.286 -2.6361 -0.9094  0.3208
   73MOL   H24032064   7.350   5.567   5.477 -0.7276 -1.4841 -1.9998
   73MOL   H24132065   7.508   5.615   5.475 -0.7156 -0.1360  1.2190
   73MOL   H24232066   7.350   5.823   5.777  1.1081 -0.9709 -0.9229
   73MOL   H24332067   7.368   5.686   5.689  0.8393  0.8285 -1.1527
   73MOL   C24432068   7.161   5.752   5.696 -0.0871 -0.5603 -0.1689
   73MOL   C24532069   7.077   5.880   5.675 -0.4434  0.3532  0.2014
   73MOL   C24632070   7.095   5.982   5.782 -0.0807 -0.3808 -0.3517
   73MOL   C24732071   7.005   6.102   5.781  0.2143  0.5259 -0.2761
   73MOL   C24832072   6.858   6.072   5.737  0.3160 -0.1205  0.1932
   73MOL   C24932073   6.860   5.996   5.606 -0.0537 -0.1159 -0.6810
   73MOL   C25032074   6.932   5.861   5.628  0.1299 -0.4540 -0.1656
   73MOL   C25132075   7.135   5.680   5.832 -0.3819  0.4405  0.3922
   73MOL   H25232076   7.138   5.680   5.618  0.2058  0.8665 -1.6024
   73MOL   H25332077   7.111   5.921   5.580  0.5813  2.1035  1.3045
   73MOL   H25432078   7.198   6.017   5.786 -0.2868  0.1399  0.4356
   73MOL   H25532079   7.067   5.936   5.877 -2.0884 -0.6414 -1.0396
   73MOL   H25632080   6.998   6.163   5.871 -1.6352  1.4713 -1.0237
   73MOL   H25732081   7.052   6.158   5.701  0.1460  0.7980 -0.1282
   73MOL   H25832082   6.809   6.011   5.813  1.3843 -0.5263  0.5672
   73MOL   H25932083   6.798   6.163   5.747  0.1970 -0.0756 -0.8892
   73MOL   H26032084   6.927   6.052   5.540  0.1297 -0.7945 -1.0721
   73MOL   H26132085   6.759   5.990   5.566 -0.4531  1.7631 -0.0375
   73MOL   H26232086   6.883   5.798   5.702  0.1270  0.6083  0.7511
   73MOL   H26332087   6.928   5.804   5.535  0.7943  2.9227 -2.3546
   73MOL   H26432088   7.034   5.690   5.870 -0.4351  1.4394  0.0015
   73MOL   H26532089   7.176   5.736   5.916 -1.5948 -0.1060  1.3619
   73MOL   C26632090   7.186   5.529   5.849  0.8401  0.5680  0.0571
   73MOL   C26732091   7.217   5.488   5.998 -0.0612 -0.0599 -0.2647
   73MOL   C26832092   7.126   5.545   6.104 -0.0651 -0.1892 -0.3789
   73MOL   C26932093   7.174   5.504   6.246  0.2286  0.7753 -0.1091
   73MOL   C27032094   7.320   5.549   6.282 -0.7443 -0.1216  0.8817
   73MOL   C27132095   7.418   5.482   6.179 -0.8456 -0.4179  0.1308
   73MOL   C27232096   7.373   5.516   6.030 -0.0678 -0.4253  0.0233
   73MOL   C27332097   7.093   5.428   5.773 -0.3952  0.2102  0.3657
   73MOL   H27432098   7.277   5.509   5.792 -0.0559 -0.0043 -1.1880
   73MOL   H27532099   7.207   5.381   6.014  0.5940  0.2525  2.4386
   73MOL   H27632100   7.118   5.653   6.100 -3.4507 -0.4047 -0.7420
   73MOL   H27732101   7.025   5.508   6.086  0.0664  0.3659 -2.3425
   73MOL   H27832102   7.151   5.399   6.264 -0.7370  1.2805  1.6935
   73MOL   H27932103   7.110   5.552   6.320  0.5972  0.9474  0.0957
   73MOL   H28032104   7.318   5.658   6.280  0.9133 -0.1007 -0.2314
   73MOL   H28132105   7.347   5.519   6.383 -1.6228 -0.0547  1.1374
   73MOL   H28232106   7.440   5.376   6.193 -0.2045 -0.1092  1.6039
   73MOL   H28332107   7.517   5.524   6.197  0.7423 -3.1241 -1.8012
   73MOL   H28432108   7.434   5.460   5.958 -1.2640 -2.4801  0.5911
   73MOL   H28532109   7.396   5.621   6.012  3.1160 -0.9296  0.7715
   73MOL   H28632110   7.062   5.471   5.677 -0.2145  1.8073  0.9949
   73MOL   H28732111   6.995   5.438   5.821 -0.1894 -0.9538  1.0428
   73MOL   C28832112   7.119   5.270   5.773  0.2480  0.3831 -0.0097
   73MOL   C28932113   7.263   5.245   5.708 -0.0265 -0.4041 -0.5773
   73MOL   C29032114   7.323   5.107   5.743  0.4206  0.4685  0.3377
   73MOL   C29132115   7.469   5.098   5.692 -1.0562  0.3489  0.1798
   73MOL   C29232116   7.479   5.132   5.544 -0.3622 -0.4250 -0.0678
   73MOL   C29332117   7.407   5.264   5.507  0.2556  0.5810  0.3844
   73MOL   C29432118   7.269   5.277   5.561 -0.2185  0.3698 -0.3768
   73MOL   C29532119   7.013   5.178   5.723  0.3099  1.0465  0.1449
   73MOL   H29632120   7.138   5.233   5.874 -1.7352 -0.0949  0.2012
   73MOL   H29732121   7.336   5.313   5.751  0.6872 -0.5937 -1.4770
   73MOL   H29832122   7.320   5.080   5.849  1.1914 -1.2240 -0.0556
   73MOL   H29932123   7.265   5.030   5.692  0.2510  0.5879  0.3524
   73MOL   H30032124   7.538   5.167   5.741  0.7626  0.1226 -1.9608
   73MOL   H30132125   7.500   4.995   5.707 -1.6945 -0.2772 -2.4594
   73MOL   H30232126   7.413   5.055   5.503 -1.4156  1.4777 -2.0662
   73MOL   H30332127   7.573   5.118   5.491  0.0297  1.0949  0.2005
   73MOL   H30432128   7.406   5.276   5.399 -0.3314  0.0903  0.3328
   73MOL   H30532129   7.470   5.339   5.556 -1.5565  0.7942  2.4959
   73MOL   H30632130   7.198   5.222   5.499  0.5916 -0.9810 -0.1311
   73MOL   H30732131   7.240   5.380   5.540  1.5242  1.1040  0.7682
   73MOL   H30832132   7.003   5.197   5.616 -1.7180  1.4942  0.3921
   73MOL   H30932133   7.050   5.078   5.743 -2.8986  0.1799  2.1489
   73MOL   C31032134   6.873   5.184   5.794 -0.0536 -0.5245 -0.3663
   73MOL   C31132135   6.787   5.068   5.747 -0.3086 -0.2531 -0.1676
   73MOL   C31232136   6.636   5.089   5.793  0.1299  0.6598 -0.0202
   73MOL   C31332137   6.539   4.969   5.760  0.1636  0.5852  0.4793
   73MOL   C31432138   6.548   4.935   5.611 -0.0937 -1.2706  0.5458
   73MOL   C31532139   6.696   4.906   5.566 -0.1294  0.8418  1.1928
   73MOL   C31632140   6.788   5.027   5.601 -0.2284 -0.0831 -0.2760
   73MOL   C31732141   6.866   5.218   5.943  0.1912 -0.2403  0.1783
   73MOL   H31832142   6.821   5.272   5.757 -0.9453 -0.4510  1.0482
   73MOL   H31932143   6.817   4.977   5.798 -1.1747 -0.0121  0.7824
   73MOL   H32032144   6.627   5.101   5.901 -2.1593  1.6572 -0.2922
   73MOL   H32132145   6.594   5.182   5.755 -0.5573  0.7565  0.9536
   73MOL   H32232146   6.438   5.001   5.785 -0.1092 -0.3506  0.5910
   73MOL   H32332147   6.552   4.881   5.823  1.0245 -0.0457 -0.5748
   73MOL   H32432148   6.489   4.845   5.597 -1.2532 -0.5925  1.0045
   73MOL   H32532149   6.505   5.018   5.554  4.5581 -0.0176 -1.3690
   73MOL   H32632150   6.732   4.808   5.599 -3.4606 -0.3635  1.4588
   73MOL   H32732151   6.689   4.896   5.458 -0.0588  1.2312  1.1542
   73MOL   H32832152   6.781   5.114   5.535 -0.6182  2.1950  2.6895
   73MOL   H32932153   6.889   5.000   5.570  0.7251  1.6986  1.1851
   73MOL   H33032154   6.770   5.267   5.958 -0.8501 -2.2734  0.3934
   73MOL   H33132155   6.928   5.304   5.967  0.6394  0.0453 -1.9162
   73MOL   C33232156   6.882   5.110   6.052 -0.2530  0.4085  0.2841
   73MOL   C33332157   6.822   5.152   6.194  0.2400 -0.7543 -0.4785
   73MOL   C33432158   6.665   5.154   6.199  0.2558 -0.7643  0.0852
   73MOL   C33532159   6.617   5.194   6.339 -0.1401  0.1181  0.1474
   73MOL   C33632160   6.670   5.330   6.378 -1.4930 -0.2852 -0.0631
   73MOL   C33732161   6.828   5.330   6.369  0.4934 -0.0916 -0.0389
   73MOL   C33832162   6.874   5.295   6.233 -0.1095 -0.3533 -0.2987
   73MOL   C33932163   7.029   5.072   6.059 -0.4206 -0.1013 -0.2279
   73MOL   H34032164   6.828   5.024   6.014 -2.0567  0.6856  2.1105
   73MOL   H34132165   6.848   5.077   6.268  3.0160 -0.1515 -0.7803
   73MOL   H34232166   6.631   5.239   6.139  3.3012  2.2077  2.3704
   73MOL   H34332167   6.619   5.065   6.158 -0.4354 -0.3470 -0.0499
   73MOL   H34432168   6.508   5.194   6.331 -0.1212  0.1249 -0.1281
   73MOL   H34532169   6.634   5.117   6.414  2.0862  0.3904 -0.0439
   73MOL   H34632170   6.630   5.402   6.306 -1.3482  1.4184  1.5239
   73MOL   H34732171   6.644   5.355   6.481 -0.1548 -2.1882  0.7709
   73MOL   H34832172   6.882   5.272   6.443 -1.4378 -0.5582  1.0303
   73MOL   H34932173   6.855   5.434   6.389 -0.7858  0.0538  1.0297
   73MOL   H35032174   6.980   5.301   6.212 -0.0610 -0.9477 -0.2470
   73MOL   H35132175   6.839   5.375   6.168  3.7452  2.1745  0.6160
   73MOL   H35232176   7.090   5.159   6.081  0.2602 -0.8524  0.9134
   73MOL   H35332177   7.067   5.051   5.959  2.6134  0.2476  0.8012
   73MOL   C35432178   7.063   4.952   6.150 -0.0436  0.5412 -0.4109
   73MOL   C35532179   7.157   4.992   6.262 -0.2530 -0.0639  0.4096
   73MOL   C35632180   7.305   5.010   6.218 -0.7038 -0.2024 -0.1078
   73MOL   C35732181   7.387   5.067   6.337 -0.1650 -0.2791 -0.1169
   73MOL   C35832182   7.370   4.969   6.461  0.4395 -0.0427  0.4253
   73MOL   C35932183   7.223   4.976   6.500  0.3958 -0.0925  0.6065
   73MOL   C36032184   7.138   4.909   6.393 -0.2553 -0.4438 -0.9504
   73MOL   C36132185   7.104   4.834   6.066 -0.2430  0.9728 -0.1661
   73MOL   H36232186   6.972   4.914   6.195 -0.7337  2.1437 -0.3944
   73MOL   H36332187   7.119   5.087   6.298 -0.6738 -0.4650  1.0412
   73MOL   H36432188   7.320   5.068   6.127  0.3403  1.3204  0.9960
   73MOL   H36532189   7.345   4.910   6.201  0.6302  0.4479 -0.8542
   73MOL   H36632190   7.489   5.041   6.310  1.0746  1.0030  3.0872
   73MOL   H36732191   7.374   5.173   6.358 -1.7079 -0.3348 -0.7436
   73MOL   H36832192   7.393   4.865   6.438  1.6619  0.0277  1.2994
   73MOL   H36932193   7.430   4.998   6.547  4.0666  0.4503 -2.1498
   73MOL   H37032194   7.189   4.928   6.591 -1.1764 -0.0973  0.0338
   73MOL   H37132195   7.197   5.082   6.501  1.1774  0.1884 -2.4582
   73MOL   H37232196   7.033   4.910   6.424  0.3027  0.9238  1.0108
   73MOL   H37332197   7.168   4.807   6.373  3.8687  0.3690  0.6351
   73MOL   H37432198   7.177   4.770   6.116 -0.9428 -0.2434 -0.6917
   73MOL   H37532199   7.176   4.872   5.993 -0.0735  0.6389 -0.1742
   73MOL   C37632200   7.001   4.757   5.984  0.2692  0.2622  0.0667
   73MOL   C37732201   7.052   4.739   5.839  0.3237  0.6976  1.2854
   73MOL   C37832202   6.941   4.673   5.750  0.8246  0.3317  0.6349
   73MOL   C37932203   6.987   4.683   5.597  0.9516 -0.4793 -0.4359
   73MOL   C38032204   7.115   4.603   5.575  0.2075 -0.3590 -0.7093
   73MOL   C38132205   7.225   4.669   5.667  0.0241  0.1713  0.4054
   73MOL   C38232206   7.184   4.661   5.820  0.4461  0.1906  0.6093
   73MOL   C38332207   6.968   4.621   6.041 -0.2299  0.1712 -0.5676
   73MOL   H38432208   6.912   4.820   5.979  1.0809  1.3033 -1.8227
   73MOL   H38532209   7.058   4.837   5.792  0.9968 -1.1867 -2.7557
   73MOL   H38632210   6.924   4.567   5.767 -1.7809  0.2431 -2.1363
   73MOL   H38732211   6.844   4.722   5.757  0.5088  0.2729 -2.4115
   73MOL   H38832212   6.996   4.790   5.578  1.4123  0.0917  2.6349
   73MOL   H38932213   6.900   4.649   5.540  1.7523 -0.7100 -1.5268
   73MOL   H39032214   7.099   4.497   5.596 -1.4120 -0.4094 -2.0515
   73MOL   H39132215   7.123   4.614   5.466 -1.8771  2.3325 -0.6434
   73MOL   H39232216   7.318   4.615   5.650 -0.4114  0.2799 -2.4756
   73MOL   H39332217   7.248   4.772   5.641 -0.6527  1.2745  3.8251
   73MOL   H39432218   7.173   4.553   5.830 -0.4016  0.1597 -0.6165
   73MOL   H39532219   7.266   4.699   5.880  2.3612 -0.6873 -1.3808
   73MOL   H39632220   7.055   4.557   6.031  0.1574  0.7218 -0.7368
   73MOL   H39732221   6.892   4.584   5.972  1.8688 -0.5391 -2.5723
   73MOL   C39832222   6.921   4.617   6.192 -0.3557 -0.1911  0.1318
   73MOL   C39932223   6.792   4.703   6.210 -0.3946  0.2204 -0.1538
   73MOL   C40032224   6.670   4.655   6.133 -0.1727  0.8133 -0.2880
   73MOL   C40132225   6.546   4.748   6.151 -0.6815  0.2688 -0.1040
   73MOL   C40232226   6.518   4.762   6.305  0.0844  0.5918 -0.4656
   73MOL   C40332227   6.638   4.817   6.380 -0.6409  0.5687 -0.8842
   73MOL   C40432228   6.756   4.726   6.360  0.0778  0.1819  0.2152
   73MOL   C40532229   6.910   4.467   6.235  0.1175 -0.2921 -0.9786
   73MOL   H40632230   7.005   4.663   6.244 -1.5949 -0.0789  2.1318
   73MOL   H40732231   6.817   4.805   6.182  0.9314  0.4005  1.6314
   73MOL   H40832232   6.648   4.550   6.154 -1.1136  1.5882  2.8753
   73MOL   H40932233   6.686   4.650   6.025 -0.2613 -1.2419 -0.2323
   73MOL   H41032234   6.456   4.717   6.098  0.0487 -2.5913  0.2226
   73MOL   H41132235   6.568   4.843   6.103  1.3378 -1.7185 -3.3349
   73MOL   H41232236   6.474   4.665   6.330 -0.0351  1.2194  1.9156
   73MOL   H41332237   6.439   4.835   6.319  0.4039  0.5210  1.8337
   73MOL   H41432238   6.654   4.910   6.325 -0.2687  0.4465 -0.9829
   73MOL   H41532239   6.617   4.825   6.486  1.5966 -1.3072 -0.2696
   73MOL   H41632240   6.846   4.768   6.406 -0.4171  2.3133 -0.7342
   73MOL   H41732241   6.735   4.624   6.391 -2.0283 -0.6944 -3.7760
   73MOL   H41832242   6.845   4.472   6.322  1.6316  0.7209  0.1025
   73MOL   H41932243   6.847   4.421   6.158 -0.2436 -1.7853  0.1766
   73MOL   C42032244   7.051   4.393   6.252 -0.2848  0.6532 -0.4160
   73MOL   C42132245   7.058   4.263   6.178  0.1737  0.9274 -0.2598
   73MOL   C42232246   7.080   4.268   6.025 -0.0773  0.1202 -0.3561
   73MOL   C42332247   7.096   4.139   5.944 -0.4356  0.0275 -0.2740
   73MOL   C42432248   6.985   4.044   5.993 -0.2150 -0.0700 -0.8424
   73MOL   C42532249   6.988   4.029   6.144 -0.3412  0.0650  0.0180
   73MOL   C42632250   6.953   4.159   6.214  0.3193 -1.0330  0.3952
   73MOL   C42732251   7.092   4.378   6.404 -0.7225  0.7747 -0.1517
   73MOL   H42832252   7.130   4.456   6.211 -0.6631  0.6073 -1.2087
   73MOL   H42932253   7.151   4.217   6.213 -0.1633 -0.6755 -1.4268
   73MOL   H43032254   6.998   4.324   5.980 -0.3842  1.8660  2.3039
   73MOL   H43132255   7.170   4.322   5.996  1.1047 -2.0074 -0.7599
   73MOL   H43232256   7.100   4.157   5.836  0.3876  0.8836 -0.1048
   73MOL   H43332257   7.180   4.072   5.960 -2.3890 -2.6801 -1.0291
   73MOL   H43432258   6.986   3.948   5.941 -0.1027 -0.7375  0.3653
   73MOL   H43532259   6.887   4.085   5.968 -0.8208 -1.5600 -0.9592
   73MOL   H43632260   7.083   3.992   6.181 -0.0599 -1.5000 -2.1467
   73MOL   H43732261   6.916   3.952   6.170 -0.5296  0.1895 -0.1334
   73MOL   H43832262   6.851   4.174   6.179  0.6571 -3.7952 -1.9331
   73MOL   H43932263   6.951   4.145   6.322  0.7891 -0.7977  0.4380
   73MOL   H44032264   7.189   4.328   6.415 -0.5942  0.9988 -0.2710
   73MOL   H44132265   7.100   4.477   6.449  0.7710  0.6788 -0.1831
   73MOL   H44232266   7.026   4.321   6.469  0.7839 -4.1717 -2.7392
   74MOL     C132267   1.545   0.320   6.603 -0.4144  0.6332  0.4257
   74MOL     C232268   1.593   0.456   6.647 -0.6072 -0.1297  0.5112
   74MOL     C332269   1.705   0.447   6.750  0.0604 -0.5526  0.3507
   74MOL     C432270   1.748   0.588   6.803  0.3410  0.4365 -0.0916
   74MOL     C532271   1.635   0.681   6.848  0.5574  0.6882 -0.7182
   74MOL     C632272   1.523   0.681   6.741 -0.3057 -0.4878 -0.1854
   74MOL     C732273   1.478   0.545   6.698 -0.0678 -0.2700  0.3044
   74MOL     C832274   1.654   0.235   6.523 -0.0435 -0.0820  0.4341
   74MOL     H932275   1.505   0.271   6.692 -0.2097 -1.7589 -0.7590
   74MOL    H1032276   1.636   0.508   6.562 -2.4281  0.5655 -0.0163
   74MOL    H1132277   1.667   0.391   6.836  0.1646 -1.3666 -0.1243
   74MOL    H1232278   1.792   0.395   6.709 -0.4046 -0.8124 -0.3337
   74MOL    H1332279   1.812   0.642   6.734 -3.3477  2.3305 -2.1858
   74MOL    H1432280   1.803   0.583   6.897 -1.4601 -0.3112  0.9540
   74MOL    H1532281   1.669   0.781   6.875  0.9943  0.3162  0.1197
   74MOL    H1632282   1.588   0.646   6.940 -1.5974 -0.7056 -2.2925
   74MOL    H1732283   1.443   0.753   6.760 -1.0309 -1.2640 -0.2498
   74MOL    H1832284   1.572   0.729   6.656  0.2448  1.4454  1.2080
   74MOL    H1932285   1.399   0.562   6.625  0.0760  1.9478  0.6477
   74MOL    H2032286   1.431   0.495   6.783  2.4673  0.3884  2.1510
   74MOL    H2132287   1.740   0.221   6.589  0.8630  0.4140 -0.6267
   74MOL    H2232288   1.691   0.288   6.435  1.7597  1.1636  1.8834
   74MOL    H2332289   1.458   0.337   6.540  0.8527 -2.4004 -2.2840
   74MOL    C2432290   1.612   0.099   6.465 -0.5826  0.0701  0.6895
   74MOL    C2532291   1.492   0.118   6.360 -0.3621  0.1443  0.1288
   74MOL    C2632292   1.397   7.771   6.359 -0.1942  0.3282 -0.3180
   74MOL    C2732293   1.299   7.760   6.241  0.0456 -0.2732  0.1721
   74MOL    C2832294   1.359   0.031   6.109 -0.1025 -0.6528  0.3226
   74MOL    C2932295   1.436   0.164   6.115  0.5382 -0.0781  0.0648
   74MOL    C3032296   1.543   0.165   6.228  0.2279 -1.0779  0.7304
   74MOL    C3132297   1.742   0.025   6.417 -0.2966  0.4057 -1.1946
   74MOL    H3232298   1.571   0.050   6.554  0.9813  2.3582  2.7356
   74MOL    H3332299   1.426   0.199   6.392 -0.8227  1.1129 -3.0935
   74MOL    H3432300   1.350   0.004   6.457 -1.0527  1.7757 -0.7965
   74MOL    H3532301   1.461   7.683   6.365 -0.1289  0.4065  0.2342
   74MOL    H3632302   1.266   7.658   6.222 -0.8627 -0.3384  2.0624
   74MOL    H3732303   1.209   0.043   6.267  0.9364 -0.4896  4.0734
   74MOL    H3832304   1.278   0.037   6.036  0.8967 -1.4266 -0.8810
   74MOL    H3932305   1.418   7.720   6.071  0.8428 -0.4428  1.3048
   74MOL    H4032306   1.479   0.200   6.022  1.8337 -0.4996  0.4846
   74MOL    H4132307   1.367   0.244   6.138  2.0935  1.8618 -1.8569
   74MOL    H4232308   1.634   0.117   6.194  0.8386  1.4877 -1.3820
   74MOL    H4332309   1.574   0.267   6.252 -0.1798 -0.3846 -1.5716
   74MOL    H4432310   1.825   0.044   6.485 -1.0169 -1.1303  0.1768
   74MOL    H4532311   1.790   0.055   6.325  0.3586  0.5854 -0.7972
   74MOL    C4632312   1.732   7.655   6.378 -0.2240 -0.4505  0.4840
   74MOL    C4732313   1.686   7.571   6.499 -0.2369 -0.2033  0.3264
   74MOL    C4832314   1.768   7.590   6.630  0.2008 -0.0949  0.1968
   74MOL    C4932315   1.680   7.532   6.743 -0.8052 -0.3396  0.2960
   74MOL    C5032316   1.660   7.387   6.715  0.2246  0.2873  0.8190
   74MOL    C5132317   1.590   7.346   6.581  0.3174  0.0029  0.6707
   74MOL    C5232318   1.647   7.428   6.463 -0.0359  0.5778  0.6998
   74MOL    C5332319   1.866   7.597   6.324  0.4291  0.1694 -0.7534
   74MOL    H5432320   1.656   7.639   6.302  1.1485  2.2404 -1.5066
   74MOL    H5532321   1.584   7.604   6.515 -0.8830 -0.9569 -2.0722
   74MOL    H5632322   1.863   7.538   6.616 -0.4391 -0.9617 -1.0462
   74MOL    H5732323   1.795   7.693   6.652 -0.1362  0.2911 -1.1524
   74MOL    H5832324   1.578   7.569   6.750 -0.4723  0.7723 -0.7344
   74MOL    H5932325   1.718   7.543   6.845 -1.5565  1.9980  0.3344
   74MOL    H6032326   1.762   7.349   6.716  0.9484  2.1720  1.9864
   74MOL    H6132327   1.607   7.341   6.798 -1.3195  0.7796  0.1449
   74MOL    H6232328   1.485   7.374   6.592  0.0339  0.7142 -3.0912
   74MOL    H6332329   1.593   7.240   6.558  0.1998  0.2936 -0.7139
   74MOL    H6432330   1.724   7.366   6.418 -1.6321 -0.0294 -1.2564
   74MOL    H6532331   1.560   7.425   6.398 -0.5561 -1.3816  1.4570
   74MOL    H6632332   1.891   7.507   6.380  1.6157  1.0203  0.1081
   74MOL    H6732333   1.949   7.666   6.336 -0.5455  1.0353  1.0954
   74MOL    C6832334   1.855   7.556   6.173  0.4650 -0.2436  0.2971
   74MOL    C6932335   1.831   7.678   6.080 -0.2651  0.3259  0.3369
   74MOL    C7032336   1.950   0.001   6.068 -0.0574  0.0226  0.7555
   74MOL    C7132337   1.917   0.128   5.976  1.0812 -0.2710  0.5166
   74MOL    C7232338   1.854   0.086   5.835 -0.2271  0.1199 -0.0621
   74MOL    C7332339   1.745   7.768   5.853  0.3764  0.3466  0.4498
   74MOL    C7432340   1.784   7.641   5.937 -0.5103 -0.1203  0.0818
   74MOL    C7532341   1.976   7.474   6.132 -0.7552 -0.5093  0.6437
   74MOL    H7632342   1.761   7.502   6.165 -0.9199  2.4371 -2.6792
   74MOL    H7732343   1.750   7.740   6.120 -1.9758 -0.2798 -2.1078
   74MOL    H7832344   2.036   7.714   6.036 -0.4753  1.5198 -3.4027
   74MOL    H7932345   1.978   0.042   6.165 -0.8601 -0.4449  1.1943
   74MOL    H8032346   1.848   0.184   6.039  0.5417 -1.4042  0.9441
   74MOL    H8132347   2.001   0.194   5.954  0.7260 -0.6526 -2.2002
   74MOL    H8232348   1.928   0.029   5.779  0.3739 -2.0929  2.8281
   74MOL    H8332349   1.810   0.168   5.778  2.1319  1.1144 -0.5564
   74MOL    H8432350   1.706   7.731   5.758  2.1760  0.2943 -0.2742
   74MOL    H8532351   1.655   0.040   5.897  0.0779 -0.0831  0.2742
   74MOL    H8632352   1.867   7.588   5.890  2.4090  4.6886 -0.5304
   74MOL    H8732353   1.696   7.578   5.946  1.2040 -2.4117  1.2888
   74MOL    H8832354   1.982   7.495   6.026 -3.1691 -0.5158  0.4734
   74MOL    H8932355   2.064   7.520   6.177 -0.7183  1.5462 -1.4476
   74MOL    C9032356   1.968   7.316   6.141  0.6311  0.3060 -0.7518
   74MOL    C9132357   1.914   7.257   6.016  0.3332 -0.3935  0.2242
   74MOL    C9232358   2.011   7.269   5.890 -0.2007  0.2614 -0.2353
   74MOL    C9332359   1.940   7.233   5.763  0.0153  0.0141  0.1925
   74MOL    C9432360   1.880   7.088   5.783 -0.2599 -0.0354 -0.7080
   74MOL    C9532361   1.772   7.084   5.893 -0.0032  0.2081  0.2612
   74MOL    C9632362   1.845   7.123   6.024  0.6588  0.6771 -0.3593
   74MOL    C9732363   2.110   7.269   6.187  0.1039 -0.0436  0.1382
   74MOL    H9832364   1.893   7.293   6.216  1.0674 -1.2977 -0.8073
   74MOL    H9932365   1.833   7.326   5.992  1.6672  1.3564  0.6854
   74MOL   H10032366   2.091   7.195   5.894  1.0686  1.4618 -2.4353
   74MOL   H10132367   2.070   7.361   5.886  1.4630 -0.8183 -0.9904
   74MOL   H10232368   2.013   7.241   5.683  0.9930  1.2393  1.1745
   74MOL   H10332369   1.857   7.299   5.740 -0.4021 -0.1938  1.0902
   74MOL   H10432370   1.960   7.014   5.797  0.8164  1.3628  0.7787
   74MOL   H10532371   1.836   7.068   5.686 -0.9473  2.7300 -1.0104
   74MOL   H10632372   1.695   7.159   5.872  0.4775  0.4105 -0.8460
   74MOL   H10732373   1.732   6.984   5.904 -0.6153  0.4286  0.1027
   74MOL   H10832374   1.777   7.128   6.109  0.3571 -1.2822 -0.4573
   74MOL   H10932375   1.922   7.047   6.041 -0.4998 -0.9007 -1.9694
   74MOL   H11032376   2.177   7.277   6.102  0.0030  1.7394  0.2148
   74MOL   H11132377   2.164   7.333   6.257  2.1440 -1.4827 -0.0839
   74MOL   C11232378   2.114   7.135   6.259 -0.1065  1.0824 -0.0148
   74MOL   C11332379   2.043   7.132   6.395  0.5452 -0.4881 -0.1216
   74MOL   C11432380   2.118   7.202   6.504  0.4180  0.0418  0.0493
   74MOL   C11532381   2.040   7.196   6.634 -0.7418  0.9326  0.7553
   74MOL   C11632382   1.996   7.056   6.681 -0.2683  0.1047  0.8190
   74MOL   C11732383   1.910   6.999   6.561 -0.1380  0.1413 -1.0217
   74MOL   C11832384   1.996   6.992   6.431  0.2466 -0.0712  0.2740
   74MOL   C11932385   2.256   7.068   6.262 -0.7203  0.4202  0.3191
   74MOL   H12032386   2.045   7.073   6.201  0.0334  0.8827  0.0333
   74MOL   H12132387   1.949   7.188   6.385  0.4475 -0.3070  1.6780
   74MOL   H12232388   2.151   7.302   6.476  2.6309 -0.7761 -0.3429
   74MOL   H12332389   2.208   7.146   6.530  0.2528 -0.9899 -1.5019
   74MOL   H12432390   2.094   7.248   6.712  1.1183 -0.1782  0.2561
   74MOL   H12532391   1.953   7.260   6.620 -0.1033  1.7240  0.3192
   74MOL   H12632392   2.084   6.993   6.695  0.0449  0.0523 -1.2277
   74MOL   H12732393   1.935   7.058   6.771 -2.8717  2.3796 -0.9130
   74MOL   H12832394   1.885   6.894   6.579 -0.1873  0.1992 -0.7590
   74MOL   H12932395   1.819   7.055   6.540  0.8412  1.4752 -1.7656
   74MOL   H13032396   1.933   6.960   6.348 -0.6776  1.0603  0.5302
   74MOL   H13132397   2.081   6.925   6.448 -0.1657 -0.4675  0.8173
   74MOL   H13232398   2.248   6.977   6.322 -0.8220 -0.7636 -1.4313
   74MOL   H13332399   2.323   7.137   6.314  0.4166 -0.3529 -0.0849
   74MOL   C13432400   2.329   7.025   6.129  0.3685 -0.1778 -0.1290
   74MOL   C13532401   2.255   6.897   6.070 -0.0529 -0.3285  0.0634
   74MOL   C13632402   2.304   6.762   6.119  0.1301  0.3345 -0.0433
   74MOL   C13732403   2.215   6.641   6.067 -0.2567 -0.4042 -0.2896
   74MOL   C13832404   2.213   6.635   5.914  0.4472  0.0403 -0.4076
   74MOL   C13932405   2.169   6.773   5.861 -0.2127 -0.3042 -0.1989
   74MOL   C14032406   2.248   6.893   5.916  0.3627 -0.6056 -0.0061
   74MOL   C14132407   2.489   7.017   6.154 -0.5869 -0.3350  0.3784
   74MOL   H14232408   2.312   7.099   6.050  1.2357 -1.3152 -1.3927
   74MOL   H14332409   2.152   6.914   6.101 -0.7144 -4.0449  0.0518
   74MOL   H14432410   2.409   6.766   6.089  0.4433 -1.4062  0.7874
   74MOL   H14532411   2.312   6.758   6.228 -1.0602  0.1116  0.0349
   74MOL   H14632412   2.114   6.623   6.105  1.1123 -1.7875  2.8384
   74MOL   H14732413   2.263   6.546   6.088 -3.2648 -1.1021  4.3744
   74MOL   H14832414   2.307   6.602   5.870  0.2463 -2.7100  1.1419
   74MOL   H14932415   2.137   6.560   5.893 -0.2593  0.6375 -0.0299
   74MOL   H15032416   2.061   6.789   5.873 -0.1096  0.6685 -0.5231
   74MOL   H15132417   2.190   6.769   5.754  3.1326 -0.0673  0.4006
   74MOL   H15232418   2.341   6.901   5.860  0.3638 -3.9407 -0.5656
   74MOL   H15332419   2.187   6.979   5.888  0.4724 -0.2721  0.7512
   74MOL   H15432420   2.515   7.001   6.049  0.3537 -0.4788  0.6295
   74MOL   H15532421   2.511   6.926   6.210 -0.7198 -0.8604 -0.4019
   74MOL   C15632422   2.558   7.149   6.204 -0.1798  0.3875 -0.0106
   74MOL   C15732423   2.497   7.281   6.152  0.0969 -0.4500  0.8916
   74MOL   C15832424   2.532   7.404   6.243  0.6077 -1.0499  0.3533
   74MOL   C15932425   2.476   7.541   6.197 -0.5499  0.6080  0.3427
   74MOL   C16032426   2.511   7.566   6.046  0.1822  0.8309 -0.4342
   74MOL   C16132427   2.481   7.449   5.946 -0.1096  0.5242  0.5080
   74MOL   C16232428   2.534   7.314   6.000 -0.3514  0.8133 -0.5290
   74MOL   C16332429   2.710   7.139   6.184 -0.3447 -0.5166  0.1575
   74MOL   H16432430   2.533   7.149   6.310 -1.0489 -0.4140 -0.2024
   74MOL   H16532431   2.389   7.273   6.166 -0.0143  1.5120  1.3453
   74MOL   H16632432   2.500   7.391   6.346 -1.6436 -1.8012 -0.4105
   74MOL   H16732433   2.640   7.414   6.252  0.6979 -2.2025  0.7288
   74MOL   H16832434   2.369   7.553   6.215 -0.9317 -2.2777  0.2200
   74MOL   H16932435   2.512   7.624   6.257  1.4858 -0.4941  0.6568
   74MOL   H17032436   2.619   7.570   6.045  0.1380  2.0174 -2.5660
   74MOL   H17132437   2.469   7.662   6.014  0.1724  0.8154 -0.4661
   74MOL   H17232438   2.522   7.469   5.847  1.3612  0.3906  1.0727
   74MOL   H17332439   2.373   7.441   5.937 -0.2657 -0.0292  2.6320
   74MOL   H17432440   2.511   7.225   5.942  0.9679 -0.5325  0.9727
   74MOL   H17532441   2.643   7.315   5.991 -0.3422  0.1810 -0.4601
   74MOL   H17632442   2.754   7.234   6.214 -1.6720 -0.6172  2.5946
   74MOL   H17732443   2.728   7.132   6.077  1.9369 -0.9222  0.5508
   74MOL   C17832444   2.779   7.028   6.266 -0.4580 -0.9357 -0.2323
   74MOL   C17932445   2.790   6.895   6.186 -0.2464  0.8145 -0.0907
   74MOL   C18032446   2.789   6.771   6.278  0.2207  0.1333  0.1307
   74MOL   C18132447   2.827   6.636   6.211 -0.5959  0.4240 -0.2499
   74MOL   C18232448   2.957   6.647   6.134  0.8475  0.0725  0.4980
   74MOL   C18332449   2.941   6.751   6.023 -0.3229  0.2358  0.4596
   74MOL   C18432450   2.922   6.887   6.094  0.5516  0.2231  0.5061
   74MOL   C18532451   2.915   7.067   6.330 -0.9822  1.0087 -0.3168
   74MOL   H18632452   2.710   7.002   6.345 -0.8635 -3.4131 -1.3694
   74MOL   H18732453   2.707   6.873   6.118  0.5411 -1.8876 -0.2511
   74MOL   H18832454   2.870   6.772   6.352 -0.8364  0.0225  1.3152
   74MOL   H18932455   2.697   6.762   6.335  0.3307  0.9046  0.4395
   74MOL   H19032456   2.748   6.590   6.152  0.8203 -2.8976  0.3443
   74MOL   H19132457   2.842   6.555   6.282 -0.1872  1.4694  0.8865
   74MOL   H19232458   3.027   6.684   6.208  0.3939  1.3246  0.3226
   74MOL   H19332459   2.995   6.552   6.097  0.5403  0.1202  0.0527
   74MOL   H19432460   2.860   6.733   5.952 -0.9801  1.4510  0.8904
   74MOL   H19532461   3.032   6.751   5.963 -2.1985  3.6897 -2.5609
   74MOL   H19632462   3.012   6.912   6.149 -0.8204  1.3276  2.2773
   74MOL   H19732463   2.899   6.964   6.021 -1.9137 -1.1129 -0.1999
   74MOL   H19832464   2.962   6.978   6.372 -3.1936  0.4809  1.0676
   74MOL   H19932465   2.980   7.094   6.246 -0.1515 -0.7095 -0.2537
   74MOL   C20032466   2.922   7.168   6.448 -0.1649  0.4979 -0.0202
   74MOL   C20132467   2.975   7.106   6.587  0.2645  0.7088  0.0683
   74MOL   C20232468   2.872   7.004   6.646 -0.3677 -0.4634 -0.5373
   74MOL   C20332469   2.913   6.960   6.791  0.4465 -0.5740 -0.3260
   74MOL   C20432470   3.051   6.890   6.782  0.4466  0.4014  0.1522
   74MOL   C20532471   3.158   6.988   6.733  0.4838 -0.2894  0.0970
   74MOL   C20632472   3.112   7.028   6.588 -0.6341  0.2737  0.7414
   74MOL   C20732473   2.995   7.298   6.400 -0.7757  1.5543 -0.1350
   74MOL   H20832474   2.817   7.184   6.469 -0.6526 -3.2545  0.8836
   74MOL   H20932475   2.969   7.188   6.659  1.2430  0.7388  0.1265
   74MOL   H21032476   2.872   6.914   6.585 -1.0273  0.5566 -2.0455
   74MOL   H21132477   2.773   7.048   6.640 -0.7188 -1.3221 -1.0210
   74MOL   H21232478   2.925   7.042   6.862 -1.5036  0.4541 -1.1337
   74MOL   H21332479   2.836   6.888   6.819  1.7023 -1.2210  1.5475
   74MOL   H21432480   3.072   6.847   6.880  1.2168 -0.3449 -0.3339
   74MOL   H21532481   3.036   6.809   6.711 -0.2679 -0.5227  1.3293
   74MOL   H21632482   3.158   7.076   6.796 -2.6105  0.7433 -1.2492
   74MOL   H21732483   3.263   6.960   6.733  0.5755  0.0540 -0.1240
   74MOL   H21832484   3.189   7.093   6.547  0.7536 -0.4703  2.0912
   74MOL   H21932485   3.114   6.939   6.525 -0.7654  1.8590 -1.5457
   74MOL   H22032486   3.098   7.261   6.396 -0.5806  2.1654 -0.8818
   74MOL   H22132487   2.981   7.321   6.294 -1.3163  1.1577 -0.1503
   74MOL   C22232488   2.986   7.422   6.491  0.7044  0.3372 -0.0225
   74MOL   C22332489   3.079   7.539   6.459  0.2229 -0.1469 -0.2603
   74MOL   C22432490   3.070   7.585   6.314  0.0920  0.2058  0.4285
   74MOL   C22532491   3.180   7.686   6.276  1.0726 -0.3429 -0.0037
   74MOL   C22632492   3.320   7.657   6.326  0.1112  0.6202  0.2671
   74MOL   C22732493   3.315   7.633   6.479 -0.2084 -0.6298  0.5197
   74MOL   C22832494   3.220   7.518   6.511 -0.2141  0.2535  0.2579
   74MOL   C22932495   2.841   7.458   6.515  0.4930  0.1254 -0.4092
   74MOL   H23032496   3.015   7.380   6.588 -1.6260  3.7437  2.2934
   74MOL   H23132497   3.033   7.622   6.513 -0.5984 -0.2212 -0.8350
   74MOL   H23232498   3.089   7.503   6.244  0.0204  0.5627 -0.0127
   74MOL   H23332499   2.972   7.620   6.283  0.6734 -0.0935 -1.8760
   74MOL   H23432500   3.153   0.014   6.311  1.1005 -1.1759  2.4790
   74MOL   H23532501   3.173   7.704   6.169  1.3661 -1.0994 -0.1457
   74MOL   H23632502   3.362   7.570   6.276  0.6998  0.4148  1.1111
   74MOL   H23732503   3.376   7.748   6.307  1.3632 -0.1969 -0.0379
   74MOL   H23832504   3.290   7.722   6.537 -0.3507 -0.2846 -0.0662
   74MOL   H23932505   3.417   7.606   6.508 -0.3693  1.0803  2.8580
   74MOL   H24032506   3.254   7.419   6.484  2.6049  0.8184  1.5560
   74MOL   H24132507   3.225   7.512   6.620  2.5260  0.5905  0.1976
   74MOL   H24232508   2.777   7.370   6.514  0.4856  0.1170  0.4606
   74MOL   H24332509   2.807   7.504   6.423 -2.0059  1.3918  1.1003
   74MOL   C24432510   2.812   7.541   6.640  0.0493 -0.0428  0.0252
   74MOL   C24532511   2.801   7.447   6.760 -0.0698  0.2563 -1.0446
   74MOL   C24632512   2.667   7.359   6.772  0.4874  0.3647  0.2907
   74MOL   C24732513   2.674   7.247   6.884 -1.3776 -0.0091 -0.0934
   74MOL   C24832514   2.708   7.332   7.006 -0.4695  0.5494 -0.3438
   74MOL   C24932515   2.848   7.390   7.000 -0.2255 -0.0946  0.3708
   74MOL   C25032516   2.836   7.505   6.896 -0.1807  0.0920  0.5115
   74MOL   C25132517   2.693   7.641   6.624  0.4214  1.1154  0.3608
   74MOL   H25232518   2.897   7.606   6.661  1.1583 -1.7716  1.0230
   74MOL   H25332519   2.873   7.367   6.743 -1.9729 -1.4505 -1.3268
   74MOL   H25432520   2.639   7.306   6.681 -0.8403  0.6058  0.5465
   74MOL   H25532521   2.580   7.423   6.790  0.9631  1.3452 -0.8364
   74MOL   H25632522   2.578   7.196   6.893 -0.3487 -2.0065 -0.2355
   74MOL   H25732523   2.749   7.170   6.869 -1.2377 -0.5546  3.1471
   74MOL   H25832524   2.630   7.407   7.019 -0.0747  0.8201  0.4851
   74MOL   H25932525   2.698   7.276   7.098  1.1163  1.5855  0.4794
   74MOL   H26032526   2.923   7.318   6.967 -1.4843 -0.8628 -0.8931
   74MOL   H26132527   2.883   7.419   7.099  1.8599  0.1492 -0.4087
   74MOL   H26232528   2.765   7.580   6.931 -1.6172 -0.5775 -0.9260
   74MOL   H26332529   2.935   7.550   6.893  1.4191 -3.1950  1.0660
   74MOL   H26432530   2.599   7.588   6.636  0.6363  0.6288 -0.0923
   74MOL   H26532531   2.686   7.665   6.518 -2.6661 -1.8069 -0.1878
   74MOL   C26632532   2.710   7.764   6.720 -0.1561  0.0321  0.1818
   74MOL   C26732533   2.753   0.122   6.641  0.0470 -0.4423 -0.1545
   74MOL   C26832534   2.650   0.183   6.554 -0.1809 -0.5033  0.2564
   74MOL   C26932535   2.701   0.316   6.499  0.0156  0.2285 -0.0277
   74MOL   C27032536   2.829   0.309   6.422 -0.3198  0.0895 -0.1842
   74MOL   C27132537   2.933   0.226   6.508 -0.0999 -0.6800  0.5682
   74MOL   C27232538   2.883   0.094   6.559  0.4583 -0.0675  0.0551
   74MOL   C27332539   2.583   7.771   6.810 -0.8687 -0.1496 -0.1770
   74MOL   H27432540   2.804   7.744   6.772  0.5188  0.7451 -0.7255
   74MOL   H27532541   2.774   0.199   6.714 -0.1039 -1.4646  0.9894
   74MOL   H27632542   2.621   0.114   6.475 -0.0263  0.6935 -0.8692
   74MOL   H27732543   2.557   0.204   6.607  0.1735 -1.7814  1.4016
   74MOL   H27832544   2.716   0.387   6.580 -2.1356 -0.4465  1.0043
   74MOL   H27932545   2.623   0.349   6.430  1.3482  2.0771 -0.6779
   74MOL   H28032546   2.809   0.247   6.334  4.3197 -0.9810 -0.6101
   74MOL   H28132547   2.858   0.408   6.388 -0.3407  0.5593  1.1372
   74MOL   H28232548   2.950   0.289   6.595  0.4066  2.0901 -1.4783
   74MOL   H28332549   3.027   0.213   6.454  0.2978 -1.1979  1.3787
   74MOL   H28432550   2.955   0.045   6.624  1.8040  1.7017 -0.0697
   74MOL   H28532551   2.860   0.030   6.474  0.2743  0.7605 -0.5294
   74MOL   H28632552   2.544   7.681   6.857 -3.4370  1.2600  0.4796
   74MOL   H28732553   2.512   0.019   6.730 -0.1716 -1.4773 -1.1392
   74MOL   C28832554   2.571   0.120   6.913 -1.1915  0.6337 -0.3951
   74MOL   C28932555   2.651   0.098   7.053  0.2605 -0.5040  0.2822
   74MOL   C29032556   2.597   7.754   7.133  0.1490  0.0002  0.1569
   74MOL   C29132557   2.677   7.755   7.260  0.2851  0.9211 -0.0097
   74MOL   C29232558   2.823   7.729   7.228  0.4743  0.0143 -0.9522
   74MOL   C29332559   2.876   0.089   7.163 -0.1303 -0.8510  0.1911
   74MOL   C29432560   2.805   0.115   7.032 -0.2315  0.2503 -0.2777
   74MOL   C29532561   2.421   0.177   6.908  0.3881  0.2944  0.0555
   74MOL   H29632562   2.631   0.198   6.865 -0.0340  1.4803  2.3183
   74MOL   H29732563   2.623   0.183   7.115  3.6987  0.9669 -0.0879
   74MOL   H29832564   2.491   7.767   7.153  0.1874  1.9147 -0.7718
   74MOL   H29932565   2.608   7.665   7.072 -1.2807 -1.3022  1.7343
   74MOL   H30032566   2.668   0.078   7.313 -0.3362  0.2529  1.0933
   74MOL   H30132567   2.647   7.680   7.333  0.8616  1.7760  1.1144
   74MOL   H30232568   2.852   7.646   7.162  1.4908 -0.1431 -0.3210
   74MOL   H30332569   2.871   7.718   7.325 -0.2314 -0.3217 -0.6375
   74MOL   H30432570   2.978   0.074   7.128 -0.6001  1.0763 -2.1788
   74MOL   H30532571   2.870   0.169   7.237  1.9144  1.8114 -2.4034
   74MOL   H30632572   2.849   0.044   6.961 -0.9062 -0.2628 -0.1850
   74MOL   H30732573   2.826   0.212   6.988 -0.0297  0.5224  0.4248
   74MOL   H30832574   2.404   0.210   6.806 -0.9400 -0.5046  0.0127
   74MOL   H30932575   2.357   0.090   6.923  1.2528 -0.3385  0.0762
   74MOL   C31032576   2.380   0.288   7.009 -0.4452  0.4113 -0.3575
   74MOL   C31132577   2.306   0.410   6.945  0.7524 -0.5325  0.1934
   74MOL   C31232578   2.405   0.505   6.870  0.1840  0.5279 -0.2190
   74MOL   C31332579   2.349   0.615   6.779  0.8035 -0.3947 -0.0394
   74MOL   C31432580   2.239   0.563   6.692  0.0008  0.1152  0.2436
   74MOL   C31532581   2.127   0.502   6.794  0.3142  0.1452  1.1764
   74MOL   C31632582   2.182   0.377   6.856 -1.0787 -0.0901 -0.3105
   74MOL   C31732583   2.295   0.228   7.119 -0.5748  0.3413  0.4384
   74MOL   H31832584   2.475   0.324   7.047 -0.3296 -0.1820 -0.0805
   74MOL   H31932585   2.259   0.468   7.024 -2.1096 -2.1819 -0.2631
   74MOL   H32032586   2.483   0.545   6.935  2.2155 -1.2473 -1.5270
   74MOL   H32132587   2.473   0.440   6.816 -0.1879  1.0971 -1.3823
   74MOL   H32232588   2.431   0.654   6.721  0.8711 -0.6226 -0.0983
   74MOL   H32332589   2.315   0.694   6.846  2.5319  0.6187 -0.3572
   74MOL   H32432590   2.202   0.639   6.623  0.6077  1.1641  1.0616
   74MOL   H32532591   2.279   0.483   6.629  0.5780  0.0637  0.6772
   74MOL   H32632592   2.087   0.579   6.860  0.9971  1.1853  0.4081
   74MOL   H32732593   2.042   0.483   6.728  0.9703  0.2787  0.2839
   74MOL   H32832594   2.203   0.308   6.774  1.9714 -0.7284  0.9359
   74MOL   H32932595   2.112   0.324   6.920 -1.1786 -1.3613 -1.4475
   74MOL   H33032596   2.359   0.150   7.161 -0.5941  0.2680  0.3329
   74MOL   H33132597   2.217   0.180   7.060  1.0556 -0.3816 -1.1834
   74MOL   C33232598   2.248   0.315   7.234  0.0168 -0.1479  0.4652
   74MOL   C33332599   2.364   0.413   7.297 -0.0402 -0.6111 -0.4978
   74MOL   C33432600   2.484   0.334   7.354  0.1669  0.0550 -0.3312
   74MOL   C33532601   2.603   0.429   7.391  0.1252 -0.5489  0.1619
   74MOL   C33632602   2.546   0.518   7.500  0.0673  0.5504 -0.5382
   74MOL   C33732603   2.433   0.606   7.451  0.2602  0.8501  0.3606
   74MOL   C33832604   2.313   0.520   7.398 -0.7169 -0.3412 -0.2020
   74MOL   C33932605   2.173   0.230   7.345  0.6825  0.3997  0.8339
   74MOL   H34032606   2.175   0.388   7.202  2.2147  2.0054  0.2040
   74MOL   H34132607   2.421   0.467   7.222 -1.1860  1.7599  0.2998
   74MOL   H34232608   2.446   0.282   7.443 -1.4251  0.5899 -0.6744
   74MOL   H34332609   2.511   0.254   7.285  2.9278 -0.8271  1.6930
   74MOL   H34432610   2.680   0.361   7.427 -1.2357 -1.5807  1.1688
   74MOL   H34532611   2.631   0.487   7.302  1.3061 -0.5501  0.5219
   74MOL   H34632612   2.513   0.446   7.575 -0.0167  0.1444 -0.9616
   74MOL   H34732613   2.612   0.582   7.560 -1.6102  1.4302  0.4221
   74MOL   H34832614   2.465   0.669   7.368 -0.6041  0.4304 -0.2909
   74MOL   H34932615   2.405   0.682   7.525  0.4470  0.6244  0.6651
   74MOL   H35032616   2.243   0.590   7.352  0.0652  1.3989  1.2172
   74MOL   H35132617   2.259   0.474   7.481 -1.1193  1.2599  0.4462
   74MOL   H35232618   2.141   0.296   7.426  0.2708  1.8827 -0.5056
   74MOL   H35332619   2.249   0.174   7.399  0.2785 -0.4295  0.5502
   74MOL   C35432620   2.054   0.128   7.299 -0.3719 -0.2826  0.5804
   74MOL   C35532621   1.918   0.206   7.276  0.2377  1.0060 -0.2923
   74MOL   C35632622   1.836   0.258   7.403 -0.1711 -0.5685 -0.2951
   74MOL   C35732623   1.701   0.327   7.366 -0.2852 -0.4175 -0.1898
   74MOL   C35832624   1.611   0.251   7.266  0.0960 -0.5222  0.4520
   74MOL   C35932625   1.696   0.210   7.146 -0.4411 -0.4410 -0.6286
   74MOL   C36032626   1.822   0.127   7.180 -0.4666 -0.5561  0.2343
   74MOL   C36132627   2.042   0.006   7.394  0.1742 -0.6851 -0.1205
   74MOL   H36232628   2.090   0.089   7.204 -0.9022 -2.6923  1.3451
   74MOL   H36332629   1.956   0.299   7.233  2.8297  1.0557  1.9936
   74MOL   H36432630   1.886   0.331   7.466 -3.4274  0.9322  0.6269
   74MOL   H36532631   1.823   0.168   7.464 -0.3527  0.1007  0.6670
   74MOL   H36632632   1.642   0.331   7.458 -1.2305  0.6519 -0.8269
   74MOL   H36732633   1.713   0.431   7.335 -2.9176 -0.1037 -0.2836
   74MOL   H36832634   1.566   0.165   7.316 -1.2859 -0.4691 -0.6606
   74MOL   H36932635   1.526   0.315   7.241  0.5507 -0.4721 -0.9685
   74MOL   H37032636   1.648   0.138   7.080 -0.8043  0.3136 -1.1964
   74MOL   H37132637   1.722   0.299   7.088 -0.9293  0.6401  0.7769
   74MOL   H37232638   1.872   0.113   7.084  0.0073  0.4758  0.3313
   74MOL   H37332639   1.794   0.031   7.224  1.9851 -0.9922  0.9064
   74MOL   H37432640   1.940   7.739   7.392  0.2929 -0.9536 -1.3047
   74MOL   H37532641   2.046   0.057   7.490  2.4434 -1.1461  0.0641
   74MOL   C37632642   2.143   7.666   7.359 -0.3371 -1.1700 -0.0163
   74MOL   C37732643   2.186   7.588   7.488 -0.2534  0.1737  0.2235
   74MOL   C37832644   2.079   7.496   7.557 -0.3695 -0.1798  0.1807
   74MOL   C37932645   2.140   7.427   7.680  0.0275  0.0081  0.5147
   74MOL   C38032646   2.207   7.523   0.001 -0.0916 -0.1845  0.3434
   74MOL   C38132647   2.325   7.599   7.709 -0.0319  0.3732 -0.4628
   74MOL   C38232648   2.271   7.675   7.581 -0.2698  0.2991 -0.0703
   74MOL   C38332649   2.101   7.583   7.240 -0.2079  0.1650  0.6889
   74MOL   H38432650   2.235   7.723   7.341 -1.1423  1.1753  2.8233
   74MOL   H38532651   2.267   7.523   7.455 -0.2458  0.5893 -0.5885
   74MOL   H38632652   1.994   7.549   7.602 -0.3740 -1.5270  1.8178
   74MOL   H38732653   2.052   7.430   7.475  0.4869  0.4727 -0.6285
   74MOL   H38832654   2.219   7.364   7.639  0.2785 -0.5627  1.8583
   74MOL   H38932655   2.067   7.364   7.730 -1.4646  0.3663 -1.1441
   74MOL   H39032656   2.138   7.592   0.050  0.3484  0.2277  0.3828
   74MOL   H39132657   2.252   7.465   0.081 -0.8353 -0.6649  0.4266
   74MOL   H39232658   2.372   7.668   0.007  2.3759 -2.0346  0.3432
   74MOL   H39332659   2.404   7.528   7.685  0.2743 -0.0465  1.7087
   74MOL   H39432660   2.217   7.764   7.615  1.6624  1.1317  0.9018
   74MOL   H39532661   2.362   7.706   7.531  0.5322 -3.2056 -0.8857
   74MOL   H39632662   2.029   7.640   7.181 -0.0240  1.7934  2.0118
   74MOL   H39732663   2.031   7.513   7.285 -1.3432 -0.3839 -1.8390
   74MOL   C39832664   2.210   7.512   7.157  0.0427  0.1710  0.8159
   74MOL   C39932665   2.208   7.352   7.155  0.0027 -0.2309 -0.5035
   74MOL   C40032666   2.090   7.283   7.081 -0.2877  0.4625  0.7858
   74MOL   C40132667   2.090   7.137   7.129  0.0477  0.2845 -0.1102
   74MOL   C40232668   2.213   7.073   7.071  0.0774 -0.6911 -0.1928
   74MOL   C40332669   2.352   7.139   7.119  0.5275  0.0254  0.2746
   74MOL   C40432670   2.341   7.295   7.104  0.9665 -0.3375  0.4790
   74MOL   C40532671   2.247   7.591   7.017  0.4289  0.0819 -0.1745
   74MOL   H40632672   2.301   7.538   7.211 -0.3282 -0.8982  2.0020
   74MOL   H40732673   2.204   7.323   7.260  0.5600  1.7643  0.1096
   74MOL   H40832674   2.080   7.289   6.972 -0.8987 -1.1960  0.7323
   74MOL   H40932675   1.998   7.332   7.113 -0.3914  3.0695 -3.0908
   74MOL   H41032676   2.001   7.086   7.094  0.1396  0.8480 -1.1598
   74MOL   H41132677   2.087   7.131   7.238  1.9428 -0.9107 -0.0996
   74MOL   H41232678   2.207   7.083   6.963 -0.2788  1.6673  0.0390
   74MOL   H41332679   2.212   6.966   7.094 -1.8283  0.0315  3.5512
   74MOL   H41432680   2.370   7.115   7.224  1.2324  1.9814  0.6134
   74MOL   H41532681   2.443   7.116   7.063  0.1931 -1.9347  0.4978
   74MOL   H41632682   2.429   7.336   7.153  0.3899 -0.0220  1.2614
   74MOL   H41732683   2.349   7.315   6.997  0.6662  1.9931  0.8672
   74MOL   H41832684   2.252   7.697   7.039  2.1483  0.2756 -1.4087
   74MOL   H41932685   2.351   7.570   6.994  0.3338  0.2497 -0.7693
   74MOL   C42032686   2.170   7.561   6.883  0.2329 -0.0862  0.8413
   74MOL   C42132687   2.232   7.628   6.748  0.1070 -0.0902 -0.4976
   74MOL   C42232688   2.161   7.757   6.717 -0.0215  0.2004 -0.2977
   74MOL   C42332689   2.232   0.056   6.595 -0.3985  0.2422  0.4094
   74MOL   C42432690   2.233   7.734   6.474  0.9769 -0.1824 -0.3060
   74MOL   C42532691   2.315   7.607   6.509  0.3844 -0.0411  0.0851
   74MOL   C42632692   2.239   7.532   6.624  0.8612  0.4556 -0.3083
   74MOL   C42732693   2.020   7.574   6.902 -0.3229  0.0757 -0.1063
   74MOL   H42832694   2.196   7.456   6.875  3.1728  0.6361  0.5461
   74MOL   H42932695   2.339   7.642   6.767  0.2737 -1.3979 -0.4175
   74MOL   H43032696   2.059   7.739   6.684 -0.8194  0.0590  2.1494
   74MOL   H43132697   2.155   0.047   6.806  1.1212  0.3915 -0.3440
   74MOL   H43232698   2.172   0.142   6.565 -1.8825 -0.9955 -0.1689
   74MOL   H43332699   2.330   0.099   6.619  0.5376 -2.9398  2.5499
   74MOL   H43432700   2.278   0.009   6.387 -0.6574 -0.0902 -1.1078
   74MOL   H43532701   2.136   7.711   6.430 -0.7823 -0.6786  3.6611
   74MOL   H43632702   2.423   7.617   6.518  0.3932  0.9941 -1.1082
   74MOL   H43732703   2.305   7.550   6.417 -1.8991  1.6715 -0.7848
   74MOL   H43832704   2.137   7.503   6.598  1.0630  0.0835 -0.6748
   74MOL   H43932705   2.278   7.433   6.646 -1.0996 -0.4043 -0.6188
   74MOL   H44032706   1.993   7.674   6.938 -2.2201 -0.2169 -0.6357
   74MOL   H44132707   1.960   7.571   6.811 -0.3557  0.3583 -0.0960
   74MOL   H44232708   1.983   7.501   6.974  4.0019 -0.5660  1.6165
   75MOL     C132709   1.403   7.324   3.239 -0.1143 -0.1074 -0.0372
   75MOL     C232710   1.498   7.433   3.202 -0.3327  0.4083 -0.5814
   75MOL     C332711   1.524   7.537   3.313  0.6315 -0.3625  0.1285
   75MOL     C432712   1.618   7.650   3.268  0.1737 -0.1043 -0.1102
   75MOL     C532713   1.572   7.717   3.144 -0.0270  0.2531  0.1138
   75MOL     C632714   1.551   7.623   3.035 -0.2229 -0.1226  0.0170
   75MOL     C732715   1.458   7.506   3.068  0.0865 -0.4582  0.6168
   75MOL     C832716   1.377   7.216   3.130  0.2053  0.2478 -0.5932
   75MOL     H932717   1.433   7.277   3.333  1.6502 -1.2270 -1.1296
   75MOL    H1032718   1.588   7.373   3.194 -0.5797  0.0764 -0.9208
   75MOL    H1132719   1.428   7.586   3.333 -0.7218 -3.3341  1.2062
   75MOL    H1232720   1.559   7.474   3.395 -0.6418  0.1739  1.1074
   75MOL    H1332721   1.714   7.600   3.255  0.0799 -0.7039  1.4248
   75MOL    H1432722   1.620   7.725   3.346 -2.1262  1.1574 -1.2294
   75MOL    H1532723   1.638   0.031   3.131  3.9625 -2.3758  2.3365
   75MOL    H1632724   1.475   7.765   3.158 -0.6141  0.3286 -3.6119
   75MOL    H1732725   1.522   7.674   2.943 -0.1811  2.0238  1.1485
   75MOL    H1832726   1.653   7.604   3.002  0.2414 -2.0647  2.4834
   75MOL    H1932727   1.457   7.432   2.987  0.3468 -1.0391  1.1424
   75MOL    H2032728   1.361   7.554   3.076  1.0444  1.7218 -0.4428
   75MOL    H2132729   1.466   7.163   3.095 -0.3239 -0.8029 -0.3524
   75MOL    H2232730   1.343   7.249   3.031 -0.6446 -2.7235 -1.3365
   75MOL    H2332731   1.302   7.361   3.256 -0.0458  0.1148 -0.1161
   75MOL    C2432732   1.278   7.107   3.203  0.8606 -0.6709  0.3613
   75MOL    C2532733   1.122   7.144   3.201  0.2450 -0.8400  0.3611
   75MOL    C2632734   1.030   7.044   3.282 -0.0872  0.5428  0.9780
   75MOL    C2732735   0.886   7.091   3.293 -0.2425 -0.2245 -0.2115
   75MOL    C2832736   0.818   7.130   3.162  0.3548  0.3726  0.2438
   75MOL    C2932737   0.904   7.228   3.084  0.5924 -0.3643  0.1031
   75MOL    C3032738   1.049   7.174   3.063  0.1746 -0.3507 -0.4232
   75MOL    C3132739   1.301   6.975   3.126 -0.1742  0.1749  0.3183
   75MOL    H3232740   1.311   7.098   3.307 -0.6410  0.9629  1.0025
   75MOL    H3332741   1.118   7.235   3.260 -1.2916 -1.1985  0.8333
   75MOL    H3432742   1.071   7.045   3.383 -2.1669  1.8394  1.8381
   75MOL    H3532743   1.041   6.943   3.242  0.5375  1.3442 -0.9185
   75MOL    H3632744   0.830   7.017   3.350  2.1525 -0.8113  1.4774
   75MOL    H3732745   0.883   7.185   3.349 -1.7461  0.4191 -1.3656
   75MOL    H3832746   0.718   7.165   3.185  0.1132  0.0428 -0.2903
   75MOL    H3932747   0.809   7.039   3.102  0.7394 -0.5794  1.6205
   75MOL    H4032748   0.868   7.240   2.982  0.7381  0.7637  0.1747
   75MOL    H4132749   0.918   7.321   3.138 -0.3750 -0.4124  0.4422
   75MOL    H4232750   1.056   7.084   3.002 -1.7358 -1.3380  0.7494
   75MOL    H4332751   1.110   7.242   3.004  1.2495  0.7132  1.8561
   75MOL    H4432752   1.289   6.989   3.018  0.7524 -1.5154 -0.0257
   75MOL    H4532753   1.221   6.903   3.143 -1.1707  1.2312  0.1245
   75MOL    C4632754   1.432   6.902   3.146 -0.1315  0.1463 -0.8188
   75MOL    C4732755   1.479   6.829   3.013  0.0682  0.1297 -0.2388
   75MOL    C4832756   1.526   6.930   2.902 -0.3706 -0.3040  0.5003
   75MOL    C4932757   1.594   6.859   2.784 -0.1207  0.8985 -0.4473
   75MOL    C5032758   1.500   6.740   2.728 -0.3095 -0.1653  0.2917
   75MOL    C5132759   1.451   6.650   2.837 -0.1124 -0.6627  0.1820
   75MOL    C5232760   1.387   6.729   2.957 -0.0172 -0.6192  0.0319
   75MOL    C5332761   1.433   6.807   3.271  1.1606 -0.0236 -0.5780
   75MOL    H5432762   1.515   6.971   3.160  0.7401 -0.9766 -0.3132
   75MOL    H5532763   1.571   6.783   3.049 -0.4102 -1.5664 -1.1504
   75MOL    H5632764   1.439   6.970   2.849 -0.2168 -0.1853  0.3347
   75MOL    H5732765   1.588   7.011   2.940 -1.2121  1.1579 -1.1514
   75MOL    H5832766   1.688   6.818   2.820 -1.4746 -0.5371  1.5517
   75MOL    H5932767   1.612   6.927   2.701  0.4511  0.7363 -0.4606
   75MOL    H6032768   1.412   6.774   2.674 -0.2012  1.0727  0.8785
   75MOL    H6132769   1.559   6.684   2.655 -2.7581 -2.5812  0.0935
   75MOL    H6232770   1.522   6.586   2.889  1.0817  1.0718  0.7261
   75MOL    H6332771   1.373   6.578   2.809 -0.5573 -0.0248 -0.2414
   75MOL    H6432772   1.295   6.770   2.916  0.0843 -0.4844 -0.0580
   75MOL    H6532773   1.352   6.651   3.026 -1.7389  0.3211  0.2523
   75MOL    H6632774   1.357   6.731   3.250  1.6386 -0.8146  0.4949
   75MOL    H6732775   1.369   6.852   3.346  0.6397 -0.7040 -0.6032
   75MOL    C6832776   1.566   6.748   3.330  0.1872  0.2527  0.0422
   75MOL    C6932777   1.655   6.870   3.370 -0.3506 -0.1468 -0.8361
   75MOL    C7032778   1.589   6.986   3.455  0.3567 -0.8429  0.1653
   75MOL    C7132779   1.691   7.088   3.503 -0.2103  0.2222 -0.2971
   75MOL    C7232780   1.812   7.026   3.574  0.3354 -0.0946 -0.3927
   75MOL    C7332781   1.874   6.927   3.479 -0.3434  0.2329  0.5763
   75MOL    C7432782   1.776   6.819   3.448 -0.2653  0.0693  0.0635
   75MOL    C7532783   1.547   6.649   3.443 -0.0257 -0.3681 -0.0242
   75MOL    H7632784   1.625   6.698   3.254 -0.8935  1.1713 -1.4267
   75MOL    H7732785   1.689   6.914   3.277  3.4827  1.4721  1.2469
   75MOL    H7832786   1.538   6.946   3.543 -0.5110  2.8003  1.3926
   75MOL    H7932787   1.511   7.034   3.396 -0.0194 -1.4298  0.1761
   75MOL    H8032788   1.729   7.140   3.415  0.9407 -1.0809 -0.5983
   75MOL    H8132789   1.647   7.162   3.570 -0.6450  1.7890 -2.2942
   75MOL    H8232790   1.770   6.982   3.665  1.7493  0.6036  0.6115
   75MOL    H8332791   1.894   7.096   3.587  0.5235 -0.6710  1.8217
   75MOL    H8432792   1.965   6.886   3.524 -0.5044  0.3025  0.9662
   75MOL    H8532793   1.897   6.965   3.380 -0.1545 -0.4674  0.3485
   75MOL    H8632794   1.759   6.782   3.549 -2.1287 -0.4366 -0.4066
   75MOL    H8732795   1.825   6.738   3.394  0.0159 -0.3973  1.0151
   75MOL    H8832796   1.640   6.606   3.479  0.1644 -0.4551 -0.6145
   75MOL    H8932797   1.492   6.700   3.523 -1.5958 -0.0071 -1.2996
   75MOL    C9032798   1.448   6.525   3.418  0.4439 -0.6000  0.9748
   75MOL    C9132799   1.486   6.450   3.285  0.8443  0.3348 -0.1485
   75MOL    C9232800   1.611   6.359   3.295  0.2456  0.4665  0.7534
   75MOL    C9332801   1.651   6.296   3.168 -0.3826  0.0370 -0.1218
   75MOL    C9432802   1.540   6.205   3.121  0.2245 -0.5333  0.8853
   75MOL    C9532803   1.414   6.293   3.098  0.6253  0.2717 -0.6827
   75MOL    C9632804   1.368   6.367   3.225 -0.4605 -0.2510  1.3968
   75MOL    C9732805   1.459   6.436   3.543  0.5934 -0.4421  0.2893
   75MOL    H9832806   1.349   6.570   3.407 -0.6377 -2.9024  1.0533
   75MOL    H9932807   1.506   6.531   3.215  0.2880  1.6472  1.1815
   75MOL   H10032808   1.599   6.289   3.378 -0.0506  1.1514  1.2992
   75MOL   H10132809   1.695   6.415   3.335 -0.8528  0.8592  2.5972
   75MOL   H10232810   1.745   6.244   3.186 -0.0064  0.7642  0.0299
   75MOL   H10332811   1.677   6.369   3.091 -0.4601 -1.4087 -1.5474
   75MOL   H10432812   1.517   6.129   3.196  0.0472 -0.0208  1.3532
   75MOL   H10532813   1.571   6.155   3.029  1.5022  1.6315  0.1190
   75MOL   H10632814   1.424   6.366   3.018  0.2199 -0.5916 -1.5236
   75MOL   H10732815   1.339   6.220   3.070 -0.7300  0.9423  1.1189
   75MOL   H10832816   1.280   6.430   3.213  0.3966  0.7045 -0.0678
   75MOL   H10932817   1.328   6.300   3.301 -3.3134  0.4474  0.5760
   75MOL   H11032818   1.410   6.342   3.519  1.0457 -0.1015 -2.0142
   75MOL   H11132819   1.561   6.405   3.567  0.1497 -1.3980  0.9757
   75MOL   C11232820   1.377   6.509   3.660 -0.5958 -0.3277 -0.1510
   75MOL   C11332821   1.466   6.533   3.789 -0.2717  0.3370 -0.7932
   75MOL   C11432822   1.386   6.610   3.897 -0.1328  0.1831 -0.2401
   75MOL   C11532823   1.462   6.630   4.023 -0.4916  0.3766 -0.0641
   75MOL   C11632824   1.594   6.703   4.000  0.1552 -0.4502 -0.2511
   75MOL   C11732825   1.681   6.635   3.894 -0.3420  0.2164  0.0387
   75MOL   C11832826   1.602   6.611   3.758  0.4778  0.2845  0.0163
   75MOL   C11932827   1.252   6.432   3.693  0.0253 -0.5720 -0.2766
   75MOL   H12032828   1.352   6.612   3.634  1.5333 -0.2052 -1.8373
   75MOL   H12132829   1.483   6.432   3.826  2.2597  1.1127  0.2545
   75MOL   H12232830   1.290   6.569   3.928  0.0457  2.4848  3.6322
   75MOL   H12332831   1.350   6.705   3.855  2.7667  0.1854 -2.8739
   75MOL   H12432832   1.393   6.668   4.097 -0.3694 -3.2285  2.0274
   75MOL   H12532833   1.497   6.530   4.052  0.2597  0.4995 -0.5099
   75MOL   H12632834   1.567   6.800   3.959 -3.0388 -1.0298  0.3003
   75MOL   H12732835   1.661   6.730   4.082 -1.6516 -0.5977  1.3081
   75MOL   H12832836   1.775   6.688   3.880  1.2420 -2.1472  1.2341
   75MOL   H12932837   1.705   6.531   3.917  2.8935  0.0259 -3.8201
   75MOL   H13032838   1.661   6.559   3.682 -1.0699 -1.5577  0.0291
   75MOL   H13132839   1.586   6.712   3.721  1.6195  0.0660 -1.1095
   75MOL   H13232840   1.226   6.438   3.798 -0.5803  0.8612 -0.5000
   75MOL   H13332841   1.280   6.327   3.688  2.3942 -0.0642  1.3846
   75MOL   C13432842   1.125   6.452   3.601  0.0262 -0.5653 -0.3477
   75MOL   C13532843   1.069   6.594   3.602 -0.1242  0.2810  0.0440
   75MOL   C13632844   1.024   6.649   3.737 -0.5822  0.3348 -1.0956
   75MOL   C13732845   1.002   6.796   3.735 -0.1404 -0.9399  0.0345
   75MOL   C13832846   0.882   6.824   3.639  0.6527 -0.2647  0.2527
   75MOL   C13932847   0.900   6.768   3.492  0.2822 -0.4317 -0.4560
   75MOL   C14032848   0.947   6.614   3.507 -0.0194 -0.3334  0.2666
   75MOL   C14132849   1.025   6.338   3.624 -0.2379  0.4147 -0.4707
   75MOL   H14232850   1.173   6.463   3.504  0.9765  1.2874  0.2883
   75MOL   H14332851   1.147   6.665   3.573 -0.3140  0.7659  0.7063
   75MOL   H14432852   0.935   6.593   3.767  0.6854 -1.1259  0.0186
   75MOL   H14532853   1.101   6.616   3.806 -1.5073 -2.1831 -1.2162
   75MOL   H14632854   1.096   6.844   3.706 -1.5410  1.3714 -0.8211
   75MOL   H14732855   0.980   6.840   3.832  1.2629 -2.0578  0.8891
   75MOL   H14832856   0.791   6.778   3.678  1.7520 -1.0386  1.9685
   75MOL   H14932857   0.867   6.932   3.633  1.4763 -0.2017 -0.8726
   75MOL   H15032858   0.964   6.829   3.429 -0.9503  1.4024  0.0273
   75MOL   H15132859   0.805   6.770   3.438  1.6456  1.4396 -2.8878
   75MOL   H15232860   0.862   6.555   3.542 -0.4780  0.7458  1.0116
   75MOL   H15332861   0.964   6.582   3.404 -0.2711 -0.1771  0.1770
   75MOL   H15432862   0.921   6.368   3.607 -0.5745 -0.9555 -0.9045
   75MOL   H15532863   1.009   6.309   3.728 -0.6603  2.4894  0.0585
   75MOL   C15632864   1.057   6.203   3.560 -0.5209 -0.3961  0.2125
   75MOL   C15732865   0.970   6.170   3.439  0.3298 -0.0560  0.4016
   75MOL   C15832866   0.823   6.207   3.440 -0.0085 -0.0795  0.8222
   75MOL   C15932867   0.752   6.137   3.320  0.4386 -0.5074 -0.1600
   75MOL   C16032868   0.812   6.198   3.198 -0.6077 -0.8769 -0.3255
   75MOL   C16132869   0.962   6.187   3.190 -0.1115 -0.3039  1.0170
   75MOL   C16232870   1.026   6.244   3.312  0.0721  1.1317 -0.2742
   75MOL   C16332871   1.048   6.082   3.668  0.1054  0.4077  0.6154
   75MOL   H16432872   1.155   6.216   3.514 -0.8040  2.4888  0.3051
   75MOL   H16532873   0.979   6.062   3.422  0.2757  0.0607 -0.3782
   75MOL   H16632874   0.785   6.172   3.536  2.0409  1.1850  2.1195
   75MOL   H16732875   0.794   6.311   3.424 -1.9766 -0.7540 -0.2213
   75MOL   H16832876   0.756   6.028   3.329 -0.5707 -0.5422 -0.0333
   75MOL   H16932877   0.644   6.152   3.328  0.4577 -1.4652  2.5172
   75MOL   H17032878   0.777   6.300   3.182  0.7928 -0.1231  1.3004
   75MOL   H17132879   0.767   6.150   3.111 -0.5307  0.1838 -0.9640
   75MOL   H17232880   0.999   6.234   3.098 -1.1061  0.5438  1.0325
   75MOL   H17332881   0.990   6.082   3.190  1.1815  0.0381  1.2553
   75MOL   H17432882   1.134   6.240   3.300  0.2434  4.0088  0.1165
   75MOL   H17532883   1.000   6.349   3.325  0.3928  1.2139 -0.2938
   75MOL   H17632884   0.943   6.077   3.698 -0.0959  3.0857  0.4989
   75MOL   H17732885   1.114   6.125   3.744 -0.0133 -0.1150  1.0136
   75MOL   C17832886   1.109   5.942   3.629  0.2460 -0.5916 -0.5889
   75MOL   C17932887   1.251   5.955   3.573 -0.3126 -0.1762 -0.0309
   75MOL   C18032888   1.297   5.832   3.492  0.3206 -0.4503 -0.1279
   75MOL   C18132889   1.428   5.871   3.417 -0.5539 -0.2833  0.0045
   75MOL   C18232890   1.544   5.921   3.511  0.3126 -0.2693 -0.3190
   75MOL   C18332891   1.498   6.028   3.604 -0.0892 -0.2067  0.2272
   75MOL   C18432892   1.362   5.996   3.677  0.1376  0.4286  0.2871
   75MOL   C18532893   1.096   5.846   3.744 -0.2087  0.2793  0.1933
   75MOL   H18632894   1.052   5.894   3.549 -0.2416 -0.2417 -0.4570
   75MOL   H18732895   1.254   6.043   3.508 -0.7304  0.7095  1.1272
   75MOL   H18832896   1.312   5.749   3.561 -2.7029 -1.6666 -0.8437
   75MOL   H18932897   1.224   5.787   3.425  0.2002  0.0224 -0.3217
   75MOL   H19032898   1.410   5.949   3.344 -1.6955  0.3270  0.9259
   75MOL   H19132899   1.456   5.782   3.359 -0.4875 -0.8880  0.9536
   75MOL   H19232900   1.588   5.838   3.566 -0.6925 -1.4008 -1.1739
   75MOL   H19332901   1.619   5.969   3.447  1.3324 -0.6751  0.5668
   75MOL   H19432902   1.480   6.127   3.562 -0.3416  0.5981  2.2075
   75MOL   H19532903   1.573   6.043   3.682 -0.0978 -0.4696  0.2851
   75MOL   H19632904   1.391   5.919   3.749  2.7546  1.4302  0.3594
   75MOL   H19732905   1.336   6.081   3.740 -0.7797 -0.6650  1.4208
   75MOL   H19832906   1.158   5.761   3.715  0.7639  0.4660  1.6660
   75MOL   H19932907   1.140   5.893   3.832  2.2834 -0.2437 -0.7347
   75MOL   C20032908   0.952   5.798   3.772 -0.1279  1.0237  0.0712
   75MOL   C20132909   0.950   5.641   3.785 -0.1466 -0.1671 -0.2724
   75MOL   C20232910   0.967   5.580   3.650 -0.3325  0.1972 -0.3207
   75MOL   C20332911   0.954   5.427   3.651  0.7187  0.1382 -0.3218
   75MOL   C20432912   1.056   5.362   3.739 -0.5525  0.3389  0.1082
   75MOL   C20532913   1.049   5.424   3.883  0.1181 -0.3522 -0.6424
   75MOL   C20632914   1.056   5.579   3.878  0.1559 -0.1131  0.0125
   75MOL   C20732915   0.885   5.863   3.902 -0.0311  0.3865 -0.4685
   75MOL   H20832916   0.886   5.828   3.690 -1.2222 -0.4101  0.4291
   75MOL   H20932917   0.853   5.613   3.829 -1.2164  2.5539 -0.8307
   75MOL   H21032918   1.062   5.615   3.609 -0.0424  1.1976  1.1872
   75MOL   H21132919   0.885   5.620   3.590  0.1641  1.7712  0.0208
   75MOL   H21232920   0.854   5.405   3.689 -0.0800  0.6402 -2.0394
   75MOL   H21332921   0.961   5.387   3.549 -2.3629  1.3425 -1.0786
   75MOL   H21432922   1.041   5.254   3.736 -0.2102  0.3349 -1.6316
   75MOL   H21532923   1.162   5.372   3.718 -0.5148 -0.8996 -0.3329
   75MOL   H21632924   0.959   5.394   3.937 -0.1669  0.1783 -0.8113
   75MOL   H21732925   1.136   5.386   3.936 -1.2871 -1.2568  1.0633
   75MOL   H21832926   1.041   5.623   3.977 -0.8417  0.8316 -0.5457
   75MOL   H21932927   1.155   5.615   3.850  0.2860  2.4522  3.3371
   75MOL   H22032928   0.926   5.825   3.995  0.1788  2.4658  0.3221
   75MOL   H22132929   0.924   5.965   3.905 -0.4384  0.5293 -0.0531
   75MOL   C22232930   0.733   5.858   3.914  0.1476 -0.2635 -0.9933
   75MOL   C22332931   0.687   5.877   4.063 -0.3746  0.4174  0.2813
   75MOL   C22432932   0.737   6.012   4.126  0.4414  0.3922  0.6038
   75MOL   C22532933   0.689   6.026   4.268  0.1796 -0.1808 -0.4430
   75MOL   C22632934   0.706   5.902   4.349 -0.4631  0.1723 -0.4541
   75MOL   C22732935   0.651   5.768   4.287  0.4225  0.2131 -0.2450
   75MOL   C22832936   0.710   5.750   4.149  0.0423 -0.0476 -0.4624
   75MOL   C22932937   0.667   5.964   3.814 -0.5559 -1.1394  0.1387
   75MOL   H23032938   0.711   5.756   3.881  1.5215 -1.2736  1.1483
   75MOL   H23132939   0.579   5.882   4.054 -0.3735  0.9649  0.5679
   75MOL   H23232940   0.846   6.011   4.129  0.4290 -0.8859  0.8240
   75MOL   H23332941   0.701   6.094   4.064  0.3345  0.1543  0.3520
   75MOL   H23432942   0.583   6.046   4.254  0.3192 -0.1507 -1.5654
   75MOL   H23532943   0.727   6.114   4.319  0.5573 -0.8238  0.3994
   75MOL   H23632944   0.812   5.896   4.370 -0.6713  0.4114  0.6651
   75MOL   H23732945   0.655   5.920   4.443  0.9890 -0.5437  0.4812
   75MOL   H23832946   0.542   5.773   4.280  0.3783 -1.0326 -0.6291
   75MOL   H23932947   0.673   5.680   4.347  0.7292  1.0590  0.8852
   75MOL   H24032948   0.815   5.722   4.153  0.3220  0.9611 -0.5691
   75MOL   H24132949   0.665   5.666   4.096 -3.7330  1.0725  0.7523
   75MOL   H24232950   0.733   5.979   3.729 -1.8291  3.2053 -0.2136
   75MOL   H24332951   0.671   6.060   3.865  2.1213 -1.2095  0.1342
   75MOL   C24432952   0.521   5.925   3.772 -0.3163 -0.0043 -0.5925
   75MOL   C24532953   0.495   5.831   3.655  0.0266  0.0536  0.1711
   75MOL   C24632954   0.532   5.683   3.690 -0.4229 -0.2312 -1.0400
   75MOL   C24732955   0.497   5.588   3.578  0.4076 -0.2670  0.0746
   75MOL   C24832956   0.569   5.625   3.451  0.1904 -0.4910  0.5007
   75MOL   C24932957   0.536   5.767   3.401  0.6131 -0.1362 -0.3395
   75MOL   C25032958   0.557   5.869   3.518  0.3187 -0.2920  0.1821
   75MOL   C25132959   0.441   6.051   3.740 -1.1257 -0.3696 -1.0289
   75MOL   H25232960   0.470   5.881   3.858  0.2567  0.2323 -0.1311
   75MOL   H25332961   0.389   5.819   3.632  0.4692 -3.3776 -0.4568
   75MOL   H25432962   0.492   5.655   3.787 -1.1249  0.5636 -1.0910
   75MOL   H25532963   0.638   5.671   3.714 -0.2322  3.3837  0.2909
   75MOL   H25632964   0.509   5.482   3.598  1.1053  0.1807  2.1696
   75MOL   H25732965   0.389   5.603   3.571  0.4571  0.2089  0.3366
   75MOL   H25832966   0.678   5.623   3.459  0.4917 -1.0993 -2.9400
   75MOL   H25932967   0.536   5.553   3.376  3.8536 -1.8148  0.0395
   75MOL   H26032968   0.437   5.781   3.359  1.1550  1.4907 -1.1041
   75MOL   H26132969   0.607   5.779   3.320  0.1768  1.3347 -0.5165
   75MOL   H26232970   0.662   5.892   3.535  1.1499 -3.4459 -0.3156
   75MOL   H26332971   0.512   5.963   3.487 -1.3657 -1.0838  0.1691
   75MOL   H26432972   0.469   6.103   3.648  0.1222  1.0003  0.0727
   75MOL   H26532973   0.484   6.127   3.806  0.3489 -0.2334 -2.1076
   75MOL   C26632974   0.286   6.055   3.759  0.8497 -0.2639  0.5899
   75MOL   C26732975   0.236   5.994   3.898 -0.4088 -0.3076 -0.1145
   75MOL   C26832976   0.083   5.994   3.918  0.1319 -0.0683  0.4290
   75MOL   C26932977   0.044   5.915   4.046 -0.1664  0.1842 -0.6730
   75MOL   C27032978   0.115   5.970   4.174 -0.0891  0.9495 -0.0529
   75MOL   C27132979   0.265   5.960   4.146  0.3244 -0.2982  0.4789
   75MOL   C27232980   0.314   6.043   4.029  0.3140 -0.0452  0.1554
   75MOL   C27332981   0.231   6.204   3.748  0.2310 -0.7379 -0.0250
   75MOL   H27432982   0.248   5.980   3.691  0.3577  1.0225 -0.5755
   75MOL   H27532983   0.265   5.889   3.897  1.2721  0.1591 -1.9009
   75MOL   H27632984   0.039   6.093   3.927  0.0296 -0.0837  0.0996
   75MOL   H27732985   0.048   5.955   3.822  1.0276  0.4258 -0.1002
   75MOL   H27832986   0.063   5.809   4.031  0.1033  0.4328 -2.1673
   75MOL   H27932987   7.709   5.927   4.064 -0.1982 -3.1847  1.9794
   75MOL   H28032988   0.092   6.075   4.190 -0.2106  0.7683  0.9731
   75MOL   H28132989   0.088   5.918   4.266  0.9577 -1.4379 -1.0475
   75MOL   H28232990   0.308   5.860   4.139  0.7727 -0.1024  0.3774
   75MOL   H28332991   0.324   5.989   4.234  1.1000 -1.5753  0.3997
   75MOL   H28432992   0.422   6.032   4.027  0.4155  0.8627 -3.3427
   75MOL   H28532993   0.305   6.151   4.041 -1.4864 -0.1945  0.2822
   75MOL   H28632994   0.306   6.262   3.802 -2.6286  0.5683  2.7826
   75MOL   H28732995   0.144   6.228   3.810  0.6442 -2.1957  1.1559
   75MOL   C28832996   0.230   6.261   3.601 -0.3226 -0.3960 -0.7348
   75MOL   C28932997   0.300   6.397   3.580 -0.3398  0.1020  0.2498
   75MOL   C29032998   0.250   6.508   3.673  0.4501  0.5583 -0.6611
   75MOL   C29132999   0.313   6.646   3.650  0.0487 -0.4761 -0.5398
   75MOL   C29233000   0.470   6.638   3.653 -0.2205 -0.4871 -1.0694
   75MOL   C29333001   0.519   6.527   3.556 -0.1147 -0.2900 -0.2122
   75MOL   C29433002   0.448   6.388   3.579 -0.2397  0.4286  0.3936
   75MOL   C29533003   0.086   6.263   3.536 -0.0535 -0.1356  0.7568
   75MOL   H29633004   0.287   6.179   3.556  2.1415  0.5475  0.5580
   75MOL   H29733005   0.278   6.433   3.479  0.7536  1.0752  0.3454
   75MOL   H29833006   0.141   6.509   3.668  0.3706  0.1079  0.8660
   75MOL   H29933007   0.275   6.478   3.774  0.3655 -0.4105 -0.9214
   75MOL   H30033008   0.267   6.683   3.559 -0.6849 -0.0230  0.0145
   75MOL   H30133009   0.272   6.719   3.720  1.8531  0.0170  0.0379
   75MOL   H30233010   0.508   6.617   3.753  1.0976  0.9458 -1.2417
   75MOL   H30333011   0.514   6.737   3.635  1.4731 -1.0532 -0.1606
   75MOL   H30433012   0.626   6.507   3.558  0.0896  0.2050 -3.9383
   75MOL   H30533013   0.494   6.560   3.455  1.0378 -0.2639 -0.4911
   75MOL   H30633014   0.476   6.335   3.670 -0.6901 -1.1646 -0.3710
   75MOL   H30733015   0.474   6.316   3.501  1.0600  0.0683  1.1457
   75MOL   H30833016   0.040   6.175   3.582 -0.2612  0.4098  1.5895
   75MOL   H30933017   0.031   6.354   3.560 -0.2978 -0.3285  0.9293
   75MOL   C31033018   0.091   6.252   3.381 -0.3195  0.3174 -0.2894
   75MOL   C31133019   0.137   6.113   3.333  0.4433  0.1438 -0.5664
   75MOL   C31233020   0.036   6.000   3.362  0.5454  0.0610  0.1735
   75MOL   C31333021   0.106   5.855   3.339 -0.1747 -0.1778  0.3428
   75MOL   C31433022   0.179   5.840   3.199  0.0898 -0.6820 -0.2056
   75MOL   C31533023   0.264   5.972   3.165  0.2349  0.5096  0.1350
   75MOL   C31633024   0.182   6.100   3.184  0.4014 -0.3226 -0.1237
   75MOL   C31733025   7.723   6.276   3.322  0.6886  0.4943 -0.5305
   75MOL   H31833026   0.163   6.319   3.334  1.8276 -1.3786  0.5178
   75MOL   H31933027   0.227   6.091   3.391 -1.9918 -0.5494  3.1295
   75MOL   H32033028   0.010   5.993   3.468  1.7511  2.4293  0.6593
   75MOL   H32133029   7.714   6.010   3.308  1.8957  2.0675 -1.8942
   75MOL   H32233030   0.028   5.779   3.334  1.5137 -1.9567  0.6097
   75MOL   H32333031   0.174   5.833   3.421 -1.1217 -1.2561  0.8637
   75MOL   H32433032   0.256   5.762   3.199  1.0825  0.2875  0.3727
   75MOL   H32533033   0.108   5.823   3.118 -0.0792 -1.0528  0.0209
   75MOL   H32633034   0.358   5.975   3.222  1.0294 -0.3938 -1.1073
   75MOL   H32733035   0.303   5.966   3.064 -0.2386  0.2804 -0.0335
   75MOL   H32833036   0.091   6.105   3.125  0.7736 -2.1737 -0.8738
   75MOL   H32933037   0.246   6.179   3.145 -1.7931  1.8993  0.6269
   75MOL   H33033038   7.661   6.218   3.391  2.0268  1.5280  1.6116
   75MOL   H33133039   7.712   6.243   3.219  2.0321  0.3368 -0.6305
   75MOL   C33233040   7.691   6.424   3.313 -0.1718  0.0120  0.0494
   75MOL   C33333041   7.541   6.465   3.341  0.5265 -0.1420  0.4879
   75MOL   C33433042   7.498   6.444   3.490 -0.2930  0.7771 -0.4423
   75MOL   C33533043   7.348   6.477   3.516 -0.7195  0.0852 -0.6221
   75MOL   C33633044   7.258   6.401   3.411 -0.4939 -0.2518  0.4453
   75MOL   C33733045   7.306   6.432   3.272 -1.0052  0.4012  0.4778
   75MOL   C33833046   7.452   6.388   3.245 -0.9379 -0.3481  0.1863
   75MOL   C33933047   7.746   6.481   3.176  0.4906  0.2245  0.3085
   75MOL   H34033048   7.741   6.473   3.396  0.1704  1.9991 -1.2789
   75MOL   H34133049   7.523   6.570   3.319 -1.3474 -0.7901 -1.0882
   75MOL   H34233050   7.503   6.338   3.514  2.0808  1.1631  0.9846
   75MOL   H34333051   7.558   6.501   3.561 -0.8395 -0.9966  1.5082
   75MOL   H34433052   7.328   6.451   3.620  3.8307 -0.0120  0.3326
   75MOL   H34533053   7.340   6.586   3.515 -0.2777  0.1424  0.5354
   75MOL   H34633054   7.263   6.293   3.427 -1.2441 -0.4577 -0.6551
   75MOL   H34733055   7.151   6.419   3.412 -0.6034 -0.8602  0.1021
   75MOL   H34833056   7.291   6.539   3.256  0.4863  0.5879  0.1968
   75MOL   H34933057   7.242   6.374   3.205 -1.7394  1.2324  0.4636
   75MOL   H35033058   7.469   6.415   3.140 -0.8370 -1.7790 -0.1673
   75MOL   H35133059   7.467   6.282   3.262 -0.3772 -0.4627 -0.9954
   75MOL   H35233060   7.680   6.446   3.096  1.0826 -0.9027  0.2990
   75MOL   H35333061   0.069   6.427   3.171  0.9965  1.1751 -0.5618
   75MOL   C35433062   7.766   6.639   3.152 -0.8316  0.5249 -0.5832
   75MOL   C35533063   0.029   6.681   3.004 -0.3084 -0.5501  0.0567
   75MOL   C35633064   7.682   6.739   2.927 -0.4709  0.8035  0.1430
   75MOL   C35733065   7.741   6.790   2.787  0.2392  0.5091 -0.3228
   75MOL   C35833066   0.028   6.674   2.712 -0.6448 -0.1631  0.2604
   75MOL   C35933067   0.140   6.611   2.787  0.5928  0.4599  0.3634
   75MOL   C36033068   0.087   6.562   2.922 -0.0021 -0.1917  0.5718
   75MOL   C36133069   0.109   6.683   3.251 -0.0322 -0.0471  0.1578
   75MOL   H36233070   7.677   6.697   3.177 -1.4851 -2.0966  3.6655
   75MOL   H36333071   0.105   6.759   3.008 -0.2124 -0.5682 -1.3961
   75MOL   H36433072   7.633   6.823   2.975 -0.6807  0.9327 -0.2993
   75MOL   H36533073   7.597   6.671   2.917 -0.4559  0.9150 -0.7905
   75MOL   H36633074   7.657   6.824   2.727 -0.1983  0.6143  0.3388
   75MOL   H36733075   0.035   6.877   2.787  0.8320  0.1037 -2.7943
   75MOL   H36833076   7.732   6.595   2.679  1.8178 -1.9013 -0.8172
   75MOL   H36933077   0.066   6.720   2.621 -0.4934  0.7343  0.7721
   75MOL   H37033078   0.169   6.524   2.729  0.3886  1.5328 -1.3989
   75MOL   H37133079   0.231   6.670   2.797  0.7122  0.3848 -0.2706
   75MOL   H37233080   0.175   6.534   2.980  2.5727 -0.1450 -3.1026
   75MOL   H37333081   0.017   6.479   2.926  0.3581 -0.5592 -0.5275
   75MOL   H37433082   0.211   6.659   3.221  0.3120  1.2859  0.2008
   75MOL   H37533083   0.093   6.638   3.349  3.9342  1.2254  1.5045
   75MOL   C37633084   0.105   6.836   3.278 -0.7160 -0.0158  0.5722
   75MOL   C37733085   7.759   6.878   3.373  0.0391 -0.0840 -0.1208
   75MOL   C37833086   7.747   7.027   3.380 -0.2208  0.0510  0.6166
   75MOL   C37933087   7.618   7.066   3.450 -0.6085  0.2439  0.6982
   75MOL   C38033088   7.613   7.017   3.595  0.0516 -0.5113  0.0224
   75MOL   C38133089   7.633   6.862   3.595 -0.5279  0.8720  0.1418
   75MOL   C38233090   7.755   6.821   3.519 -0.1807 -0.2583  0.3936
   75MOL   C38333091   0.250   6.885   3.321  0.2896  0.5969  0.3464
   75MOL   H38433092   0.076   6.887   3.186 -2.0025 -0.5697  0.6644
   75MOL   H38533093   7.664   6.847   3.329  1.1102 -0.9672 -1.8250
   75MOL   H38633094   0.056   7.087   3.422 -1.0891  1.4912  0.2911
   75MOL   H38733095   7.735   7.073   3.282  0.0356 -0.9120  0.1260
   75MOL   H38833096   7.527   7.026   3.406 -0.0997 -0.0034 -0.1455
   75MOL   H38933097   7.614   7.175   3.453  0.3575  0.2809  0.8198
   75MOL   H39033098   7.691   7.073   3.647 -0.0113 -0.0031 -0.4266
   75MOL   H39133099   7.520   7.044   3.643  0.9919  0.2699  1.4448
   75MOL   H39233100   7.646   6.830   3.699 -1.8239  3.2414  1.0644
   75MOL   H39333101   7.544   6.811   3.559  0.3667  0.2266 -1.2248
   75MOL   H39433102   0.067   6.856   3.578 -0.4665  0.1532  0.5626
   75MOL   H39533103   7.745   6.712   3.519 -3.2799 -0.0485  2.4022
   75MOL   H39633104   0.282   6.818   3.401 -1.0588 -2.0271 -1.2293
   75MOL   H39733105   0.257   6.987   3.358 -1.8501  0.5232  1.0184
   75MOL   C39833106   0.346   6.897   3.200  0.1486 -0.1175  0.5061
   75MOL   C39933107   0.365   7.048   3.164 -0.1847  0.1324  0.1407
   75MOL   C40033108   0.474   7.071   3.057 -0.2769 -0.3901  0.5396
   75MOL   C40133109   0.484   7.219   3.006  0.3095 -0.5896  0.0199
   75MOL   C40233110   0.350   7.269   2.949 -0.1201 -0.5488 -0.2498
   75MOL   C40333111   0.252   7.258   3.063  0.2838  0.2432 -0.5462
   75MOL   C40433112   0.230   7.111   3.107 -0.1138 -0.2205 -0.3311
   75MOL   C40533113   0.470   6.806   3.236  0.3388 -0.8330  0.4566
   75MOL   H40633114   0.304   6.856   3.108 -0.4101  2.7804 -0.6040
   75MOL   H40733115   0.410   7.101   3.248  0.0839 -1.2221  0.8514
   75MOL   H40833116   0.449   7.001   2.977  1.5240 -1.2416  0.7048
   75MOL   H40933117   0.574   7.044   3.090 -0.2369 -2.3258 -1.0417
   75MOL   H41033118   0.563   7.224   2.931 -1.1023 -0.5292 -1.4951
   75MOL   H41133119   0.517   7.281   3.089  0.1545 -0.5742  0.0710
   75MOL   H41233120   0.318   7.212   2.862 -1.9594  0.8051 -0.5070
   75MOL   H41333121   0.359   7.373   2.915  1.5527 -0.4665  0.4152
   75MOL   H41433122   0.289   7.316   3.148 -0.4314 -0.5967  0.3389
   75MOL   H41533123   0.154   7.299   3.038  0.1901  0.9979  0.9984
   75MOL   H41633124   0.156   7.110   3.187  0.4955 -0.5874  0.2429
   75MOL   H41733125   0.201   7.046   3.024 -1.5633  0.7667 -0.6157
   75MOL   H41833126   0.536   6.851   3.310  2.1088 -4.6151  1.3032
   75MOL   H41933127   0.439   6.725   3.302 -0.6839 -1.4584 -0.7803
   75MOL   C42033128   0.552   6.738   3.130  0.3957  0.3774  0.2828
   75MOL   C42133129   0.485   6.605   3.081  0.1856 -0.2073 -0.0444
   75MOL   C42233130   0.494   6.493   3.193  0.2966 -0.2475  0.4242
   75MOL   C42333131   0.430   6.369   3.151  0.1858  0.2486  0.3316
   75MOL   C42433132   0.481   6.318   3.018 -0.6414 -0.8453 -0.0350
   75MOL   C42533133   0.462   6.425   2.913  0.3330  0.5844  0.3560
   75MOL   C42633134   0.543   6.553   2.955 -0.8319 -0.4543 -0.3358
   75MOL   C42733135   0.689   6.707   3.190 -0.5071 -0.2352 -0.5803
   75MOL   H42833136   0.563   6.811   3.050  0.1811 -0.4965 -0.5668
   75MOL   H42933137   0.384   6.638   3.054  0.4030 -1.1566 -2.0786
   75MOL   H43033138   0.598   6.479   3.223  1.0775  2.0377 -1.0208
   75MOL   H43133139   0.425   6.519   3.273 -0.5408  0.5625 -0.5366
   75MOL   H43233140   0.448   6.300   3.233  1.9148  2.0388  1.5045
   75MOL   H43333141   0.324   6.392   3.151  0.1932  0.3215 -0.7588
   75MOL   H43433142   0.420   6.233   2.988 -1.2939 -1.5724  3.1338
   75MOL   H43533143   0.582   6.276   3.014 -0.4699 -0.3524 -0.9534
   75MOL   H43633144   0.358   6.455   2.901 -0.0383 -1.0362 -0.6017
   75MOL   H43733145   0.502   6.395   2.816  2.7709  1.6798  0.9701
   75MOL   H43833146   0.648   6.523   2.960 -1.0026 -1.3778 -1.9897
   75MOL   H43933147   0.525   6.627   2.878 -0.4920  0.9749  0.9254
   75MOL   H44033148   0.745   6.634   3.130  0.6990  0.4376 -0.2886
   75MOL   H44133149   0.752   6.795   3.201 -0.8204 -0.0754 -0.0626
   75MOL   H44233150   0.685   6.663   3.289  1.0465 -0.3940 -0.5698
   76MOL     C133151   2.700   0.221   5.841  1.1786  0.6146 -0.4086
   76MOL     C233152   2.578   0.264   5.924  0.3720  0.2698  0.3556
   76MOL     C333153   2.605   0.240   6.077  0.1742 -0.0606 -0.1578
   76MOL     C433154   2.478   0.282   6.156 -0.5979 -0.2632  0.6507
   76MOL     C533155   2.349   0.210   6.107 -0.9541 -0.4950 -0.1813
   76MOL     C633156   2.329   0.224   5.954  0.2143 -0.0990  0.5429
   76MOL     C733157   2.462   0.182   5.874 -0.3771  0.3208  0.1360
   76MOL     C833158   2.826   0.304   5.866 -0.6132 -0.4101  0.0076
   76MOL     H933159   2.724   0.116   5.855  1.6064  0.9001  1.0805
   76MOL    H1033160   2.567   0.372   5.911 -1.9425 -0.3879 -3.9331
   76MOL    H1133161   2.631   0.134   6.084 -1.4354 -0.7102 -3.2573
   76MOL    H1233162   2.691   0.302   6.103  1.4872 -1.5206 -0.8779
   76MOL    H1333163   2.464   0.389   6.148  0.7649 -0.0697  0.8203
   76MOL    H1433164   2.499   0.262   6.261 -0.1851  1.1281  0.8370
   76MOL    H1533165   2.256   0.246   6.150 -0.1314 -1.1047  2.1923
   76MOL    H1633166   2.356   0.103   6.128  0.1902 -0.1815  1.1474
   76MOL    H1733167   2.245   0.161   5.926  0.8734 -0.0535 -1.6166
   76MOL    H1833168   2.314   0.327   5.923 -1.0044 -0.3673  0.2008
   76MOL    H1933169   2.449   0.193   5.766 -1.2039  0.3050  0.2312
   76MOL    H2033170   2.483   0.075   5.878 -0.2076  0.2403 -2.2652
   76MOL    H2133171   2.878   0.261   5.951  0.8560  1.1746 -0.0514
   76MOL    H2233172   2.809   0.401   5.911  0.6527 -0.1808  0.0255
   76MOL    H2333173   2.669   0.232   5.737 -1.9505  2.9595  0.6875
   76MOL    C2433174   2.918   0.326   5.744  0.0045  0.4389  0.5196
   76MOL    C2533175   2.971   0.467   5.726  0.2904  0.0276 -0.0535
   76MOL    C2633176   3.024   0.512   5.590 -0.1013  0.8363  0.0361
   76MOL    C2733177   3.066   0.661   5.595  0.2713  0.2314 -0.0648
   76MOL    C2833178   3.173   0.687   5.701  0.4017  0.5323 -0.1281
   76MOL    C2933179   3.118   0.649   5.841 -0.5336  0.4847 -0.2271
   76MOL    C3033180   3.078   0.498   5.843 -0.0151  0.0841  0.6913
   76MOL    C3133181   3.008   0.205   5.717 -1.2461 -0.3528 -0.2070
   76MOL    H3233182   2.853   0.321   5.656  2.5244 -0.3125 -1.3371
   76MOL    H3333183   2.890   0.532   5.759  0.0955 -0.4278  0.3615
   76MOL    H3433184   2.949   0.497   5.512  0.4221 -0.2860 -0.2606
   76MOL    H3533185   3.110   0.453   5.560  0.9645  3.6435 -2.7328
   76MOL    H3633186   3.118   0.677   5.501  0.9123 -0.6546  0.1402
   76MOL    H3733187   2.988   0.736   5.607  0.9071  0.9021 -0.0873
   76MOL    H3833188   3.202   0.792   5.693 -2.2131  1.2813 -0.3903
   76MOL    H3933189   3.258   0.623   5.678 -1.1184 -1.6114 -0.0237
   76MOL    H4033190   3.197   0.664   5.914 -0.5275  0.7544 -0.2911
   76MOL    H4133191   3.047   0.722   5.880  2.2228  2.8595  0.4348
   76MOL    H4233192   3.169   0.444   5.815  0.3272  0.2376  1.4937
   76MOL    H4333193   3.047   0.468   5.943 -2.0082  0.2500  0.1349
   76MOL    H4433194   3.068   0.196   5.807  0.1355 -0.4565 -1.1210
   76MOL    H4533195   3.089   0.240   5.654 -1.9012  4.3618  1.3662
   76MOL    C4633196   2.955   0.076   5.656 -0.0083  0.5892  0.0586
   76MOL    C4733197   2.998   7.730   5.735 -0.0307 -0.2694 -0.2144
   76MOL    C4833198   3.134   7.671   5.709 -0.3893  0.6490  0.7031
   76MOL    C4933199   3.167   7.548   5.801 -0.2331  0.2143  0.4005
   76MOL    C5033200   3.057   7.443   5.799  0.2450  0.5800  0.0762
   76MOL    C5133201   2.925   7.502   5.835 -0.8403 -0.1540  0.6967
   76MOL    C5233202   2.894   7.615   5.735 -0.4573  0.6253 -0.8449
   76MOL    C5333203   2.990   0.065   5.507  0.3248 -0.7208 -0.3421
   76MOL    H5433204   2.846   0.078   5.654  0.0042  0.4422 -2.0582
   76MOL    H5533205   3.009   7.771   5.836  1.1271 -0.9978 -0.0277
   76MOL    H5633206   3.138   7.649   5.603 -0.7259  0.6307  0.6925
   76MOL    H5733207   3.214   7.744   5.721 -0.6626  0.6613  2.6090
   76MOL    H5833208   3.167   7.597   5.898  2.7484 -2.4951  1.8396
   76MOL    H5933209   3.266   7.509   5.778 -0.1833  1.3171 -1.4033
   76MOL    H6033210   3.055   7.389   5.704  0.0140 -1.0056  0.9488
   76MOL    H6133211   3.078   7.368   5.875 -0.4155 -0.2086 -0.5078
   76MOL    H6233212   2.927   7.541   5.937 -0.6469  0.3446  0.5016
   76MOL    H6333213   2.850   7.423   5.830 -1.0333  0.0492  0.3184
   76MOL    H6433214   2.891   7.563   5.638  0.5440 -0.1695 -0.4534
   76MOL    H6533215   2.795   7.652   5.760  1.0022  3.0502  1.4669
   76MOL    H6633216   2.958   7.739   5.470  0.3197 -0.6007 -0.6631
   76MOL    H6733217   3.096   0.073   5.484  0.1669 -0.1288 -0.8897
   76MOL    C6833218   2.924   0.162   5.406 -0.5317 -0.5000 -0.6101
   76MOL    C6933219   3.030   0.234   5.330 -1.2104 -0.5426  0.3018
   76MOL    C7033220   3.119   0.150   5.235  0.4382  0.0559  0.8020
   76MOL    C7133221   3.242   0.238   5.192 -0.0854  0.7980 -0.0321
   76MOL    C7233222   3.206   0.368   5.127  0.6467  0.5095  0.5018
   76MOL    C7333223   3.115   0.446   5.221 -0.3243 -0.2177 -0.4378
   76MOL    C7433224   2.987   0.368   5.257  1.3625 -0.0363 -0.2951
   76MOL    C7533225   2.815   0.104   5.303  0.5232  0.4964 -0.7226
   76MOL    H7633226   2.885   0.247   5.463  2.1860 -0.2131  0.9014
   76MOL    H7733227   3.092   0.282   5.406  0.3685 -0.7189 -0.8469
   76MOL    H7833228   3.057   0.121   5.150  1.2175  0.4419  0.0949
   76MOL    H7933229   3.157   0.060   5.282  1.0294 -0.5077 -0.7192
   76MOL    H8033230   3.295   0.259   5.285 -0.5394  1.2124  0.1360
   76MOL    H8133231   3.301   0.175   5.125  0.2990 -0.2533  1.2680
   76MOL    H8233232   3.151   0.368   5.033  0.0302 -0.6643  0.8455
   76MOL    H8333233   3.290   0.434   5.103 -0.5475  0.6283 -3.7051
   76MOL    H8433234   3.088   0.531   5.158 -0.0998 -1.4463 -2.2274
   76MOL    H8533235   3.165   0.486   5.309  0.7273 -0.6045 -0.8498
   76MOL    H8633236   2.924   0.349   5.170  0.5175 -2.5026  0.8091
   76MOL    H8733237   2.937   0.433   5.328  1.4079 -3.1885  2.7690
   76MOL    H8833238   2.804   0.181   5.226 -1.1573 -0.6249 -1.6497
   76MOL    H8933239   2.863   0.020   5.253 -1.3407 -0.4605 -0.9545
   76MOL    C9033240   2.667   0.073   5.358 -0.0701  0.0602  0.7045
   76MOL    C9133241   2.644   7.707   5.426 -0.0880  0.2570 -0.2123
   76MOL    C9233242   2.496   7.674   5.466 -0.2346 -0.4316  0.0034
   76MOL    C9333243   2.480   7.529   5.534  0.3251  0.1026  0.3163
   76MOL    C9433244   2.517   7.429   5.420  0.2119  0.2825 -0.0358
   76MOL    C9533245   2.664   7.450   5.392 -0.6207 -0.4096 -0.0306
   76MOL    C9633246   2.705   7.590   5.336 -0.6100 -0.8226 -0.1982
   76MOL    C9733247   2.589   0.195   5.427  0.0951  0.0679  0.7662
   76MOL    H9833248   2.608   0.062   5.267 -1.3709 -0.0809  1.5639
   76MOL    H9933249   2.689   7.707   5.526  2.6845 -2.0553 -1.3537
   76MOL   H10033250   2.417   7.682   5.391  0.1291 -3.0373 -0.7238
   76MOL   H10133251   2.479   7.748   5.543  1.0163  0.4685 -0.5675
   76MOL   H10233252   2.379   7.515   5.571  0.7546 -1.2549  0.9924
   76MOL   H10333253   2.541   7.526   5.624  0.8927  2.4795  0.0354
   76MOL   H10433254   2.451   7.435   5.334  1.5299 -0.7165 -1.1366
   76MOL   H10533255   2.502   7.327   5.458 -0.2687 -0.2643 -1.6535
   76MOL   H10633256   2.713   7.431   5.487 -1.3883 -1.2510  0.2050
   76MOL   H10733257   2.714   7.372   5.335  0.0371  0.8075 -1.1447
   76MOL   H10833258   2.813   7.592   5.319 -0.5905  0.6768 -0.0051
   76MOL   H10933259   2.655   7.588   5.240  2.5710  1.7266 -1.9901
   76MOL   H11033260   2.486   0.161   5.438  0.4448 -0.1593  3.7820
   76MOL   H11133261   2.641   0.206   5.523 -0.4315  1.6017  0.8791
   76MOL   C11233262   2.610   0.341   5.365 -0.0616  0.2573  0.2747
   76MOL   C11333263   2.606   0.452   5.477  0.3025 -0.8777 -0.6520
   76MOL   C11433264   2.472   0.453   5.558 -0.2434  0.4057  0.0968
   76MOL   C11533265   2.477   0.563   5.661  0.2319 -0.4133 -0.5405
   76MOL   C11633266   2.522   0.699   5.611  0.3433  0.3590 -0.1245
   76MOL   C11733267   2.658   0.693   5.545 -0.2676 -0.1285  0.0349
   76MOL   C11833268   2.660   0.591   5.431 -0.5362  0.5624  0.0921
   76MOL   C11933269   2.505   0.374   5.255 -0.3481  0.4552 -0.3577
   76MOL   H12033270   2.707   0.353   5.317  0.4847  1.3865  1.6270
   76MOL   H12133271   2.677   0.422   5.554  0.4897  1.1175 -0.0108
   76MOL   H12233272   2.457   0.353   5.598 -0.4767 -0.7338 -2.7380
   76MOL   H12333273   2.396   0.481   5.485  1.6570  0.9407 -1.7350
   76MOL   H12433274   2.381   0.581   5.709  0.4507  1.3892 -0.7358
   76MOL   H12533275   2.538   0.520   5.740  0.0907 -0.6951 -0.5808
   76MOL   H12633276   2.444   0.740   5.546 -0.8770 -2.7349 -0.7122
   76MOL   H12733277   2.533   0.776   5.687 -0.7097  1.5154 -1.1157
   76MOL   H12833278   2.694   0.789   5.510 -0.3292 -0.2118 -0.2546
   76MOL   H12933279   2.729   0.651   5.617  0.8945  1.3639 -0.2304
   76MOL   H13033280   2.763   0.594   5.396 -0.0847  0.5374  1.3942
   76MOL   H13133281   2.605   0.635   5.348  0.5535  0.8371 -0.4933
   76MOL   H13233282   2.501   0.482   5.240  3.1397  0.6966  0.1490
   76MOL   H13333283   2.404   0.349   5.287 -0.0064 -0.3101  0.1352
   76MOL   C13433284   2.523   0.313   5.117 -0.5730 -0.0152 -0.3657
   76MOL   C13533285   2.645   0.365   5.034 -0.6555 -0.0395 -0.0728
   76MOL   C13633286   2.639   0.512   4.981 -0.5129 -0.1919 -0.2536
   76MOL   C13733287   2.763   0.549   4.902  0.3236 -0.1227 -0.6847
   76MOL   C13833288   2.799   0.447   4.789 -0.3884 -0.7332  0.5808
   76MOL   C13933289   2.826   0.307   4.851 -0.5183  0.0388  0.3415
   76MOL   C14033290   2.696   0.266   4.919 -0.3753 -0.0023  0.8395
   76MOL   C14133291   2.403   0.338   5.019 -0.2844  0.1334  0.0013
   76MOL   H14233292   2.556   0.209   5.115  0.2740  0.2631 -1.2709
   76MOL   H14333293   2.719   0.360   5.114  1.2619 -0.0657 -1.8017
   76MOL   H14433294   2.557   0.516   4.909  0.0402 -1.5532 -0.9818
   76MOL   H14533295   2.617   0.574   5.068 -3.0986 -1.7021  0.2398
   76MOL   H14633296   2.847   0.577   4.967 -0.5027 -1.0001  0.7864
   76MOL   H14733297   2.736   0.642   4.851 -0.6839 -0.3174 -0.5121
   76MOL   H14833298   2.718   0.446   4.715  1.3858 -1.1734 -1.4183
   76MOL   H14933299   2.885   0.487   4.735 -1.6325  1.4717  0.1772
   76MOL   H15033300   2.905   0.294   4.924 -2.8355  1.6774  3.2894
   76MOL   H15133301   2.838   0.229   4.776  1.4615  0.8031 -0.1698
   76MOL   H15233302   2.625   0.277   4.837  2.1810  0.7335 -1.3758
   76MOL   H15333303   2.695   0.160   4.945  0.4706 -0.3405 -0.4855
   76MOL   H15433304   2.437   0.335   4.915 -2.2227 -3.3081 -0.5965
   76MOL   H15533305   2.354   0.435   5.024 -0.1496  0.1557  0.9778
   76MOL   C15633306   2.307   0.214   5.035 -0.1201 -0.2143  0.1684
   76MOL   C15733307   2.347   0.075   4.984  0.3783 -0.2238  0.3699
   76MOL   C15833308   2.271   7.722   5.052  0.0980  0.5659  0.2196
   76MOL   C15933309   2.326   7.593   4.997  0.4529 -0.1386  0.0930
   76MOL   C16033310   2.315   7.587   4.840 -0.0432  0.7604  0.1000
   76MOL   C16133311   2.392   7.705   4.769 -0.0817 -0.0102  0.7836
   76MOL   C16233312   2.356   0.070   4.830 -0.1110 -0.6174 -0.2769
   76MOL   C16333313   2.178   0.267   4.972  0.1184  0.2905 -0.4290
   76MOL   H16433314   2.281   0.209   5.141 -0.2082  0.8923  0.2113
   76MOL   H16533315   2.450   0.050   5.010  1.6408  1.0978 -3.0143
   76MOL   H16633316   2.283   7.722   5.160  3.2412 -0.4448 -0.0543
   76MOL   H16733317   2.165   7.714   5.031 -0.5210 -2.8438  3.8912
   76MOL   H16833318   2.430   7.574   5.024  0.6667  0.6781 -0.1504
   76MOL   H16933319   2.285   7.502   5.041 -2.4596 -0.5617 -3.2483
   76MOL   H17033320   2.207   7.593   4.824 -0.0101 -0.3168 -0.5012
   76MOL   H17133321   2.347   7.492   4.798 -0.3553  1.3610 -1.5316
   76MOL   H17233322   2.380   7.709   4.660  1.6178  0.1421  0.5793
   76MOL   H17333323   2.497   7.677   4.777 -0.0264  0.4657  1.7857
   76MOL   H17433324   2.422   0.147   4.790 -0.2680 -1.5512 -2.3420
   76MOL   H17533325   2.256   0.090   4.793  0.6014  1.9254 -0.9344
   76MOL   H17633326   2.113   0.184   4.945  0.0139  0.0813  0.4545
   76MOL   H17733327   2.198   0.318   4.877 -1.3873  2.5648  0.4503
   76MOL   C17833328   2.091   0.348   5.068 -0.1356  0.2503  0.0737
   76MOL   C17933329   2.034   0.479   4.996 -0.1109  0.7278 -0.4293
   76MOL   C18033330   1.919   0.446   4.896  0.0355  0.1748 -1.1040
   76MOL   C18133331   1.852   0.563   4.848 -0.1560 -0.4362  0.1658
   76MOL   C18233332   1.950   0.643   4.772  0.2322 -0.3271  0.4860
   76MOL   C18333333   2.075   0.686   4.848 -0.2077  0.0067 -0.4355
   76MOL   C18433334   2.144   0.576   4.931 -0.6337  1.2628  0.1714
   76MOL   C18533335   1.981   0.260   5.132  0.7784  0.0998  0.2985
   76MOL   H18633336   2.144   0.381   5.157 -0.4220  0.2331  0.2525
   76MOL   H18733337   1.983   0.538   5.073 -0.8647 -1.1920  0.5808
   76MOL   H18833338   1.961   0.380   4.819  0.7079  0.7017 -1.2015
   76MOL   H18933339   1.844   0.381   4.941 -1.3932  1.6387 -1.3437
   76MOL   H19033340   1.813   0.616   4.935 -0.0166 -1.8864  1.1329
   76MOL   H19133341   1.778   0.522   4.780  0.4638 -0.8060 -0.2881
   76MOL   H19233342   1.968   0.600   4.674 -0.8177 -0.1502  0.2039
   76MOL   H19333343   1.903   0.737   4.743  1.0011  0.6030  2.1697
   76MOL   H19433344   2.052   0.759   4.925 -3.1598  1.0512 -2.2089
   76MOL   H19533345   2.147   0.739   4.784  0.5195 -1.3443 -0.7478
   76MOL   H19633346   2.213   0.527   4.863  0.3137  1.8463  0.7125
   76MOL   H19733347   2.213   0.607   5.009 -1.8359  2.0920  0.9286
   76MOL   H19833348   1.903   0.318   5.181  0.1634  1.0751 -1.7825
   76MOL   H19933349   1.924   0.217   5.050 -2.0808  0.3910  2.0908
   76MOL   C20033350   2.020   0.153   5.244  0.0813  0.4137 -0.2466
   76MOL   C20133351   2.079   0.219   5.370 -0.1661 -0.9494 -0.0124
   76MOL   C20233352   1.988   0.335   5.426 -0.5124  0.0440 -0.1556
   76MOL   C20333353   2.047   0.410   5.553 -0.5712 -0.0028 -0.3217
   76MOL   C20433354   2.094   0.302   5.657  0.5024 -0.1222  0.0429
   76MOL   C20533355   2.190   0.204   5.589 -0.4650 -0.1115 -0.1805
   76MOL   C20633356   2.122   0.125   5.480 -0.5532 -0.2858 -0.1514
   76MOL   C20733357   1.893   0.066   5.268  0.0310 -0.0940  0.2559
   76MOL   H20833358   2.100   0.092   5.202 -0.8804 -1.8147  1.0830
   76MOL   H20933359   2.169   0.274   5.344  0.3234 -1.4923  0.5097
   76MOL   H21033360   1.889   0.291   5.442  0.4049 -1.6378  1.0816
   76MOL   H21133361   1.971   0.408   5.347 -0.2783 -1.5521 -1.7110
   76MOL   H21233362   2.135   0.471   5.530  0.3769 -0.6820  1.3975
   76MOL   H21333363   1.968   0.476   5.588  0.5083  0.8209  0.6006
   76MOL   H21433364   2.145   0.354   5.738  1.4423  0.1154 -0.7089
   76MOL   H21533365   2.018   0.240   5.705 -0.6015  1.6025  0.5848
   76MOL   H21633366   2.280   0.252   5.548 -0.1383  0.4322  1.1542
   76MOL   H21733367   2.228   0.143   5.670 -0.8375 -1.2316 -0.8361
   76MOL   H21833368   2.185   0.051   5.431 -1.7661 -0.4035 -1.5799
   76MOL   H21933369   2.039   0.070   5.524  1.2744 -2.8455  0.1694
   76MOL   H22033370   1.870   0.072   5.374 -0.1445 -2.2630  0.3562
   76MOL   H22133371   1.808   0.120   5.225  0.7435  0.7775 -0.0762
   76MOL   C22233372   1.897   7.701   5.208 -0.2959  0.4982 -0.2381
   76MOL   C22333373   1.978   7.607   5.300 -0.9813 -0.6139 -0.3231
   76MOL   C22433374   2.039   7.478   5.234  0.3390  0.3375 -0.0624
   76MOL   C22533375   2.139   7.399   5.322  0.6329 -0.2055  0.9422
   76MOL   C22633376   2.088   7.369   5.461 -0.0225 -0.4519 -0.3758
   76MOL   C22733377   2.027   7.503   5.522 -0.9863 -0.3400 -0.0519
   76MOL   C22833378   1.919   7.567   5.432 -0.3471  0.2783  0.1165
   76MOL   C22933379   1.760   7.648   5.170 -0.1058  0.2698  0.3176
   76MOL   H23033380   1.953   7.721   5.117  1.0655  0.2995  0.5328
   76MOL   H23133381   2.062   7.670   5.328  0.8048 -2.2329 -1.8993
   76MOL   H23233382   1.957   7.408   5.214  0.5975 -0.0254  0.1340
   76MOL   H23333383   2.089   7.505   5.141  0.3082 -2.7899 -1.0558
   76MOL   H23433384   2.233   7.455   5.323  1.2448 -1.0241 -2.5214
   76MOL   H23533385   2.178   7.309   5.273  0.2483  0.2722 -0.2704
   76MOL   H23633386   2.021   7.284   5.464 -1.5721  0.7860  2.3284
   76MOL   H23733387   2.164   7.323   5.524 -1.2978 -2.2601 -0.1341
   76MOL   H23833388   2.110   7.572   5.539 -1.7879  0.4021  0.8852
   76MOL   H23933389   1.997   7.482   5.624 -1.5704 -1.1782 -0.3979
   76MOL   H24033390   1.834   7.499   5.426 -0.7380  0.2834  4.2209
   76MOL   H24133391   1.882   7.651   5.490  0.4488  1.2297 -0.7397
   76MOL   H24233392   1.678   7.688   5.230  1.5861  0.7138  2.4008
   76MOL   H24333393   1.765   7.546   5.207  0.0574  0.1867  0.0644
   76MOL   C24433394   1.744   7.631   5.020  0.4011  0.2002  0.8642
   76MOL   C24533395   1.727   7.766   4.948 -0.1383  1.2093 -0.1948
   76MOL   C24633396   1.580   0.046   4.943  0.7567  0.4106 -0.0629
   76MOL   C24733397   1.566   0.173   4.861  0.7796 -0.7208 -0.4195
   76MOL   C24833398   1.610   0.175   4.716  0.3991  0.2047  0.1062
   76MOL   C24933399   1.758   0.128   4.713  0.3736 -0.4292 -0.6856
   76MOL   C25033400   1.782   7.763   4.799  0.3647 -0.0216  0.1925
   76MOL   C25133401   1.647   7.521   4.982 -0.1939 -0.4917 -0.2665
   76MOL   H25233402   1.843   7.592   4.995  1.2558  1.7347  1.7873
   76MOL   H25333403   1.794   0.063   4.998  0.4600  0.5728 -0.1167
   76MOL   H25433404   1.553   0.075   5.044 -0.1585 -1.2699  0.1782
   76MOL   H25533405   1.513   7.739   4.909  2.1509 -1.0054  0.4561
   76MOL   H25633406   1.466   0.216   4.866  0.0463 -2.2718 -1.2491
   76MOL   H25733407   1.623   0.258   4.897 -0.5190 -0.4344  0.9921
   76MOL   H25833408   1.539   0.119   4.656  0.4005 -0.6641  0.9089
   76MOL   H25933409   1.607   0.274   4.671 -1.7034  0.8752  1.6195
   76MOL   H26033410   1.828   0.202   4.751  1.5605 -1.2690 -1.1878
   76MOL   H26133411   1.777   0.115   4.606 -0.9969  0.8931 -1.1186
   76MOL   H26233412   1.722   7.686   4.749  0.8016 -1.5879  2.0114
   76MOL   H26333413   1.884   7.728   4.814  0.5955  0.1339 -0.9745
   76MOL   H26433414   1.596   7.560   4.893  1.6615  0.4774 -0.9254
   76MOL   H26533415   1.569   7.517   5.058  0.5991  0.9781  0.6424
   76MOL   C26633416   1.719   7.385   4.952  0.1844  0.2003  0.1649
   76MOL   C26733417   1.620   7.268   4.983 -0.7714  0.2541 -0.1252
   76MOL   C26833418   1.683   7.124   4.975  0.0277 -0.9502  0.6406
   76MOL   C26933419   1.583   7.003   4.985 -0.2565 -0.3119 -0.6273
   76MOL   C27033420   1.462   7.030   4.889  0.0912  0.0066  0.4116
   76MOL   C27133421   1.402   7.164   4.923  0.2090 -0.5960 -0.7407
   76MOL   C27233422   1.493   7.280   4.893 -0.5501 -1.1128 -0.5928
   76MOL   C27333423   1.814   7.375   4.821  0.5033  0.3432  0.3886
   76MOL   H27433424   1.791   7.372   5.034 -2.6279 -1.4416  2.4697
   76MOL   H27533425   1.575   7.283   5.081 -1.5747  1.0512 -0.6080
   76MOL   H27633426   1.740   7.105   4.884 -0.1993  0.6374  0.1486
   76MOL   H27733427   1.766   7.110   5.044  1.0661 -2.6321 -0.8953
   76MOL   H27833428   1.538   7.007   5.084 -0.8744  1.0339 -0.9432
   76MOL   H27933429   1.639   6.913   4.962  2.1505  0.9032  0.2553
   76MOL   H28033430   1.485   7.028   4.783  0.2659  1.3901  0.4180
   76MOL   H28133431   1.384   6.956   4.908  0.2391  0.0948  1.4275
   76MOL   H28233432   1.381   7.164   5.030 -1.9780 -1.3212 -1.1345
   76MOL   H28333433   1.304   7.187   4.882  0.5941  2.1273 -0.1941
   76MOL   H28433434   1.437   7.373   4.906 -0.2101 -1.1436  1.3649
   76MOL   H28533435   1.513   7.268   4.787  0.8866 -2.4775 -0.1789
   76MOL   H28633436   1.890   7.306   4.856 -0.9682 -0.9065  1.1494
   76MOL   H28733437   1.873   7.466   4.830  1.4253 -0.4243  2.2880
   76MOL   C28833438   1.764   7.348   4.678  1.1408  0.6568 -1.0180
   76MOL   C28933439   1.888   7.307   4.591  0.2821  0.5456 -0.3284
   76MOL   C29033440   2.005   7.404   4.591  0.0991 -1.2159  0.0474
   76MOL   C29133441   2.120   7.358   4.492 -0.4353 -0.2804  0.0292
   76MOL   C29233442   2.168   7.209   4.522 -0.3537  0.6942 -0.0378
   76MOL   C29333443   2.051   7.109   4.541 -0.0951 -0.1863  0.0541
   76MOL   C29433444   1.937   7.161   4.634  0.4835  0.4316  0.0187
   76MOL   C29533445   1.683   7.461   4.619  0.2369 -0.0864  0.2774
   76MOL   H29633446   1.700   7.262   4.694  1.8710  0.3560  0.3099
   76MOL   H29733447   1.867   7.296   4.485  0.7558 -1.5226 -0.2288
   76MOL   H29833448   1.987   7.510   4.571  1.3439 -0.9500  0.2693
   76MOL   H29933449   2.059   7.415   4.685  0.2580  0.9474 -0.2791
   76MOL   H30033450   2.091   7.360   4.387 -2.8041 -1.0211  0.6290
   76MOL   H30133451   2.206   7.424   4.501 -0.0944 -1.1349  4.0777
   76MOL   H30233452   2.237   7.206   4.606 -2.7717  0.3337  2.0076
   76MOL   H30333453   2.228   7.176   4.438  1.0513 -0.1172  1.2749
   76MOL   H30433454   2.091   7.019   4.587  0.0614 -0.5353 -0.7593
   76MOL   H30533455   2.004   7.080   4.447  1.2802 -4.8560  0.6824
   76MOL   H30633456   1.974   7.153   4.737 -3.1214 -0.7984  1.2856
   76MOL   H30733457   1.856   7.089   4.628 -1.4573  2.7923 -3.4620
   76MOL   H30833458   1.615   7.503   4.693  0.0195  1.4819 -0.7801
   76MOL   H30933459   1.757   7.538   4.595  0.1957 -0.0218  0.3600
   76MOL   C31033460   1.591   7.447   4.490 -0.0711  0.8299 -0.2916
   76MOL   C31133461   1.452   7.513   4.514  0.5478 -0.4089  0.5614
   76MOL   C31233462   1.344   7.440   4.596 -0.6196 -0.7053  0.5944
   76MOL   C31333463   1.210   7.503   4.555  0.6502 -0.0630  0.4811
   76MOL   C31433464   1.198   7.649   4.588 -0.1305 -0.3975 -0.0954
   76MOL   C31533465   1.316   7.728   4.524  0.9418  0.0451 -0.0787
   76MOL   C31633466   1.453   7.667   4.554  0.0013  0.0919  0.4056
   76MOL   C31733467   1.670   7.502   4.368  0.2656  0.1363  0.3179
   76MOL   H31833468   1.578   7.339   4.477 -2.3940  1.0344  0.1218
   76MOL   H31933469   1.408   7.503   4.416 -2.2368  0.2149  1.7184
   76MOL   H32033470   1.361   7.335   4.572 -0.6138 -0.7296  0.7025
   76MOL   H32133471   1.363   7.449   4.703  0.1543 -2.0168  0.5846
   76MOL   H32233472   1.137   7.457   4.621 -3.1968  2.8345 -1.4977
   76MOL   H32333473   1.183   7.484   4.451  0.7618 -2.0407  0.8085
   76MOL   H32433474   1.104   7.686   4.548 -0.1708  0.6259  0.9288
   76MOL   H32533475   1.190   7.661   4.696  1.5343  0.6745 -0.0694
   76MOL   H32633476   1.312   7.739   4.416 -1.9043  0.9555  0.0591
   76MOL   H32733477   1.297   0.055   4.567  0.2462 -0.2728  0.3613
   76MOL   H32833478   1.483   7.691   4.656  0.3345  0.2083  0.2802
   76MOL   H32933479   1.529   7.716   4.493  1.3969 -2.8730 -0.3457
   76MOL   H33033480   1.768   7.457   4.358  0.6020  0.7144  0.9371
   76MOL   H33133481   1.692   7.607   4.391 -0.9974  0.0874  1.8522
   76MOL   C33233482   1.607   7.497   4.226 -0.2030  0.2057  0.5777
   76MOL   C33333483   1.568   7.362   4.157 -0.4332  0.2443  0.3627
   76MOL   C33433484   1.435   7.303   4.214 -0.7655 -0.3350 -0.3902
   76MOL   C33533485   1.401   7.172   4.148  0.9320  0.5510 -0.1148
   76MOL   C33633486   1.523   7.068   4.161 -0.2576 -0.0308 -0.3808
   76MOL   C33733487   1.652   7.125   4.093  0.3206  0.0101 -0.1901
   76MOL   C33833488   1.689   7.260   4.159  0.2515 -0.3982  0.0970
   76MOL   C33933489   1.695   7.581   4.125  0.6734  0.3272  0.8169
   76MOL   H34033490   1.514   7.553   4.235  0.1822  0.9333  0.0130
   76MOL   H34133491   1.553   7.379   4.050 -1.1219  0.8935  0.5583
   76MOL   H34233492   1.447   7.289   4.321 -1.1675  1.6841 -0.0590
   76MOL   H34333493   1.360   7.382   4.216 -1.1436 -0.6840 -0.6469
   76MOL   H34433494   1.305   7.135   4.185 -0.0614 -1.2201 -4.1162
   76MOL   H34533495   1.367   7.186   4.045 -1.5117  0.2803  0.6098
   76MOL   H34633496   1.543   7.049   4.266 -0.9710  1.8033  0.1123
   76MOL   H34733497   1.505   6.966   4.127  0.0784 -0.3328  0.3433
   76MOL   H34833498   1.639   7.141   3.986 -0.8482  1.0462  0.1007
   76MOL   H34933499   1.730   7.049   4.102 -1.2224 -1.4613  1.1354
   76MOL   H35033500   1.777   7.310   4.119 -0.6650  1.1175 -0.0557
   76MOL   H35133501   1.726   7.239   4.259  2.2650  0.5590 -0.4099
   76MOL   H35233502   1.653   7.573   4.024  4.0738  1.9107 -0.8038
   76MOL   H35333503   1.798   7.547   4.131  0.2426 -0.7645  2.2249
   76MOL   C35433504   1.705   7.736   4.149 -0.0203  0.2276  0.0590
   76MOL   C35533505   1.560   0.036   4.148 -0.1718 -0.2444  0.0496
   76MOL   C35633506   1.476   0.008   4.018 -0.3456  0.8203  0.1334
   76MOL   C35733507   1.343   0.069   4.027  0.3690 -0.0222  0.4580
   76MOL   C35833508   1.349   0.219   4.037 -0.0002 -0.0133  0.4454
   76MOL   C35933509   1.436   0.258   4.162  0.3045  0.9300  0.2606
   76MOL   C36033510   1.566   0.185   4.171  0.0777 -0.2546  0.1230
   76MOL   C36133511   1.804   0.032   4.046 -0.1149  0.0707  0.3848
   76MOL   H36233512   1.745   7.744   4.250 -0.1493 -1.1724  0.2264
   76MOL   H36333513   1.505   7.770   4.234 -0.1798 -0.8052 -0.2048
   76MOL   H36433514   1.462   7.672   4.012  1.6183  0.4656  1.2134
   76MOL   H36533515   1.520   0.046   3.926  1.3617 -1.3370  0.0101
   76MOL   H36633516   1.290   0.044   3.935 -0.5605  1.7044  0.5000
   76MOL   H36733517   1.283   0.022   4.104  0.1755 -0.4093  0.0754
   76MOL   H36833518   1.386   0.271   3.949 -3.8792  2.5602  0.2176
   76MOL   H36933519   1.249   0.262   4.045  0.5857  1.2449  1.2246
   76MOL   H37033520   1.439   0.367   4.158 -1.8597  1.0401  1.2084
   76MOL   H37133521   1.377   0.245   4.252 -2.4499 -0.1045 -1.6140
   76MOL   H37233522   1.597   0.214   4.272 -1.1496 -0.8596  0.6806
   76MOL   H37333523   1.639   0.229   4.103  0.6339  1.5681  1.8145
   76MOL   H37433524   1.742   0.083   3.972 -0.1057  1.2384  1.1613
   76MOL   H37533525   1.856   7.717   4.007  0.9266  0.8236  0.0823
   76MOL   C37633526   1.910   0.138   4.098 -0.9333 -0.1059  0.0541
   76MOL   C37733527   2.044   0.065   4.131 -0.0048  0.0074  0.2472
   76MOL   C37833528   2.114   7.743   4.022 -0.1433  0.1110 -0.1161
   76MOL   C37933529   2.254   7.709   4.066  0.1637  0.0614 -0.0055
   76MOL   C38033530   2.249   7.631   4.197 -0.4013  0.0341 -0.0948
   76MOL   C38133531   2.179   7.708   4.306 -0.1426  0.1815 -0.0292
   76MOL   C38233532   2.043   7.755   4.259  0.0296 -0.3749 -0.0006
   76MOL   C38333533   1.927   0.256   3.999  0.3741  0.1997  0.2085
   76MOL   H38433534   1.877   0.185   4.190 -0.3551  0.9577 -0.2735
   76MOL   H38533535   2.117   0.143   4.153 -1.4916  0.7654  2.5431
   76MOL   H38633536   2.059   7.650   4.004 -0.2748  0.0134  0.7360
   76MOL   H38733537   2.109   0.022   3.926 -0.0834 -0.2098 -0.2911
   76MOL   H38833538   2.319   0.023   4.077 -0.4463  0.5470 -0.1519
   76MOL   H38933539   2.303   7.647   3.991  0.3066 -0.8077  0.7930
   76MOL   H39033540   2.205   7.534   4.174  2.2371 -1.4050  0.7120
   76MOL   H39133541   2.352   7.612   4.226  0.0615 -0.1157 -1.7876
   76MOL   H39233542   2.171   7.645   4.395 -1.6401  1.7331  0.9591
   76MOL   H39333543   2.243   0.021   4.327 -0.2348 -0.0001  1.0221
   76MOL   H39433544   1.976   7.672   4.281  1.6915 -1.0951  2.5659
   76MOL   H39533545   2.004   0.059   4.326 -0.9200 -1.2579  0.4549
   76MOL   H39633546   1.857   0.254   3.915  0.5098  0.3584  0.0907
   76MOL   H39733547   2.030   0.253   3.964 -0.4273  0.5877 -2.3000
   76MOL   C39833548   1.907   0.398   4.069  0.4557  0.4308  0.1018
   76MOL   C39933549   2.027   0.432   4.168 -0.1083  0.2166  0.3748
   76MOL   C40033550   2.157   0.477   4.094  0.6153  0.4962 -0.3260
   76MOL   C40133551   2.268   0.496   4.198 -0.5087 -0.2466  0.5729
   76MOL   C40233552   2.228   0.601   4.308 -0.4073  0.2190 -0.2040
   76MOL   C40333553   2.086   0.573   4.372 -0.3012  0.0932 -0.4086
   76MOL   C40433554   1.979   0.540   4.268 -0.0372 -0.4810  0.3708
   76MOL   C40533555   1.875   0.507   3.964  0.2575  0.4727 -0.3096
   76MOL   H40633556   1.821   0.389   4.135  0.6332  0.1240  0.2910
   76MOL   H40733557   2.046   0.347   4.234  0.8099 -1.3230 -1.8155
   76MOL   H40833558   2.137   0.561   4.028  0.7877 -0.0733 -1.1006
   76MOL   H40933559   2.176   0.406   4.014  1.7630 -1.1515  1.3847
   76MOL   H41033560   2.365   0.513   4.151 -1.5990  1.3713 -1.1894
   76MOL   H41133561   2.271   0.398   4.244  1.6426 -0.4624  0.0074
   76MOL   H41233562   2.237   0.708   4.289 -1.3418  0.9148  2.9855
   76MOL   H41333563   2.296   0.597   4.393  0.1424  3.0200 -0.4624
   76MOL   H41433564   2.084   0.487   4.439 -1.7947 -0.2037 -0.8003
   76MOL   H41533565   2.062   0.654   4.441 -1.6478  0.7711 -1.6443
   76MOL   H41633566   1.886   0.502   4.312  0.0905 -0.5368  0.5913
   76MOL   H41733567   1.949   0.629   4.212 -1.1861 -1.3987 -0.4976
   76MOL   H41833568   1.900   0.609   3.996 -1.3258  0.5780  0.6005
   76MOL   H41933569   1.943   0.500   3.879  1.8196  0.4831  0.8969
   76MOL   C42033570   1.727   0.527   3.918  0.5833  0.3861 -0.5434
   76MOL   C42133571   1.703   0.611   3.790  0.2424  0.5591  0.7315
   76MOL   C42233572   1.751   0.535   3.665  0.1948  0.1313 -0.2579
   76MOL   C42333573   1.715   0.610   3.532  0.1459 -0.3496  0.1839
   76MOL   C42433574   1.769   0.752   3.536 -0.8396  0.6997 -0.4868
   76MOL   C42533575   1.737   0.832   3.665  0.7061 -0.4452 -0.5466
   76MOL   C42633576   1.762   0.753   3.794 -0.3874  0.1148  0.3957
   76MOL   C42733577   1.641   0.579   4.032  0.5001  0.6835 -0.3166
   76MOL   H42833578   1.686   0.429   3.893  0.4844  0.3084 -0.0772
   76MOL   H42933579   1.597   0.632   3.777  0.4848  3.1464  2.5307
   76MOL   H43033580   1.859   0.519   3.660  0.3655  1.3773 -0.7016
   76MOL   H43133581   1.703   0.437   3.664 -1.7468  1.0662 -2.6186
   76MOL   H43233582   1.745   0.563   3.438 -1.8603 -1.0779 -0.1282
   76MOL   H43333583   1.607   0.621   3.525  0.4429  2.3873 -0.8801
   76MOL   H43433584   1.740   0.815   3.452 -0.4988  1.2217 -0.2188
   76MOL   H43533585   1.877   0.740   3.522 -0.8971  0.4644 -0.7372
   76MOL   H43633586   1.637   0.874   3.650  0.5690 -0.5225  0.1088
   76MOL   H43733587   1.797   0.923   3.665  1.6205 -1.0408  0.2855
   76MOL   H43833588   1.869   0.739   3.810 -0.3672 -0.5256 -0.2916
   76MOL   H43933589   1.726   0.816   3.875  0.9813  2.3437 -0.6887
   76MOL   H44033590   1.537   0.581   4.000  0.1986  1.1889  0.6614
   76MOL   H44133591   1.639   0.516   4.121  1.7037 -0.0050 -0.7683
   76MOL   H44233592   1.653   0.687   4.035  0.8185  0.6730 -1.0721
   77MOL     C133593   2.324   5.285   6.063  0.1740  0.7963  0.0533
   77MOL     C233594   2.181   5.221   6.034 -0.0902  0.5110  0.0991
   77MOL     C333595   2.154   5.167   5.890 -0.1396  0.7344  0.6709
   77MOL     C433596   2.014   5.121   5.868 -0.1674  0.7305 -0.1266
   77MOL     C533597   1.902   5.214   5.915  0.0725  0.8233  0.0823
   77MOL     C633598   1.930   5.259   6.058 -0.2326 -0.0669  0.5964
   77MOL     C733599   2.070   5.325   6.068 -0.4130  0.4561  0.4330
   77MOL     C833600   2.441   5.178   6.049 -0.2370 -0.0078  0.0079
   77MOL     H933601   2.343   5.368   5.995  0.5369  0.4998 -0.2099
   77MOL    H1033602   2.176   5.124   6.085 -0.9069  0.0081 -0.9206
   77MOL    H1133603   2.172   5.241   5.811 -1.9739  1.4791  0.9363
   77MOL    H1233604   2.228   5.090   5.867 -1.2920 -0.1685 -0.0858
   77MOL    H1333605   1.990   5.026   5.914 -0.6348  2.3260  3.0837
   77MOL    H1433606   1.998   5.109   5.761 -0.6279  1.1581 -0.1109
   77MOL    H1533607   1.806   5.163   5.903  0.4104  0.2100 -0.0540
   77MOL    H1633608   1.901   5.305   5.854 -1.3499  1.0698  0.4479
   77MOL    H1733609   1.859   5.333   6.094 -0.7504 -0.4742  0.4248
   77MOL    H1833610   1.918   5.173   6.125 -0.1436  0.8654  1.8194
   77MOL    H1933611   2.094   5.369   6.165  1.8727 -2.6649  1.3545
   77MOL    H2033612   2.077   5.403   5.992  0.0654 -0.4752 -0.5062
   77MOL    H2133613   2.457   5.166   5.942 -0.4259 -1.6010  0.1393
   77MOL    H2233614   2.400   5.078   6.064 -0.1829  0.0061  0.2502
   77MOL    H2333615   2.336   5.311   6.168  0.3170  1.5563 -0.1511
   77MOL    C2433616   2.582   5.210   6.113 -0.6903 -0.1402  0.0732
   77MOL    C2533617   2.669   5.081   6.134  0.6130 -0.2783 -0.3029
   77MOL    C2633618   2.669   4.978   6.022 -0.3912 -0.7768  0.2952
   77MOL    C2733619   2.771   4.865   6.042  0.3692  0.1344 -0.0747
   77MOL    C2833620   2.733   4.797   6.173 -0.2496 -0.3602  0.3196
   77MOL    C2933621   2.724   4.887   6.292 -0.2919  0.5037  0.3154
   77MOL    C3033622   2.630   5.008   6.265 -0.3153 -0.0336  0.0798
   77MOL    C3133623   2.654   5.315   6.018  0.8278  0.8320  0.0117
   77MOL    H3233624   2.573   5.253   6.213  0.0606 -1.6080  0.7776
   77MOL    H3333625   2.772   5.109   6.155  0.0242  0.7949  1.2692
   77MOL    H3433626   2.689   5.033   5.930 -2.0633 -0.7196 -0.0557
   77MOL    H3533627   2.569   4.938   6.003 -1.1622  2.4832 -3.0388
   77MOL    H3633628   2.766   4.793   5.960 -1.4739 -1.5955  1.5086
   77MOL    H3733629   2.876   4.895   6.045  0.4742 -0.1004 -1.1057
   77MOL    H3833630   2.796   4.708   6.184  0.2986 -0.1342 -0.8538
   77MOL    H3933631   2.634   4.757   6.153 -1.1736  1.5818  0.8716
   77MOL    H4033632   2.709   4.840   6.389 -0.1707  1.7457  0.9367
   77MOL    H4133633   2.824   4.930   6.300  1.8523 -3.8433 -1.1397
   77MOL    H4233634   2.525   4.980   6.260 -0.9518  2.4090 -1.1623
   77MOL    H4333635   2.641   5.077   6.349  0.0166  1.1132 -0.8916
   77MOL    H4433636   2.591   5.332   5.931  1.3489  0.5332 -0.4281
   77MOL    H4533637   2.740   5.257   5.984 -0.5943 -1.9830  0.9799
   77MOL    C4633638   2.694   5.441   6.095 -0.0225  0.0409  0.0699
   77MOL    C4733639   2.726   5.562   5.990  0.1293  0.1560  0.3336
   77MOL    C4833640   2.607   5.636   5.925  0.6239  0.4369  0.0501
   77MOL    C4933641   2.656   5.756   5.844 -0.2581 -0.4044  0.2203
   77MOL    C5033642   2.744   5.714   5.729  0.0648 -0.8580 -0.1916
   77MOL    C5133643   2.860   5.629   5.782  0.2393 -0.0401  0.5533
   77MOL    C5233644   2.820   5.514   5.880  0.0156 -0.6390  0.2507
   77MOL    C5333645   2.804   5.418   6.206  0.2115  0.5702 -0.0390
   77MOL    H5433646   2.607   5.471   6.152  0.6812  0.3026  1.0176
   77MOL    H5533647   2.772   5.645   6.043  1.6335  1.7623 -3.3111
   77MOL    H5633648   2.556   5.565   5.859  0.5887  0.6587 -0.1662
   77MOL    H5733649   2.538   5.661   6.005  0.6750 -0.4041  0.3516
   77MOL    H5833650   2.714   5.819   5.911 -0.9894  0.2302  0.2689
   77MOL    H5933651   2.572   5.807   5.796  1.2585  1.1688 -0.8110
   77MOL    H6033652   2.700   5.659   5.645  0.4360 -0.7595 -0.4552
   77MOL    H6133653   2.766   5.807   5.676 -1.7803 -0.9241 -1.0924
   77MOL    H6233654   2.943   5.692   5.812 -0.8729  1.0779  1.3373
   77MOL    H6333655   2.898   5.567   5.701 -0.5818  0.3799 -0.1641
   77MOL    H6433656   2.770   5.443   5.814 -0.8018  0.7641 -0.6640
   77MOL    H6533657   2.906   5.469   5.929  1.9449  1.0769 -1.4589
   77MOL    H6633658   2.890   5.369   6.160 -0.0267  0.0304  0.0810
   77MOL    H6733659   2.769   5.342   6.277 -1.6060  0.2949 -1.1969
   77MOL    C6833660   2.855   5.548   6.290  0.2232  0.3681  0.4048
   77MOL    C6933661   2.723   5.622   6.343  0.0760  0.2931 -0.1585
   77MOL    C7033662   2.630   5.530   6.428 -0.3776 -0.0129  0.4752
   77MOL    C7133663   2.497   5.594   6.479  0.5635 -0.0226  0.1178
   77MOL    C7233664   2.527   5.718   6.559 -0.0357  0.0157  0.8014
   77MOL    C7333665   2.617   5.814   6.479 -0.2963 -0.5781  0.0220
   77MOL    C7433666   2.754   5.745   6.438 -0.0005 -0.3881  0.5332
   77MOL    C7533667   2.957   5.516   6.403 -0.4062 -0.4856 -0.3631
   77MOL    H7633668   2.906   5.610   6.217 -1.9276  0.1219 -1.3682
   77MOL    H7733669   2.677   5.672   6.257  1.7998 -1.1170 -1.9615
   77MOL    H7833670   2.691   5.499   6.513 -0.2270  1.4357  0.9115
   77MOL    H7933671   2.606   5.428   6.399 -1.5311  0.3957 -0.0199
   77MOL    H8033672   2.434   5.604   6.390 -1.1407 -0.6268  1.2374
   77MOL    H8133673   2.454   5.521   6.547  0.9575  1.5067  2.0342
   77MOL    H8233674   2.567   5.689   6.656 -0.1612  1.1747  1.1983
   77MOL    H8333675   2.431   5.760   6.588 -0.7865 -1.2610  0.2164
   77MOL    H8433676   2.629   5.903   6.542 -0.5944  0.4000 -1.2660
   77MOL    H8533677   2.566   5.840   6.386 -0.3622 -1.8728 -0.3090
   77MOL    H8633678   2.788   5.702   6.531  1.1727 -0.7402 -0.0546
   77MOL    H8733679   2.824   5.819   6.399  1.1066 -0.9618  1.4161
   77MOL    H8833680   2.982   5.617   6.438 -2.1056 -0.5421  1.0391
   77MOL    H8933681   2.902   5.470   6.484 -0.2275  0.1173  0.1062
   77MOL    C9033682   3.086   5.438   6.371 -0.2299  0.2284 -0.0473
   77MOL    C9133683   3.192   5.497   6.472 -0.2446  0.1867 -0.0408
   77MOL    C9233684   3.236   5.647   6.440 -0.7270 -0.4160 -0.6621
   77MOL    C9333685   3.360   5.677   6.529  0.5995 -0.6102  0.0832
   77MOL    C9433686   3.310   5.663   6.681  0.0070 -0.0086 -0.1379
   77MOL    C9533687   3.268   5.520   6.717 -1.1587 -0.0319  0.3288
   77MOL    C9633688   3.156   5.481   6.623 -0.0851  0.2151 -0.2883
   77MOL    C9733689   3.075   5.286   6.395  0.6290  0.5794  0.3958
   77MOL    H9833690   3.116   5.464   6.270  1.7940 -0.9245  0.2395
   77MOL    H9933691   3.280   5.435   6.453 -0.5406 -0.4076  0.4842
   77MOL   H10033692   3.157   5.713   6.474  0.0468  0.6505 -0.9332
   77MOL   H10133693   3.245   5.658   6.332  1.4730  0.4867 -0.4085
   77MOL   H10233694   3.390   5.778   6.503  0.5631 -0.3909  0.8810
   77MOL   H10333695   3.438   5.603   6.510  0.0602 -0.6817 -1.9209
   77MOL   H10433696   3.230   5.732   6.709 -0.2790  0.3276 -1.7421
   77MOL   H10533697   3.389   5.681   6.754 -0.1785 -0.1655  0.1003
   77MOL   H10633698   3.354   5.454   6.708 -1.5309 -0.6651  1.3291
   77MOL   H10733699   3.245   5.505   6.823  0.1119  0.3681  0.6796
   77MOL   H10833700   3.148   5.373   6.637  2.2884  0.0191 -0.3715
   77MOL   H10933701   3.065   5.539   6.642 -0.3729 -0.0992 -0.6855
   77MOL   H11033702   3.012   5.264   6.481  0.0614 -0.0652 -0.1907
   77MOL   H11133703   3.017   5.243   6.314 -0.2562  0.8943  0.8527
   77MOL   C11233704   3.207   5.205   6.401 -0.6871  0.1741 -0.4828
   77MOL   C11333705   3.302   5.226   6.284  0.0056  0.8132  0.5852
   77MOL   C11433706   3.256   5.153   6.152 -0.0497  0.6879  0.5432
   77MOL   C11533707   3.372   5.157   6.049 -0.2303  0.0978 -0.8661
   77MOL   C11633708   3.498   5.091   6.105  0.0919 -0.0084 -0.6067
   77MOL   C11733709   3.554   5.172   6.223  0.3346  0.0697  0.0335
   77MOL   C11833710   3.444   5.178   6.328 -0.2408 -0.9248 -0.4380
   77MOL   C11933711   3.171   5.060   6.441  0.2040  0.1877  0.2071
   77MOL   H12033712   3.269   5.235   6.486  0.0840 -0.3153 -0.8730
   77MOL   H12133713   3.320   5.333   6.270 -0.3987  0.6020 -1.7322
   77MOL   H12233714   3.175   5.214   6.113  0.6267  1.6298  0.6037
   77MOL   H12333715   3.222   5.049   6.159  1.5830  0.1192  0.1811
   77MOL   H12433716   3.339   5.108   5.957 -1.1959 -1.7924  0.4714
   77MOL   H12533717   3.383   5.262   6.019 -2.3521  0.6117  0.0640
   77MOL   H12633718   3.475   4.988   6.133  1.2124 -0.5646 -1.6804
   77MOL   H12733719   3.570   5.087   6.022 -0.0767  1.2372 -0.8266
   77MOL   H12833720   3.643   5.117   6.253 -0.4862 -1.8238 -0.9394
   77MOL   H12933721   3.584   5.274   6.196  2.4528 -0.1698  1.3819
   77MOL   H13033722   3.486   5.239   6.408  2.6687 -0.5084 -2.1897
   77MOL   H13133723   3.445   5.082   6.379  2.5317  0.4685  2.2953
   77MOL   H13233724   3.257   5.000   6.412 -0.1200  0.0909 -0.5710
   77MOL   H13333725   3.099   5.016   6.371  1.4616 -0.9426 -0.3831
   77MOL   C13433726   3.118   5.032   6.590 -0.3090 -0.5753 -0.6400
   77MOL   C13533727   3.236   4.988   6.684 -0.7132  0.2521  0.6868
   77MOL   C13633728   3.345   5.090   6.720 -0.3026  0.3599 -0.1585
   77MOL   C13733729   3.434   5.029   6.831  0.5917  0.2388  0.0261
   77MOL   C13833730   3.496   4.894   6.791  0.7995 -0.2589  0.5737
   77MOL   C13933731   3.396   4.793   6.737  0.1522  0.0703 -0.1436
   77MOL   C14033732   3.311   4.857   6.631  0.2979  0.7754  0.2865
   77MOL   C14133733   2.994   4.935   6.594 -0.5755  0.1372 -0.3437
   77MOL   H14233734   3.073   5.125   6.624 -1.3878 -1.9646  1.8867
   77MOL   H14333735   3.186   4.957   6.776 -2.2355  1.2457  0.2205
   77MOL   H14433736   3.399   5.097   6.626 -0.2726 -0.1416 -0.1803
   77MOL   H14533737   3.303   5.186   6.751 -2.7040 -0.0096 -2.1071
   77MOL   H14633738   3.384   5.014   6.927 -1.6670  4.3656 -0.3714
   77MOL   H14733739   3.521   5.094   6.837  0.7957  0.0913 -1.2158
   77MOL   H14833740   3.573   4.917   6.718  0.2437  0.8845  0.3428
   77MOL   H14933741   3.547   4.860   6.882 -1.1278 -0.3423  1.6448
   77MOL   H15033742   3.334   4.755   6.819  1.0606 -2.4353 -0.5822
   77MOL   H15133743   3.444   4.701   6.704 -1.2162 -0.7583  0.1485
   77MOL   H15233744   3.375   4.890   6.550 -2.6105 -0.6323 -2.7015
   77MOL   H15333745   3.247   4.780   6.587  0.4619  0.8393 -0.0668
   77MOL   H15433746   3.024   4.830   6.600 -0.4477  0.2707  1.6795
   77MOL   H15533747   2.942   4.944   6.498  2.0076 -2.4548 -2.0860
   77MOL   C15633748   2.894   4.967   6.709 -0.5344 -0.2309  0.0806
   77MOL   C15733749   2.847   4.828   6.763 -0.0085  0.0463 -0.3865
   77MOL   C15833750   2.792   4.731   6.659  0.0057  0.7663 -0.3555
   77MOL   C15933751   2.727   4.610   6.731 -0.0830 -0.1621 -0.0760
   77MOL   C16033752   2.840   4.523   6.799 -0.4851  0.4772 -0.6296
   77MOL   C16133753   2.919   4.611   6.901 -0.5892 -0.9135  0.1201
   77MOL   C16233754   2.953   4.754   6.850 -0.3903  0.0692 -0.0610
   77MOL   C16333755   2.786   5.065   6.651 -0.1984  0.4017 -0.3611
   77MOL   H16433756   2.938   5.022   6.792  0.5538  0.4441 -0.9321
   77MOL   H16533757   2.766   4.854   6.831 -0.4915  0.6514 -1.1836
   77MOL   H16633758   2.716   4.781   6.598 -2.1393 -1.3910  0.4441
   77MOL   H16733759   2.862   4.685   6.590 -0.6167  2.6359 -2.2940
   77MOL   H16833760   2.648   4.642   6.799 -0.4590  0.0045 -0.5931
   77MOL   H16933761   2.663   4.549   6.668  0.2211  0.7368 -1.2691
   77MOL   H17033762   2.906   4.475   6.727 -0.2427  0.7045 -0.5604
   77MOL   H17133763   2.801   4.444   6.863 -0.7543  1.6512  0.6909
   77MOL   H17233764   3.008   4.557   6.933 -0.1036  0.3162  0.8506
   77MOL   H17333765   2.865   4.606   6.995 -1.9539 -0.7604 -0.6261
   77MOL   H17433766   2.964   4.825   6.932  3.2915 -3.2742  2.5391
   77MOL   H17533767   3.054   4.751   6.810  1.5666  1.1497  4.4353
   77MOL   H17633768   2.744   5.008   6.568 -0.8079 -2.8739  2.1034
   77MOL   H17733769   2.825   5.144   6.585  2.4600  0.1972  0.8914
   77MOL   C17833770   2.685   5.125   6.741 -0.0545 -0.2782  0.5756
   77MOL   C17933771   2.750   5.215   6.845 -0.5103 -1.3670 -0.7161
   77MOL   C18033772   2.651   5.268   6.956  0.1078 -0.2118  0.1418
   77MOL   C18133773   2.720   5.357   7.059 -0.4490  0.5789 -0.1029
   77MOL   C18233774   2.784   5.479   6.989  0.3723 -0.3953  0.1673
   77MOL   C18333775   2.893   5.432   6.889 -0.6015 -0.3409 -0.1811
   77MOL   C18433776   2.836   5.338   6.781  0.6181  0.0068 -0.2087
   77MOL   C18533777   2.562   5.184   6.677 -0.3494  0.3474 -0.0921
   77MOL   H18633778   2.653   5.035   6.795  0.5808 -1.6120 -1.2469
   77MOL   H18733779   2.827   5.160   6.897  1.0980  1.9642  0.5561
   77MOL   H18833780   2.573   5.332   6.914  0.3572 -0.1019 -0.1499
   77MOL   H18933781   2.600   5.190   7.013 -0.4133 -1.0437 -1.4271
   77MOL   H19033782   2.797   5.291   7.099  0.8775  0.8881 -2.1043
   77MOL   H19133783   2.651   5.381   7.140  1.2716  0.0396  1.5677
   77MOL   H19233784   2.703   5.538   6.945  0.7821 -0.4277 -0.6302
   77MOL   H19333785   2.844   5.535   7.060 -0.6125  1.8163 -0.7131
   77MOL   H19433786   2.957   5.364   6.946 -0.0587 -0.2554 -0.6933
   77MOL   H19533787   2.956   5.510   6.849  0.4996 -0.7124  0.7995
   77MOL   H19633788   2.767   5.403   6.726 -1.3780 -1.3252  0.6500
   77MOL   H19733789   2.921   5.314   6.718  1.8551  2.2399  0.5406
   77MOL   H19833790   2.566   5.293   6.678 -0.7813  0.3590  1.2608
   77MOL   H19933791   2.564   5.148   6.574  0.4646  1.3872 -0.4536
   77MOL   C20033792   2.425   5.117   6.715 -0.2890  0.0395  0.3155
   77MOL   C20133793   2.296   5.207   6.707 -0.2881  0.2457  0.2144
   77MOL   C20233794   2.314   5.328   6.798  0.4935 -0.0024 -0.8314
   77MOL   C20333795   2.178   5.394   6.809  0.4985 -0.8494  0.1988
   77MOL   C20433796   2.139   5.452   6.673  0.7976 -0.3310  0.5448
   77MOL   C20533797   2.136   5.343   6.562  0.2608 -0.2635 -0.3450
   77MOL   C20633798   2.264   5.263   6.563  0.1848 -0.1523 -0.1054
   77MOL   C20733799   2.414   4.979   6.633 -0.2971 -0.2361 -0.3881
   77MOL   H20833800   2.426   5.085   6.819 -0.0322 -0.9711  0.0101
   77MOL   H20933801   2.216   5.147   6.749  0.0936 -0.4573 -0.0512
   77MOL   H21033802   2.405   5.383   6.775  0.5286  0.4246  0.3050
   77MOL   H21133803   2.342   5.301   6.899  2.9524  1.2210 -1.1463
   77MOL   H21233804   2.100   5.320   6.830  0.3801 -0.3210  1.6986
   77MOL   H21333805   2.176   5.475   6.881  1.7136  1.6081 -2.4392
   77MOL   H21433806   2.047   5.509   6.682 -0.2096 -1.2861 -2.6692
   77MOL   H21533807   2.212   5.529   6.647 -0.5251  1.0440  0.8737
   77MOL   H21633808   2.053   5.275   6.580  1.9731 -2.5687 -1.0854
   77MOL   H21733809   2.117   5.390   6.466  0.8053  3.4746  1.2562
   77MOL   H21833810   2.235   5.187   6.491  1.2428 -0.2170 -0.4713
   77MOL   H21933811   2.354   5.315   6.528  0.0882 -1.1652 -1.8833
   77MOL   H22033812   2.361   5.006   6.541 -1.2161 -1.7242 -0.3115
   77MOL   H22133813   2.508   4.926   6.625  0.4833  1.1785 -0.6647
   77MOL   C22233814   2.336   4.860   6.699  0.2046  0.6802 -0.7671
   77MOL   C22333815   2.309   4.741   6.604  0.3198 -1.1103 -0.3111
   77MOL   C22433816   2.422   4.698   6.500  0.2351 -0.1096 -0.2136
   77MOL   C22533817   2.380   4.591   6.409  0.1603  0.5845  0.8393
   77MOL   C22633818   2.251   4.616   6.330  0.9529 -0.2196  0.3043
   77MOL   C22733819   2.132   4.659   6.418  0.7390 -0.5800 -0.0950
   77MOL   C22833820   2.182   4.770   6.515 -0.4587 -0.2747  0.0211
   77MOL   C22933821   2.414   4.812   6.827  0.2900  0.3554 -0.7982
   77MOL   H23033822   2.244   4.903   6.739  0.1860 -0.3453  0.3301
   77MOL   H23133823   2.282   4.656   6.667 -1.1007 -0.4761 -0.0582
   77MOL   H23233824   2.465   4.779   6.441  0.4328 -0.1486 -0.1248
   77MOL   H23333825   2.503   4.659   6.562  0.0048  1.6019  1.1851
   77MOL   H23433826   2.369   4.494   6.458 -0.2103  0.8466  1.2848
   77MOL   H23533827   2.457   4.573   6.334  0.4561  0.1146  1.2507
   77MOL   H23633828   2.269   4.687   6.250  0.4606 -0.6244 -0.1766
   77MOL   H23733829   2.219   4.518   6.293  1.4227 -0.7286  1.2153
   77MOL   H23833830   2.090   4.583   6.483  1.8087  0.4571  1.8613
   77MOL   H23933831   2.044   4.693   6.364  0.1243  1.5396  2.1003
   77MOL   H24033832   2.204   4.861   6.460  1.3398  0.4834  1.8887
   77MOL   H24133833   2.103   4.800   6.584 -0.0578  3.1999 -0.9601
   77MOL   H24233834   2.513   4.856   6.824  1.9049 -2.9504  1.0275
   77MOL   H24333835   2.428   4.704   6.822  0.2131  0.3620 -1.2274
   77MOL   C24433836   2.352   4.847   6.966 -0.1049  0.3633  0.2092
   77MOL   C24533837   2.445   4.823   7.086 -0.1524 -0.3092 -0.0876
   77MOL   C24633838   2.543   4.942   7.112 -0.0803 -0.8580  0.3425
   77MOL   C24733839   2.640   4.920   7.229 -0.1472  0.4759  0.1885
   77MOL   C24833840   2.704   4.780   7.222 -0.1213  0.1123  0.2735
   77MOL   C24933841   2.600   4.670   7.233 -0.8446  0.2528 -0.2351
   77MOL   C25033842   2.515   4.686   7.095 -0.2252 -0.0205  0.2176
   77MOL   C25133843   2.223   4.757   6.982  0.5746  0.4813  0.6285
   77MOL   H25233844   2.330   4.953   6.957  1.4238  0.8543  2.0199
   77MOL   H25333845   2.389   4.831   7.180  3.4566  2.4913  1.9570
   77MOL   H25433846   2.496   5.038   7.133 -1.7670 -1.3588 -0.9470
   77MOL   H25533847   2.610   4.964   7.029  1.7931 -1.6413  1.6340
   77MOL   H25633848   2.701   5.011   7.238 -2.2201  1.9404 -0.3576
   77MOL   H25733849   2.578   4.909   7.318  0.4414  0.2216  0.5719
   77MOL   H25833850   2.765   4.773   7.132  0.8799  0.1369  0.9355
   77MOL   H25933851   2.776   4.764   7.303 -0.7206 -1.6271  0.4769
   77MOL   H26033852   2.536   4.665   7.321 -1.6397  3.3429 -0.5519
   77MOL   H26133853   2.653   4.575   7.236  0.8275  1.1292 -0.9556
   77MOL   H26233854   2.574   4.669   7.005 -0.5697  0.7585 -0.1545
   77MOL   H26333855   2.443   4.605   7.086  2.2871 -2.1470 -1.4208
   77MOL   H26433856   2.251   4.651   6.988  0.6050  0.4056 -0.7015
   77MOL   H26533857   2.163   4.752   6.892 -0.4667 -0.2203  1.3399
   77MOL   C26633858   2.117   4.793   7.089 -0.0860  0.1980 -0.4648
   77MOL   C26733859   2.036   4.920   7.054  0.5858 -0.3833  0.2511
   77MOL   C26833860   1.972   4.994   7.174  0.2428  0.2764 -0.5002
   77MOL   C26933861   1.913   5.130   7.134 -0.1750 -0.0722  0.0426
   77MOL   C27033862   1.822   5.116   7.012  0.1941  0.4463  1.3530
   77MOL   C27133863   1.875   5.037   6.890 -0.7771 -0.0697 -0.1177
   77MOL   C27233864   1.943   4.904   6.929  0.5960 -0.1314  0.0766
   77MOL   C27333865   2.027   4.669   7.122 -0.0645  0.0133 -0.3917
   77MOL   H27433866   2.174   4.814   7.179  0.5660 -0.1346 -0.7957
   77MOL   H27533867   2.111   4.994   7.025 -0.2217  0.9925  1.6042
   77MOL   H27633868   1.885   4.938   7.207 -1.1503  0.9380 -2.9032
   77MOL   H27733869   2.046   5.003   7.253  0.0636  1.7785 -0.4866
   77MOL   H27833870   1.996   5.199   7.116 -1.1997  0.6165 -2.0956
   77MOL   H27933871   1.849   5.168   7.214 -0.4013 -1.7675  0.6978
   77MOL   H28033872   1.733   5.067   7.052 -1.0035  2.2847  0.9674
   77MOL   H28133873   1.797   5.216   6.978  0.7550 -0.1374 -0.8586
   77MOL   H28233874   1.960   5.091   6.851 -0.1199 -0.2111  1.0937
   77MOL   H28333875   1.808   5.030   6.804 -1.4213  0.8879  0.2956
   77MOL   H28433876   2.003   4.878   6.842  0.2148 -1.9415  0.3399
   77MOL   H28533877   1.869   4.825   6.940 -0.0715  0.5416  0.4749
   77MOL   H28633878   1.984   4.634   7.029 -1.3399 -1.3202  0.6833
   77MOL   H28733879   1.944   4.690   7.189  1.1571 -0.1771  1.2178
   77MOL   C28833880   2.093   4.554   7.204  0.0910 -0.1433  0.2968
   77MOL   C28933881   2.176   4.607   7.322 -0.4553 -0.0548  0.6280
   77MOL   C29033882   2.098   4.698   7.428  0.9165  0.1854 -0.0712
   77MOL   C29133883   2.181   4.730   7.557  0.0056  0.7144  0.3001
   77MOL   C29233884   2.232   4.608   7.623 -0.7608 -0.4028 -0.5397
   77MOL   C29333885   2.308   4.523   7.518  1.3364  0.3842  0.5348
   77MOL   C29433886   2.219   4.480   7.404  0.0186 -0.0421  0.2279
   77MOL   C29533887   2.165   4.443   7.118  0.2389  0.2497  0.3129
   77MOL   H29633888   2.008   4.499   7.244  0.0686 -0.5204 -0.2705
   77MOL   H29733889   2.263   4.660   7.286 -0.2502 -0.8388 -0.0465
   77MOL   H29833890   2.064   4.790   7.381 -0.1631  0.5897  1.4902
   77MOL   H29933891   2.005   4.645   7.449  1.5069 -0.4487  0.9827
   77MOL   H30033892   2.273   4.783   7.532  1.5554 -1.8169  0.4326
   77MOL   H30133893   2.133   4.791   7.633  2.0925  0.7501  1.6353
   77MOL   H30233894   2.150   4.548   7.664 -0.2247 -1.1862 -0.6064
   77MOL   H30333895   2.296   4.639   7.706 -1.9318 -1.4894  0.8111
   77MOL   H30433896   2.328   4.428   7.568  1.7369  0.5593  0.7009
   77MOL   H30533897   2.406   4.557   7.487  0.3747  1.5512 -1.3228
   77MOL   H30633898   2.135   4.423   7.443  0.7060 -0.2504  1.4235
   77MOL   H30733899   2.272   4.408   7.341 -2.2120 -2.7688  1.3514
   77MOL   H30833900   2.268   4.476   7.106 -0.2819  1.2533 -1.6340
   77MOL   H30933901   2.160   4.353   7.179  1.0980 -0.3095 -0.4353
   77MOL   C31033902   2.112   4.401   6.984  0.4141  0.3490  0.0089
   77MOL   C31133903   2.214   4.323   6.897 -0.0336 -0.7349 -0.9119
   77MOL   C31233904   2.354   4.395   6.867  0.6862 -0.0278 -0.2949
   77MOL   C31333905   2.431   4.303   6.774  0.9485  0.9123  0.4062
   77MOL   C31433906   2.453   4.157   6.827  0.5426  0.1718  0.6329
   77MOL   C31533907   2.317   4.091   6.855  0.1081  0.1711 -0.2226
   77MOL   C31633908   2.226   4.175   6.945 -0.3825  0.5840  0.6336
   77MOL   C31733909   1.966   4.339   6.998  0.1400  0.0029 -0.2628
   77MOL   H31833910   2.099   4.495   6.930 -1.6796  0.4711  0.7048
   77MOL   H31933911   2.160   4.319   6.803  1.5612 -2.5030 -1.7866
   77MOL   H32033912   2.334   4.493   6.825  0.2652 -0.7546 -1.7949
   77MOL   H32133913   2.411   4.409   6.959  1.4110 -2.4587 -0.3439
   77MOL   H32233914   2.532   4.342   6.763  1.5674 -1.1563 -1.8521
   77MOL   H32333915   2.389   4.318   6.674 -0.5412 -0.9257  0.7091
   77MOL   H32433916   2.503   4.097   6.751  1.1234  1.3496  0.0716
   77MOL   H32533917   2.517   4.147   6.915 -1.6770 -0.4833  2.1960
   77MOL   H32633918   2.267   4.087   6.759 -1.5654  1.4078  0.5728
   77MOL   H32733919   2.341   3.990   6.890  3.4859 -0.2380 -3.3711
   77MOL   H32833920   2.241   4.173   7.053  0.5693  2.0784  0.5530
   77MOL   H32933921   2.131   4.122   6.939  0.1722 -0.4142  0.6398
   77MOL   H33033922   1.903   4.410   7.051  0.2705  0.2013 -0.3708
   77MOL   H33133923   1.972   4.258   7.071 -1.6708 -0.3065 -0.4205
   77MOL   C33233924   1.882   4.299   6.868  1.1120  0.0693  0.0236
   77MOL   C33333925   1.850   4.413   6.768 -0.1954  0.2391  0.4112
   77MOL   C33433926   1.759   4.526   6.822  0.3769  0.1440  0.8843
   77MOL   C33533927   1.716   4.632   6.720 -0.3103  0.1820 -0.1353
   77MOL   C33633928   1.667   4.566   6.590 -0.3201  0.1939 -0.2226
   77MOL   C33733929   1.761   4.456   6.538 -0.3702 -0.4305  0.6064
   77MOL   C33833930   1.796   4.351   6.636 -0.1448 -0.4913 -0.1370
   77MOL   C33933931   1.754   4.216   6.906 -0.1801  0.2773  0.2585
   77MOL   H34033932   1.956   4.239   6.815  0.8308 -0.7259  0.5177
   77MOL   H34133933   1.947   4.459   6.750  0.3064  0.3031  3.0623
   77MOL   H34233934   1.671   4.487   6.872  0.0230  1.7886  1.5576
   77MOL   H34333935   1.812   4.578   6.902 -1.3709  0.1652  2.0600
   77MOL   H34433936   1.631   4.687   6.760  0.0687 -0.7179  2.0171
   77MOL   H34533937   1.803   4.695   6.696  0.5419 -1.1291 -0.5166
   77MOL   H34633938   1.573   4.519   6.619  0.3453  0.4460  2.5271
   77MOL   H34733939   1.626   4.626   6.509 -0.1907 -1.1298 -1.2935
   77MOL   H34833940   1.858   4.499   6.512 -0.3029 -0.0346  1.5008
   77MOL   H34933941   1.711   4.406   6.456 -0.0554  1.5401 -0.8186
   77MOL   H35033942   1.857   4.273   6.590  0.5580 -0.6483  1.0383
   77MOL   H35133943   1.699   4.303   6.648  0.0279 -0.4042  1.8440
   77MOL   H35233944   1.679   4.208   6.828 -2.7559  2.1092  2.4664
   77MOL   H35333945   1.706   4.280   6.979 -0.3442 -0.7366  1.0457
   77MOL   C35433946   1.779   4.068   6.959  0.4586 -0.9022  0.3434
   77MOL   C35533947   1.808   3.975   6.841 -0.0880 -0.0815  0.7287
   77MOL   C35633948   1.692   3.946   6.745  0.5395  0.3118  0.1122
   77MOL   C35733949   1.740   3.875   6.617 -1.1935  0.3277 -0.2168
   77MOL   C35833950   1.803   3.732   6.649  0.7092 -0.2852 -0.9240
   77MOL   C35933951   1.917   3.749   6.753  0.2004  0.7817  0.3449
   77MOL   C36033952   1.868   3.837   6.874 -0.1449  0.5153 -1.1563
   77MOL   C36133953   1.666   3.999   7.049  0.2896  0.5062 -0.2355
   77MOL   H36233954   1.874   4.073   7.011  0.7712 -0.2535 -0.2861
   77MOL   H36333955   1.890   4.023   6.787 -0.7583 -0.9743 -1.1077
   77MOL   H36433956   1.635   4.037   6.721 -1.9495 -1.1811  0.1935
   77MOL   H36533957   1.621   3.879   6.794 -0.1732  1.6446  0.9341
   77MOL   H36633958   1.646   3.865   6.563 -0.8418  0.2228 -0.8146
   77MOL   H36733959   1.801   3.933   6.549  1.6160 -4.3261 -1.9313
   77MOL   H36833960   1.729   3.663   6.690  1.4770  0.2438  1.4033
   77MOL   H36933961   1.852   3.697   6.558  0.6370 -0.0075 -1.0695
   77MOL   H37033962   1.956   3.653   6.789 -2.2092 -0.5045 -0.3939
   77MOL   H37133963   2.008   3.783   6.702 -0.3582 -0.0105 -1.2189
   77MOL   H37233964   1.950   3.853   6.944 -1.1318 -0.9595  0.4019
   77MOL   H37333965   1.799   3.780   6.937 -0.3196  2.4270  0.4377
   77MOL   H37433966   1.687   3.899   7.086 -2.0203  0.8368  2.0886
   77MOL   H37533967   1.578   3.986   6.987 -0.1843  1.7949  0.1534
   77MOL   C37633968   1.615   4.083   7.168 -0.6865 -0.4560  0.7899
   77MOL   C37733969   1.490   4.025   7.232 -0.1926 -0.0963 -0.0720
   77MOL   C37833970   1.504   3.885   7.296 -0.5074  0.3015  0.1718
   77MOL   C37933971   1.386   3.850   7.382 -0.2197 -0.0082 -0.5861
   77MOL   C38033972   1.251   3.875   7.312  0.2456 -0.3436 -0.4563
   77MOL   C38133973   1.246   4.017   7.241 -0.8016  0.7062 -0.2639
   77MOL   C38233974   1.368   4.050   7.152  0.0943  0.2373 -0.3263
   77MOL   C38333975   1.715   4.112   7.275 -0.0813  0.2132  0.6340
   77MOL   H38433976   1.578   4.170   7.113 -0.2307 -0.2867  0.7507
   77MOL   H38533977   1.467   4.099   7.309  1.2281 -0.5285  0.7645
   77MOL   H38633978   1.514   3.819   7.211  0.1684  0.1864  0.3349
   77MOL   H38733979   1.591   3.883   7.362  0.2533  0.2961 -0.8162
   77MOL   H38833980   1.381   3.912   7.472 -1.0550 -0.2274 -0.4767
   77MOL   H38933981   1.400   3.748   7.416  1.3162  1.0482  2.1649
   77MOL   H39033982   1.238   3.792   7.242  0.2617 -1.1852  0.5270
   77MOL   H39133983   1.176   3.858   7.389  1.2513  1.0453  0.8678
   77MOL   H39233984   1.152   4.028   7.186 -1.1728  0.4811  0.3093
   77MOL   H39333985   1.244   4.079   7.331 -2.2104  1.1715 -0.5990
   77MOL   H39433986   1.364   3.987   7.064 -0.2378 -0.7804  0.4088
   77MOL   H39533987   1.366   4.154   7.120  2.2323  0.5529  0.5383
   77MOL   H39633988   1.804   4.143   7.220  0.0702 -1.1674  0.0743
   77MOL   H39733989   1.761   4.022   7.318 -0.0833 -1.0171 -1.8687
   77MOL   C39833990   1.693   4.215   7.382 -0.2251 -0.7224 -0.0370
   77MOL   C39933991   1.784   4.203   7.509 -0.2210  0.4984 -0.4504
   77MOL   C40033992   1.747   4.080   7.594  0.2928  0.2118 -0.4814
   77MOL   C40133993   1.826   4.081   7.725 -0.3872  0.0296 -0.4698
   77MOL   C40233994   1.978   4.084   7.696  0.4658  0.0443 -1.1137
   77MOL   C40333995   2.014   4.207   7.613  0.5782 -0.5678 -0.3582
   77MOL   C40433996   1.944   4.202   7.482 -0.0632 -0.6232  0.5157
   77MOL   C40533997   1.680   4.359   7.330 -0.5640 -0.5133 -0.2562
   77MOL   H40633998   1.596   4.196   7.430 -1.5288  2.0177 -1.4878
   77MOL   H40733999   1.762   4.285   7.577  0.1515  0.8282 -0.7307
   77MOL   H40834000   1.757   3.985   7.542 -0.2055  0.0609 -0.3005
   77MOL   H40934001   1.641   4.087   7.620  0.0536  0.3352 -1.4409
   77MOL   H41034002   1.808   3.994   0.017 -0.8339 -0.2583 -0.9854
   77MOL   H41134003   1.797   4.169   0.010 -1.6513  1.1258 -2.7143
   77MOL   H41234004   2.006   3.987   7.655 -2.6252 -2.6158  2.7095
   77MOL   H41334005   2.044   4.090   0.010  1.4961  0.6689 -1.9314
   77MOL   H41434006   1.990   4.298   7.668  1.1389  0.0630 -1.1488
   77MOL   H41534007   2.120   4.229   7.600  0.9583 -0.8856  1.9600
   77MOL   H41634008   1.956   4.292   7.421  0.7278  0.7018  2.5466
   77MOL   H41734009   1.981   4.118   7.424  0.4717  0.6330 -1.0116
   77MOL   H41834010   1.715   4.422   7.411  0.6313 -1.6170  0.0996
   77MOL   H41934011   1.751   4.369   7.247  0.4210  0.7860  0.7341
   77MOL   C42034012   1.537   4.399   7.280 -0.5546  0.7878  0.1342
   77MOL   C42134013   1.540   4.521   7.183 -0.4934  0.3947 -0.3311
   77MOL   C42234014   1.591   4.644   7.256 -0.3492  0.3801 -0.4222
   77MOL   C42334015   1.600   4.764   7.165  0.5315  0.2684  1.1176
   77MOL   C42434016   1.462   4.805   7.108  0.1311 -0.3619  0.1567
   77MOL   C42534017   1.395   4.692   7.037 -0.3383  0.2207 -0.7170
   77MOL   C42634018   1.399   4.560   7.122  0.4284  0.4143  0.6493
   77MOL   C42734019   1.440   4.417   7.402 -0.6343 -0.0673 -0.6766
   77MOL   H42834020   1.504   4.313   7.223 -2.3307  2.6813 -1.7801
   77MOL   H42934021   1.601   4.504   7.094 -1.2860  1.7088 -1.1508
   77MOL   H43034022   1.523   4.665   7.339  0.2742  1.5531 -0.1942
   77MOL   H43134023   1.687   4.608   7.293  0.8602  0.8490 -3.0254
   77MOL   H43234024   1.643   4.847   7.221 -0.2611  1.3594  0.1429
   77MOL   H43334025   1.665   4.739   7.082  0.1141  1.5838  0.3793
   77MOL   H43434026   1.472   4.892   7.042 -3.5164  0.0260  0.0473
   77MOL   H43534027   1.405   4.848   7.190  0.3961 -1.9158  1.1673
   77MOL   H43634028   1.442   4.679   6.939  1.9530 -0.2712  0.4179
   77MOL   H43734029   1.291   4.714   7.016 -0.2786  1.1046 -0.1096
   77MOL   H43834030   1.327   4.565   7.204  0.1945  0.6106  0.4308
   77MOL   H43934031   1.358   4.476   7.066 -1.4133  2.6091 -1.4276
   77MOL   H44034032   1.337   4.433   7.372 -0.8621  0.9668  0.6101
   77MOL   H44134033   1.445   4.332   7.470 -0.4029  0.7730  0.3763
   77MOL   H44234034   1.473   4.502   7.462  0.4946 -0.5503 -0.6021
   78MOL     C134035   0.540   0.897   4.786  0.2707  0.1393 -0.6098
   78MOL     C234036   0.555   0.773   4.698 -0.1478 -1.1284  0.0122
   78MOL     C334037   0.589   0.804   4.554  0.0031 -0.3937 -0.3112
   78MOL     C434038   0.639   0.674   4.487  0.4960 -0.6065 -0.1204
   78MOL     C534039   0.526   0.568   4.485  0.3808 -0.0801 -0.8276
   78MOL     C634040   0.479   0.534   4.630  0.5477  0.3319 -0.5386
   78MOL     C734041   0.455   0.661   4.717 -0.0926  0.4189  0.0791
   78MOL     C834042   0.412   0.979   4.738  0.3224 -0.4095 -0.2881
   78MOL     H934043   0.518   0.862   4.887  0.6622 -0.9869 -0.9062
   78MOL    H1034044   0.651   0.735   4.732  0.7326  0.2824 -0.8961
   78MOL    H1134045   0.502   0.844   4.501 -0.5178 -0.3350  0.5858
   78MOL    H1234046   0.667   0.880   4.543  0.9210 -1.5564 -2.0145
   78MOL    H1334047   0.728   0.629   4.530 -1.1029 -1.7163  2.1983
   78MOL    H1434048   0.669   0.710   4.389 -0.9403 -1.8016 -1.0316
   78MOL    H1534049   0.571   0.481   4.436 -0.4462 -1.5052  0.8947
   78MOL    H1634050   0.445   0.602   4.420 -2.0888 -2.1489  1.0785
   78MOL    H1734051   0.389   0.472   4.632 -0.4916  1.7866 -0.9830
   78MOL    H1834052   0.558   0.475   4.677  0.5129 -0.3936 -1.3898
   78MOL    H1934053   0.431   0.644   4.822  1.4790  0.9463  0.5496
   78MOL    H2034054   0.359   0.703   4.687 -1.4026 -1.8161  1.0224
   78MOL    H2134055   0.341   0.914   4.686  0.4643 -0.6793 -0.1473
   78MOL    H2234056   0.430   1.045   4.653 -1.0484 -1.6117 -1.5414
   78MOL    H2334057   0.627   0.961   4.778  0.7802 -0.3297  1.0096
   78MOL    C2434058   0.334   1.060   4.851 -0.1611  0.3329  0.3037
   78MOL    C2534059   0.426   1.150   4.928  0.3565 -0.1164  0.2531
   78MOL    C2634060   0.379   1.179   5.071 -0.1701 -0.0480  0.5300
   78MOL    C2734061   0.491   1.250   5.148  0.6466  0.1329  0.3866
   78MOL    C2834062   0.521   1.387   5.080  0.3001 -0.0302 -0.7715
   78MOL    C2934063   0.553   1.379   4.941  0.8234 -0.1919  0.3338
   78MOL    C3034064   0.462   1.287   4.858 -0.2380  0.3864 -0.2965
   78MOL    C3134065   0.201   1.128   4.794  0.6625  0.2132  0.4912
   78MOL    H3234066   0.312   0.978   4.919  2.4056 -1.6045 -1.0978
   78MOL    H3334067   0.521   1.099   4.940  0.2457 -1.1878 -2.9229
   78MOL    H3434068   0.359   1.082   5.117 -0.9935  0.9306  2.2639
   78MOL    H3534069   0.282   1.229   5.076  0.4454  1.1822  0.2948
   78MOL    H3634070   0.454   1.269   5.248 -2.5077  0.4207 -0.7794
   78MOL    H3734071   0.583   1.191   5.153  0.9459  0.6338  0.8208
   78MOL    H3834072   0.598   1.445   5.132  0.2488 -2.0357  1.6520
   78MOL    H3934073   0.431   1.447   5.079  0.2436 -0.0708  0.7207
   78MOL    H4034074   0.563   1.476   4.893  2.0849  0.5498  2.0065
   78MOL    H4134075   0.649   1.327   4.935  1.1794  0.4127  0.6957
   78MOL    H4234076   0.369   1.337   4.831 -3.5890 -3.7528  2.8827
   78MOL    H4334077   0.512   1.264   4.764 -2.6343 -1.6115 -1.1398
   78MOL    H4434078   0.216   1.186   4.703 -3.0601  0.5046  0.0051
   78MOL    H4534079   0.151   1.202   4.856  1.7285  0.4599  1.0795
   78MOL    C4634080   0.088   1.026   4.761 -0.0383  0.1299  0.5045
   78MOL    C4734081   0.014   1.057   4.628  0.2191 -1.1953  0.2569
   78MOL    C4834082   0.107   1.048   4.505 -0.3030  1.0656 -0.6181
   78MOL    C4934083   0.038   1.092   4.374 -0.6837 -1.0126  0.2159
   78MOL    C5034084   7.739   1.224   4.381  0.5609 -0.7517  0.7121
   78MOL    C5134085   7.649   1.220   4.504 -0.4323  0.1857  0.5610
   78MOL    C5234086   7.731   1.201   4.626  0.8816  0.4049 -0.5174
   78MOL    C5334087   7.768   1.023   4.887 -0.4211 -0.6982  0.9972
   78MOL    H5434088   0.132   0.927   4.766 -0.4469 -0.0664  0.2601
   78MOL    H5534089   7.700   0.992   4.613  0.6268 -1.5225 -0.7218
   78MOL    H5634090   0.202   1.098   4.524  0.5998 -0.6725 -0.4180
   78MOL    H5734091   0.134   0.942   4.504 -1.7792  0.6838 -1.3007
   78MOL    H5834092   7.740   1.015   4.341 -1.7186 -0.1652  0.4153
   78MOL    H5934093   0.118   1.088   4.300 -1.2057 -1.6465 -0.3201
   78MOL    H6034094   0.030   1.312   4.393 -0.4409  0.0903 -0.0948
   78MOL    H6134095   7.672   1.227   4.295  1.2861 -0.6978  0.1450
   78MOL    H6234096   7.567   1.152   4.482 -2.0725  2.2419  0.1785
   78MOL    H6334097   7.597   1.315   4.511  1.4735  1.3396 -0.5149
   78MOL    H6434098   0.018   1.290   4.646 -0.9836  0.9707  2.8278
   78MOL    H6534099   7.661   1.212   4.709 -1.5650 -0.6598 -2.3929
   78MOL    H6634100   7.718   1.119   4.899  3.0981  1.3462  0.1369
   78MOL    H6734101   0.057   1.014   4.977  0.2231 -0.0283  0.6372
   78MOL    C6834102   7.656   0.910   4.875 -0.6782 -0.5327  0.2493
   78MOL    C6934103   7.713   0.769   4.891  0.0178  0.3016 -0.4053
   78MOL    C7034104   7.741   0.691   4.759  0.0839 -0.5546  0.3899
   78MOL    C7134105   0.009   0.542   4.790  0.2566 -1.2610  0.4333
   78MOL    C7234106   0.125   0.537   4.888 -0.6564 -0.2537 -0.4750
   78MOL    C7334107   0.093   0.610   5.017  0.4046  0.1586  0.0248
   78MOL    C7434108   0.058   0.756   4.993 -0.2106  1.0388  0.2140
   78MOL    C7534109   7.553   0.956   4.981 -0.2292 -0.0127 -0.4787
   78MOL    H7634110   7.612   0.910   4.776 -0.0540  2.7055 -0.1023
   78MOL    H7734111   7.636   0.709   4.939 -1.2256  1.7615 -0.5651
   78MOL    H7834112   0.045   0.736   4.697 -0.4655 -0.3072 -0.1125
   78MOL    H7934113   7.652   0.689   4.696  1.3170  0.0621 -1.4090
   78MOL    H8034114   7.698   0.483   4.828  1.5990 -1.9381  2.4426
   78MOL    H8134115   0.047   0.496   4.698  0.3760 -0.4741  0.0884
   78MOL    H8234116   0.215   0.584   4.848 -0.5416  0.0137  0.0969
   78MOL    H8334117   0.152   0.434   4.910 -2.4124 -0.5140  0.4986
   78MOL    H8434118   0.171   0.600   5.092 -1.6887 -2.0712  2.0203
   78MOL    H8534119   0.002   0.572   5.064  0.1069  1.0111  0.1479
   78MOL    H8634120   0.144   0.807   4.949  2.7206 -2.1877  1.9505
   78MOL    H8734121   0.030   0.811   5.083 -3.4583  1.9837 -1.2784
   78MOL    H8834122   7.580   0.895   5.067 -1.4811 -0.8629 -0.6691
   78MOL    H8934123   7.574   1.059   5.011  0.7227 -0.6113  0.9492
   78MOL    C9034124   7.409   0.925   4.951  0.0770  0.3824  0.5746
   78MOL    C9134125   7.344   0.822   5.048  0.3229 -0.0530 -0.6425
   78MOL    C9234126   7.394   0.677   5.045 -0.0105  0.7743 -0.0076
   78MOL    C9334127   7.288   0.583   5.114 -0.2109  0.6736 -0.0633
   78MOL    C9434128   7.272   0.628   5.262 -0.1990  0.0352  0.6154
   78MOL    C9534129   7.238   0.778   5.278  0.1082  0.7287 -0.4265
   78MOL    C9634130   7.334   0.866   5.191  0.9941 -1.0453  0.4723
   78MOL    C9734131   7.324   1.051   4.922  0.4692 -0.2351  0.0542
   78MOL    H9834132   7.403   0.868   4.858  0.8470  0.3554  0.5434
   78MOL    H9934133   7.241   0.809   5.014  0.2790  0.6003 -0.7614
   78MOL   H10034134   7.487   0.671   5.101 -0.6680  1.2393  1.1521
   78MOL   H10134135   7.406   0.635   4.945 -0.3834  0.4794  0.0689
   78MOL   H10234136   7.318   0.478   5.106 -1.8564  0.3260 -1.8141
   78MOL   H10334137   7.200   0.593   5.051 -1.3296  1.2439  1.5659
   78MOL   H10434138   7.366   0.625   5.317  0.1969 -0.2906 -0.0708
   78MOL   H10534139   7.207   0.562   5.318 -0.5681 -0.1085  0.0218
   78MOL   H10634140   7.136   0.786   5.240 -0.2340 -2.2157 -0.2763
   78MOL   H10734141   7.243   0.816   5.380  0.8711 -1.1295  0.2470
   78MOL   H10834142   7.296   0.968   5.199  1.1293 -0.8670 -1.0956
   78MOL   H10934143   7.431   0.862   5.240  0.5332  2.2099  1.7456
   78MOL   H11034144   7.299   1.097   5.018 -1.3742 -0.1499 -0.4366
   78MOL   H11134145   7.380   1.128   4.868  0.2676  0.1476  0.3894
   78MOL   C11234146   7.189   1.031   4.844  0.7872 -0.2324 -0.4913
   78MOL   C11334147   7.201   0.995   4.695 -0.4808 -0.3264  0.1422
   78MOL   C11434148   7.254   1.118   4.619  0.3128 -0.3980  0.1272
   78MOL   C11534149   7.251   1.089   4.471 -0.3278 -0.2014  0.5350
   78MOL   C11634150   7.116   1.049   4.413 -0.0355  0.5985 -0.0360
   78MOL   C11734151   7.066   0.915   4.485  0.9883 -0.7395  0.3076
   78MOL   C11834152   7.071   0.939   4.632 -0.3831 -0.9522  0.5489
   78MOL   C11934153   7.103   1.156   4.861  0.0586 -0.7342 -0.1885
   78MOL   H12034154   7.130   0.948   4.884 -0.7210  0.6048 -0.9569
   78MOL   H12134155   7.269   0.910   4.688  0.8853  0.8045 -0.5588
   78MOL   H12234156   7.358   1.140   4.640 -0.0088 -1.4708  3.0162
   78MOL   H12334157   7.189   1.204   4.637 -0.4496 -0.8841 -0.2487
   78MOL   H12434158   7.290   1.172   4.411 -0.9150 -1.1062 -1.1324
   78MOL   H12534159   7.331   1.017   4.449 -0.5447 -0.2000 -0.2882
   78MOL   H12634160   7.042   1.125   4.437 -0.3649  0.1561  0.3710
   78MOL   H12734161   7.116   1.036   4.305 -1.1020 -1.3663  0.1747
   78MOL   H12834162   6.964   0.896   4.451  0.4426 -0.3786  1.7192
   78MOL   H12934163   7.126   0.825   4.469 -0.6487 -1.4648 -1.9861
   78MOL   H13034164   7.038   0.849   4.685 -3.8400 -1.5818 -2.5121
   78MOL   H13134165   6.995   1.015   4.651 -0.1372 -1.0375  1.9858
   78MOL   H13234166   7.038   1.186   4.778  0.5731  1.7282  0.2510
   78MOL   H13334167   7.176   1.237   4.856 -2.5369  1.7362  0.1716
   78MOL   C13434168   7.011   1.152   4.984  0.3531  0.3851  0.2196
   78MOL   C13534169   6.886   1.066   4.952  0.9608 -0.0566  0.0956
   78MOL   C13634170   6.777   1.141   4.866  0.0471 -0.5740  0.2728
   78MOL   C13734171   6.652   1.057   4.853 -0.7808  0.3192 -1.2457
   78MOL   C13834172   6.601   1.000   4.986 -0.3105 -0.8234 -0.2624
   78MOL   C13934173   6.707   0.925   5.057 -0.5662  0.0677 -0.0492
   78MOL   C14034174   6.826   1.014   5.086  0.2532  0.1753 -0.5468
   78MOL   C14134175   6.974   1.293   5.041  0.2290 -0.0496 -0.1480
   78MOL   H14234176   7.066   1.098   5.061  0.7357  2.1717  1.2281
   78MOL   H14334177   6.913   0.975   4.898  0.9641  0.3508 -0.6017
   78MOL   H14434178   6.744   1.235   4.910  2.6437  1.1587 -1.2767
   78MOL   H14534179   6.814   1.174   4.769 -2.8108  1.1690 -0.2676
   78MOL   H14634180   6.683   0.972   4.793  0.9110 -0.7879  1.1172
   78MOL   H14734181   6.578   1.114   4.796 -1.7059 -0.2502 -0.6245
   78MOL   H14834182   6.571   1.090   5.040 -0.0560 -0.7237 -0.2879
   78MOL   H14934183   6.509   0.943   4.972 -1.9568  1.8305 -0.5000
   78MOL   H15034184   6.734   0.836   5.000  0.4790 -0.6843  1.5726
   78MOL   H15134185   6.664   0.884   5.149  0.2108 -0.3086  0.1589
   78MOL   H15234186   6.780   1.083   5.156  1.0292  1.4005 -1.2140
   78MOL   H15334187   6.902   0.960   5.142 -0.4127 -1.5875 -1.3041
   78MOL   H15434188   6.911   1.266   5.126  0.0075 -1.0860 -0.6409
   78MOL   H15534189   6.898   1.341   4.981  0.6075 -0.8811 -1.3126
   78MOL   C15634190   7.081   1.392   5.079  0.0159  0.0998  0.2931
   78MOL   C15734191   7.176   1.335   5.189  0.5971  0.0563 -0.3725
   78MOL   C15834192   7.301   1.422   5.207 -0.0631 -0.1468  0.1007
   78MOL   C15934193   7.407   1.352   5.292 -0.1655 -0.7441 -0.0874
   78MOL   C16034194   7.356   1.318   5.430 -0.2769 -0.0294 -0.4668
   78MOL   C16134195   7.212   1.255   5.434 -0.0196 -0.3505  0.6819
   78MOL   C16234196   7.114   1.325   5.332 -0.6915  0.1265  0.1020
   78MOL   C16334197   7.011   1.528   5.122 -0.3614 -0.5865 -0.1126
   78MOL   H16434198   7.141   1.405   4.989  1.1785 -1.4327  0.8222
   78MOL   H16534199   7.198   1.233   5.161 -1.4057 -0.5193  0.0543
   78MOL   H16634200   7.345   1.453   5.112 -0.7464  1.5891  0.3375
   78MOL   H16734201   7.273   1.517   5.252  1.3015  1.9975 -3.3532
   78MOL   H16834202   7.447   1.264   5.242 -1.2016 -1.1214 -0.2773
   78MOL   H16934203   7.486   1.423   5.315  0.9783 -2.0961  0.2585
   78MOL   H17034204   7.355   1.413   5.483 -0.4698  0.0780 -0.6577
   78MOL   H17134205   7.427   1.250   5.476  1.5967  0.9190 -1.8756
   78MOL   H17234206   7.169   1.254   5.534 -1.0599 -0.9050  0.2348
   78MOL   H17334207   7.219   1.150   5.406  1.8686 -0.1066  0.1926
   78MOL   H17434208   7.019   1.273   5.322 -1.0397  0.8307 -0.3072
   78MOL   H17534209   7.090   1.424   5.370  0.7790  0.2987  0.5947
   78MOL   H17634210   7.096   1.584   5.161 -1.1117  1.1515 -0.9330
   78MOL   H17734211   6.946   1.495   5.203 -3.0691 -0.2350 -2.0561
   78MOL   C17834212   6.932   1.602   5.011 -0.0990  0.2560  0.0524
   78MOL   C17934213   6.792   1.648   5.062 -0.6171 -0.1447 -0.2522
   78MOL   C18034214   6.801   1.741   5.187  0.2416 -0.2965  0.1498
   78MOL   C18134215   6.658   1.786   5.220 -0.0797  0.1039  0.1144
   78MOL   C18234216   6.558   1.663   5.232  0.4205  0.4512  0.3131
   78MOL   C18334217   6.546   1.580   5.106 -0.1764 -0.3977  0.4371
   78MOL   C18434218   6.692   1.523   5.078 -0.1075  0.3325  0.1856
   78MOL   C18534219   7.007   1.728   4.955 -0.1473 -0.1108 -0.0266
   78MOL   H18634220   6.901   1.539   4.928 -1.2942  1.1860 -0.2270
   78MOL   H18734221   6.755   1.704   4.977  1.1957  0.2495 -0.8129
   78MOL   H18834222   6.845   1.696   5.276  0.0918 -1.6509 -0.4511
   78MOL   H18934223   6.858   1.832   5.170 -0.2495 -0.0187 -0.0313
   78MOL   H19034224   6.615   1.856   5.149 -0.5074 -0.3416 -0.0706
   78MOL   H19134225   6.665   1.841   5.314  0.3675  1.9804 -0.9912
   78MOL   H19234226   6.593   1.610   5.320 -2.4787 -0.9625  0.6714
   78MOL   H19334227   6.461   1.700   5.265  0.6571  0.9593  0.4344
   78MOL   H19434228   6.508   1.639   5.023 -0.1680  1.4203  1.7089
   78MOL   H19534229   6.467   1.505   5.109 -0.5469 -0.0065  0.4657
   78MOL   H19634230   6.709   1.448   5.156 -1.5768  1.3249  1.4987
   78MOL   H19734231   6.686   1.463   4.987 -0.6753  1.4521 -0.5246
   78MOL   H19834232   6.948   1.802   4.901  1.0980  1.4098  0.6725
   78MOL   H19934233   7.039   1.791   5.038 -1.3254 -1.0066  1.1492
   78MOL   C20034234   7.127   1.695   4.868 -0.4732 -0.0607  0.3119
   78MOL   C20134235   7.094   1.623   4.732  0.4231  0.6524 -0.3960
   78MOL   C20234236   7.064   1.716   4.620  0.6948 -0.7178  0.2977
   78MOL   C20334237   7.014   1.648   4.496  0.2738  0.5222  0.0611
   78MOL   C20434238   7.121   1.545   4.449 -0.0018 -0.1168 -0.1714
   78MOL   C20534239   7.161   1.449   4.567  0.6853  0.3227 -0.2494
   78MOL   C20634240   7.211   1.532   4.691  0.6187  0.0909 -0.3229
   78MOL   C20734241   7.233   1.812   4.857 -0.2946 -0.1827  0.4864
   78MOL   H20834242   7.198   1.629   4.918  1.4186  2.0226  0.4579
   78MOL   H20934243   7.007   1.557   4.741 -1.0262  2.6097  0.4041
   78MOL   H21034244   7.151   1.775   4.591 -0.6561  0.6664 -1.0847
   78MOL   H21134245   6.980   1.786   4.629  0.7762 -0.4563 -0.9453
   78MOL   H21234246   6.918   1.600   4.518 -0.3702  1.4516 -0.7102
   78MOL   H21334247   6.990   1.719   4.417 -1.1255 -0.7026 -0.6639
   78MOL   H21434248   7.080   1.473   4.379  2.0763 -1.8610  0.3168
   78MOL   H21534249   7.210   1.593   4.407 -1.6801  0.9359 -2.5701
   78MOL   H21634250   7.075   1.386   4.588 -0.2081  1.5170 -0.2669
   78MOL   H21734251   7.243   1.388   4.527 -0.9693 -1.6946 -0.6134
   78MOL   H21834252   7.238   1.462   4.770 -3.0853  0.7536  1.7098
   78MOL   H21934253   7.294   1.593   4.656 -1.3040  1.9555 -1.8041
   78MOL   H22034254   7.307   1.778   4.784  1.7932  2.2174  1.3902
   78MOL   H22134255   7.186   1.904   4.821  0.2334 -1.0998 -2.7086
   78MOL   C22234256   7.313   1.845   4.990  0.4096 -0.1373 -0.7507
   78MOL   C22334257   7.468   1.802   4.990 -0.0666  0.7428  0.0726
   78MOL   C22434258   7.515   1.763   5.131 -0.2205  0.3761 -0.1911
   78MOL   C22534259   7.661   1.718   5.118  0.0304  0.1176 -0.5720
   78MOL   C22634260   7.754   1.822   5.052  0.4194  0.3904 -0.6922
   78MOL   C22734261   7.702   1.844   4.913 -0.0990 -0.2121  0.7254
   78MOL   C22834262   7.562   1.902   4.929 -1.3490 -0.0328  1.1150
   78MOL   C22934263   7.289   1.990   5.046 -0.0220 -0.0754 -0.1094
   78MOL   H23034264   7.268   1.772   5.057  1.0101 -1.3749 -1.6879
   78MOL   H23134265   7.457   1.710   4.933  2.2637  0.5824 -0.1909
   78MOL   H23234266   7.525   1.849   5.198 -0.2118  0.4940 -0.3439
   78MOL   H23334267   7.452   1.687   5.177 -0.4247  2.1788  2.6660
   78MOL   H23434268   7.658   1.633   5.050 -1.5215 -1.1711  1.0433
   78MOL   H23534269   7.709   1.683   5.209 -2.2130  1.2978  1.1114
   78MOL   H23634270   7.753   1.914   5.110 -0.8893 -0.2018  0.2351
   78MOL   H23734271   0.082   1.778   5.054  0.0262 -0.4816  0.0891
   78MOL   H23834272   7.701   1.752   4.854  0.6058  0.2598 -0.0407
   78MOL   H23934273   7.765   1.916   4.860 -0.7714 -2.5877 -3.5303
   78MOL   H24034274   7.558   1.992   4.991  0.3930  0.4912  0.4888
   78MOL   H24134275   7.536   1.946   4.833  2.6448 -1.6037 -0.8013
   78MOL   H24234276   7.275   2.054   4.960  0.3267 -0.6092 -0.5646
   78MOL   H24334277   7.383   2.018   5.092 -1.4395  0.4892  2.5682
   78MOL   C24434278   7.170   2.024   5.152  0.2628  0.6293 -0.1657
   78MOL   C24534279   7.174   2.171   5.200  0.3135  0.2093 -0.1090
   78MOL   C24634280   7.043   2.215   5.271  0.2794 -0.9879  0.1939
   78MOL   C24734281   7.026   2.368   5.320  0.5846  0.8404 -0.4466
   78MOL   C24834282   7.049   2.456   5.205  0.1508 -0.5797 -0.1999
   78MOL   C24934283   7.177   2.421   5.140  0.5085 -0.3700 -0.8538
   78MOL   C25034284   7.189   2.278   5.086 -0.6838  0.3032 -0.1593
   78MOL   C25134285   7.177   1.923   5.277 -0.2589 -0.0373  0.1627
   78MOL   H25234286   7.075   2.011   5.099  0.1320 -0.2751  0.2708
   78MOL   H25334287   7.265   2.185   5.258  0.0890  0.4339  0.1927
   78MOL   H25434288   7.028   2.148   5.355 -0.4399 -0.9589  0.0864
   78MOL   H25534289   6.970   2.188   5.195  2.9271 -1.6635 -2.2382
   78MOL   H25634290   6.927   2.393   5.359 -0.9635 -2.0076 -2.4146
   78MOL   H25734291   7.099   2.388   5.398  0.8217  2.1454 -0.9959
   78MOL   H25834292   6.967   2.446   5.134 -0.3186 -1.5632  0.4657
   78MOL   H25934293   7.049   2.561   5.233 -1.3845 -0.2349 -1.4236
   78MOL   H26034294   7.264   2.434   5.204  0.3403 -0.6899 -0.5546
   78MOL   H26134295   7.190   2.483   5.052 -0.6415  2.4337  0.8861
   78MOL   H26234296   7.115   2.269   5.007 -0.1233 -0.3564 -0.6216
   78MOL   H26334297   7.288   2.272   5.041  0.9525  0.2323  3.2547
   78MOL   H26434298   7.229   1.835   5.238  0.4285  1.3743 -2.2046
   78MOL   H26534299   7.073   1.891   5.286  0.3774 -2.2148  0.0811
   78MOL   C26634300   7.226   1.968   5.425  0.0382 -0.0067  0.1641
   78MOL   C26734301   7.175   1.865   5.534 -0.7849 -0.5401  0.5136
   78MOL   C26834302   7.217   1.717   5.499  0.1796 -0.6199 -0.3954
   78MOL   C26934303   7.168   1.622   5.614 -0.8925  0.2006  0.1743
   78MOL   C27034304   7.018   1.641   5.650  0.2134  0.1320  0.0478
   78MOL   C27134305   6.979   1.787   5.677  0.3604 -0.4643 -0.4314
   78MOL   C27234306   7.017   1.876   5.560 -0.0307  1.0786 -0.1121
   78MOL   C27334307   7.386   1.989   5.426  0.0410  0.4942 -0.1304
   78MOL   H27434308   7.181   2.061   5.460  1.0119  0.4781  0.1445
   78MOL   H27534309   7.220   1.891   5.629 -0.8708  0.7843  0.2017
   78MOL   H27634310   7.181   1.682   5.402 -0.0129  0.2446 -0.6349
   78MOL   H27734311   7.325   1.710   5.495  0.4184  1.2203  1.6248
   78MOL   H27834312   7.225   1.630   5.707  0.1962  1.8020 -0.6242
   78MOL   H27934313   7.181   1.516   5.591 -0.8063  0.3259 -0.3408
   78MOL   H28034314   6.946   1.607   5.576 -0.3113  0.6679  0.3152
   78MOL   H28134315   6.994   1.581   5.738 -3.1763 -1.1872 -1.7216
   78MOL   H28234316   7.022   1.829   5.768 -0.5243  1.5107 -0.8956
   78MOL   H28334317   6.873   1.804   5.698  0.6897 -0.8760  1.6245
   78MOL   H28434318   7.009   1.977   5.599  3.0219  0.4318  2.4456
   78MOL   H28534319   6.952   1.867   5.473 -0.8979  1.0584  0.5283
   78MOL   H28634320   7.411   1.995   5.321 -1.3605 -1.7959 -0.6255
   78MOL   H28734321   7.433   1.898   5.465 -1.2959 -0.3738 -0.5265
   78MOL   C28834322   7.441   2.110   5.501  0.9077  0.4448  0.0310
   78MOL   C28934323   7.557   2.179   5.430  0.6188  0.1652 -0.1096
   78MOL   C29034324   7.676   2.085   5.415 -0.3083 -0.0899  0.0589
   78MOL   C29134325   0.030   2.156   5.354  0.9487 -0.0351  1.0588
   78MOL   C29234326   0.005   2.241   5.226  0.4654  0.5247 -0.0472
   78MOL   C29334327   7.650   2.331   5.252 -0.0105  0.3752 -0.5906
   78MOL   C29434328   7.531   2.254   5.301 -0.0651  0.0715 -0.3510
   78MOL   C29534329   7.465   2.069   5.650 -0.3504 -0.4579 -0.0509
   78MOL   H29634330   7.362   2.185   5.504 -0.4803 -1.0445  2.8686
   78MOL   H29734331   7.597   2.249   5.504 -0.0171  0.7454 -0.3132
   78MOL   H29834332   7.696   2.062   5.519 -2.0460  0.2947  0.4899
   78MOL   H29934333   7.651   1.997   5.356  2.4098 -1.7681  1.3033
   78MOL   H30034334   0.077   2.220   5.429 -2.4515  0.5073  2.8433
   78MOL   H30134335   0.104   2.080   5.328  1.3418  0.7380 -0.0909
   78MOL   H30234336   7.756   2.169   5.147 -1.5030  0.4911  0.4846
   78MOL   H30334337   0.088   2.301   5.187  1.6753 -0.9567  0.1960
   78MOL   H30434338   7.616   2.375   5.158  2.1668  1.8727 -0.7189
   78MOL   H30534339   7.682   2.412   5.317 -3.1703  1.9855 -0.9410
   78MOL   H30634340   7.510   2.183   5.221  0.1640 -1.5283  0.9850
   78MOL   H30734341   7.449   2.326   5.303 -0.3632 -0.2119 -1.6549
   78MOL   H30834342   7.378   2.022   5.696  0.3347 -2.3191 -0.6061
   78MOL   H30934343   7.538   1.988   5.655  0.5419  0.4705  3.1161
   78MOL   C31034344   7.518   2.169   5.762  0.7736 -0.0804  0.4510
   78MOL   C31134345   7.428   2.294   5.787 -0.2276  0.0547 -0.2923
   78MOL   C31234346   7.444   2.404   5.679 -0.3244  0.1115  0.0031
   78MOL   C31334347   7.355   2.526   5.705 -0.1659  0.4464  0.0212
   78MOL   C31434348   7.211   2.486   5.707 -0.6078 -0.0129  0.0311
   78MOL   C31534349   7.185   2.386   5.818  0.1384  0.5563  0.3314
   78MOL   C31634350   7.271   2.264   5.799 -0.7969  0.0130 -0.6189
   78MOL   C31734351   7.535   2.096   5.900 -0.5569 -0.1041 -0.0069
   78MOL   H31834352   7.611   2.208   5.723  0.4401  1.2969  1.0287
   78MOL   H31934353   7.465   2.335   5.881 -0.2515  1.3966 -0.8711
   78MOL   H32034354   7.546   2.435   5.698 -0.4052  1.2194 -1.2578
   78MOL   H32134355   7.431   2.376   5.574 -0.2418 -2.2195  0.5929
   78MOL   H32234356   7.368   2.609   5.636  1.3809  2.9143  3.1511
   78MOL   H32334357   7.384   2.569   5.801 -0.9290 -1.8844  1.3537
   78MOL   H32434358   7.161   2.578   5.736  1.8457  1.3639 -0.0103
   78MOL   H32534359   7.181   2.445   5.610  0.0295 -0.8477  0.1794
   78MOL   H32634360   7.213   2.432   5.913  1.7917  0.2060  0.0347
   78MOL   H32734361   7.078   2.367   5.818 -0.4423  3.4991 -0.7913
   78MOL   H32834362   7.239   2.215   5.707 -1.5126 -1.3337  0.3302
   78MOL   H32934363   7.265   2.193   5.882  0.5613 -0.1588 -0.6633
   78MOL   H33034364   7.443   2.037   5.906 -0.5407  0.0063  1.5111
   78MOL   H33134365   7.526   2.174   5.975 -0.9961  0.8036 -0.9777
   78MOL   C33234366   7.663   2.008   5.912  0.3237  0.6161  0.0601
   78MOL   C33334367   7.655   1.905   6.036  0.5669  0.4749 -0.3690
   78MOL   C33434368   7.540   1.803   6.012  0.4358 -0.1363  0.3422
   78MOL   C33534369   7.545   1.680   6.110  0.3840 -0.2993  0.0843
   78MOL   C33634370   7.544   1.742   6.260 -0.3532  0.5821 -0.5571
   78MOL   C33734371   7.651   1.849   6.289 -0.2021  0.1047  0.0804
   78MOL   C33834372   7.654   1.959   6.184  0.5250 -0.7749  0.7344
   78MOL   C33934373   0.022   2.087   5.914  0.0235  0.0290  0.8789
   78MOL   H34034374   7.672   1.942   5.825  0.0147  2.0079 -1.0423
   78MOL   H34134375   7.748   1.848   6.034 -0.4206 -1.1308 -1.6355
   78MOL   H34234376   7.441   1.848   6.022  0.3096 -0.2945 -0.1713
   78MOL   H34334377   7.531   1.771   5.908 -0.0727  2.7505 -0.5219
   78MOL   H34434378   7.463   1.612   6.089 -1.4368  1.7771  0.3110
   78MOL   H34534379   7.638   1.629   6.087  1.5273  1.0542  1.5407
   78MOL   H34634380   7.445   1.781   6.282 -0.1495  0.1933  1.1506
   78MOL   H34734381   7.561   1.670   6.341  0.1233  0.3366 -0.8760
   78MOL   H34834382   7.742   1.790   6.291  0.3268  0.8368 -1.6358
   78MOL   H34934383   7.632   1.884   6.391  0.1611 -1.0582  0.5629
   78MOL   H35034384   7.740   2.024   6.202  0.4205 -0.6383  0.7454
   78MOL   H35134385   7.570   2.022   6.214 -1.2633 -3.8451  2.4944
   78MOL   H35234386   0.040   2.126   6.014 -1.3549 -2.2475  2.0544
   78MOL   H35334387   0.011   2.172   5.847 -1.4766 -1.6777 -1.1101
   78MOL   C35434388   0.157   2.019   5.862  0.3753 -0.3113 -0.2383
   78MOL   C35534389   0.287   2.085   5.918  0.6574  0.2455 -0.1656
   78MOL   C35634390   0.313   2.050   6.060  0.0535 -0.0401 -0.6330
   78MOL   C35734391   0.452   2.087   6.106  0.3782 -0.0357 -0.5038
   78MOL   C35834392   0.457   2.242   6.086  0.0755 -0.3314  0.5251
   78MOL   C35934393   0.415   2.295   5.942 -0.2675 -0.5313  0.3585
   78MOL   C36034394   0.286   2.234   5.902  0.2452  0.6432 -0.4683
   78MOL   C36134395   0.167   1.988   5.706 -0.1874  0.3528  0.0451
   78MOL   H36234396   0.161   1.920   5.909  2.3828 -0.9510 -1.7291
   78MOL   H36334397   0.366   2.043   5.856 -0.0223  0.3295 -1.1045
   78MOL   H36434398   0.287   1.947   6.085 -0.1268  0.0464 -0.4644
   78MOL   H36534399   0.244   2.100   6.127 -1.8245 -1.2461 -1.6050
   78MOL   H36634400   0.479   2.063   6.208 -1.2970 -0.1202 -0.0737
   78MOL   H36734401   0.516   2.049   6.026 -0.4354 -2.5464  0.0185
   78MOL   H36834402   0.389   2.294   6.153  0.8816  0.4913  0.7169
   78MOL   H36934403   0.555   2.275   6.121  1.1830 -0.3740 -2.3242
   78MOL   H37034404   0.399   2.402   5.934  2.3919 -0.2277 -1.3046
   78MOL   H37134405   0.488   2.273   5.865  1.6385  1.9830  1.3794
   78MOL   H37234406   0.265   2.258   5.798  1.2914 -2.0653 -1.3504
   78MOL   H37334407   0.197   2.262   5.959  0.2125 -1.1488  0.4156
   78MOL   H37434408   0.231   2.066   5.664  1.6167 -0.5171  1.1411
   78MOL   H37534409   0.076   2.013   5.653  0.7301  1.8401 -0.8560
   78MOL   C37634410   0.240   1.870   5.656  0.5726  0.3274 -0.0344
   78MOL   C37734411   0.147   1.746   5.649 -0.3937 -0.2117  0.3825
   78MOL   C37834412   0.023   1.759   5.564  1.1198  0.2582 -0.5778
   78MOL   C37934413   7.713   1.635   5.540 -1.1184  1.0141  0.7939
   78MOL   C38034414   7.665   1.573   5.671 -0.3462 -0.7235 -0.6178
   78MOL   C38134415   0.012   1.564   5.772  0.0702 -0.0796 -0.4728
   78MOL   C38234416   0.102   1.688   5.791 -0.1231  0.9444  0.0870
   78MOL   C38334417   0.316   1.893   5.520 -0.3961 -0.6789 -0.1961
   78MOL   H38434418   0.308   1.846   5.737 -1.4793 -0.0355  1.6199
   78MOL   H38534419   0.203   1.664   5.603 -0.3883  0.4923 -0.8828
   78MOL   H38634420   7.725   1.833   5.602  1.2330 -0.2489  0.6519
   78MOL   H38734421   0.060   1.791   5.467  1.8597 -0.2593 -0.4728
   78MOL   H38834422   7.765   1.553   5.491  0.1456  0.3300  3.2007
   78MOL   H38934423   7.616   1.659   5.495 -0.8169 -1.2602 -1.1688
   78MOL   H39034424   7.585   1.634   5.711  1.1140  0.0572  1.1363
   78MOL   H39134425   7.620   1.474   5.658 -0.7721 -0.4486 -1.2654
   78MOL   H39234426   7.754   1.543   5.875  1.5009 -1.3048 -0.2976
   78MOL   H39334427   0.076   1.480   5.746 -0.2841 -0.7735  0.8213
   78MOL   H39434428   0.025   1.753   5.834  0.7782  2.0373  0.0819
   78MOL   H39534429   0.190   1.664   5.850  1.5513 -2.1154 -3.4355
   78MOL   H39634430   0.380   1.978   5.543  0.5369 -1.5037  0.3092
   78MOL   H39734431   0.244   1.929   5.446 -1.2507 -1.8876  0.0322
   78MOL   C39834432   0.415   1.790   5.460 -0.3055  0.0644  0.6457
   78MOL   C39934433   0.462   1.826   5.315 -0.0968  0.5569 -0.6491
   78MOL   C40034434   0.351   1.800   5.206 -0.0929 -0.0638  0.3058
   78MOL   C40134435   0.415   1.823   5.070 -0.4751  0.3248 -0.1120
   78MOL   C40234436   0.461   1.978   5.062  0.1702  0.3336 -0.2565
   78MOL   C40334437   0.573   2.008   5.163  0.3447 -0.4573 -0.4694
   78MOL   C40434438   0.526   1.968   5.302 -0.1956 -1.0493  0.4354
   78MOL   C40534439   0.536   1.774   5.554  0.1931  0.6021  0.4315
   78MOL   H40634440   0.355   1.699   5.459 -1.0158  0.5214  1.1730
   78MOL   H40734441   0.544   1.758   5.292  0.7467  1.0286  0.8543
   78MOL   H40834442   0.265   1.867   5.214  0.6482  1.0172 -0.5779
   78MOL   H40934443   0.325   1.695   5.196 -0.7115 -0.0225  1.4258
   78MOL   H41034444   0.351   1.801   4.984 -0.3091 -0.6186  0.0035
   78MOL   H41134445   0.500   1.755   5.068 -0.9313 -0.3448  2.1029
   78MOL   H41234446   0.379   2.042   5.094 -2.1333 -2.3993 -0.5320
   78MOL   H41334447   0.487   2.021   4.965  0.3548 -1.2912 -0.9377
   78MOL   H41434448   0.669   1.961   5.139  1.7784  0.8221  2.4332
   78MOL   H41534449   0.597   2.114   5.168  0.8006 -0.5572 -0.4876
   78MOL   H41634450   0.610   1.972   5.373  0.2180 -0.0002 -0.1081
   78MOL   H41734451   0.452   2.035   5.346  0.0857  0.6712 -1.6173
   78MOL   H41834452   0.608   1.855   5.544  0.4411  0.4007  0.5642
   78MOL   H41934453   0.516   1.791   5.660  0.0596 -0.0313  0.5138
   78MOL   C42034454   0.610   1.635   5.547  0.5386 -0.4710  0.5572
   78MOL   C42134455   0.523   1.511   5.577  0.2600 -0.2075 -0.4295
   78MOL   C42234456   0.475   1.504   5.723 -0.0316 -0.5949 -0.2492
   78MOL   C42334457   0.385   1.381   5.742 -0.0073 -0.5777 -0.5742
   78MOL   C42434458   0.452   1.253   5.706 -0.2743  0.2818 -0.5472
   78MOL   C42534459   0.511   1.256   5.560  1.0847 -0.4188 -0.2987
   78MOL   C42634460   0.599   1.376   5.535  0.1768  0.0868 -0.0629
   78MOL   C42734461   0.748   1.635   5.620 -0.6665 -0.0790  0.7658
   78MOL   H42834462   0.643   1.611   5.446  3.0660  1.6177  0.8073
   78MOL   H42934463   0.439   1.521   5.509 -1.0487  3.4183  1.5907
   78MOL   H43034464   0.555   1.501   5.797  0.5413 -0.5980 -0.8728
   78MOL   H43134465   0.420   1.597   5.739  0.6589 -0.3743  0.8941
   78MOL   H43234466   0.345   1.377   5.843 -3.1590  0.4427 -1.7332
   78MOL   H43334467   0.304   1.407   5.675  0.6850 -0.0533 -1.2223
   78MOL   H43434468   0.371   1.181   5.702 -0.5260  0.5832 -1.0861
   78MOL   H43534469   0.523   1.222   5.782 -1.0842 -0.9268 -0.2763
   78MOL   H43634470   0.422   1.257   5.497  0.5982 -3.6551  0.2056
   78MOL   H43734471   0.570   1.166   5.538  0.6407 -1.5061  2.7059
   78MOL   H43834472   0.693   1.370   5.588  0.7937  0.7813 -1.0549
   78MOL   H43934473   0.616   1.378   5.427 -0.1210 -0.0661 -0.1139
   78MOL   H44034474   0.803   1.725   5.594 -0.3979 -0.6875 -0.8463
   78MOL   H44134475   0.730   1.628   5.727  0.9737  0.0275  1.0675
   78MOL   H44234476   0.806   1.549   5.584 -1.9271 -0.2422 -0.9809
   79MOL     C134477   1.997   0.966   4.267 -0.1856 -0.7620  0.7525
   79MOL     C234478   2.105   0.997   4.158  0.4939  0.7182  0.1316
   79MOL     C334479   2.116   0.878   4.068  0.2115  0.5278 -0.4583
   79MOL     C434480   2.226   0.877   3.971  0.1979 -0.9072  0.0217
   79MOL     C534481   2.364   0.901   4.039  0.0225 -0.2024 -0.1292
   79MOL     C634482   2.364   1.026   4.124  0.1779  0.1920 -0.3776
   79MOL     C734483   2.243   1.023   4.225 -0.2117 -0.7255  0.4750
   79MOL     C834484   1.938   1.093   4.324  0.6113  0.4045 -0.9205
   79MOL     H934485   1.913   0.912   4.224 -0.6650  0.2281  0.4283
   79MOL    H1034486   2.078   1.087   4.103 -5.3257 -0.2895  1.0250
   79MOL    H1134487   2.126   0.790   4.133  1.3518  0.8368 -0.2155
   79MOL    H1234488   2.024   0.868   4.010 -0.0210  1.9047 -0.3451
   79MOL    H1334489   2.207   0.951   3.894  0.7049  0.8804  1.5918
   79MOL    H1434490   2.216   0.788   3.909  0.5203 -0.4912 -0.6332
   79MOL    H1534491   2.442   0.896   3.963  0.4810  0.6287  0.2718
   79MOL    H1634492   2.370   0.817   4.109  0.1437 -0.6169 -0.6363
   79MOL    H1734493   2.460   1.038   4.174 -0.7661 -1.3358  1.8742
   79MOL    H1834494   2.361   1.121   4.071  0.2069  1.2660  1.4741
   79MOL    H1934495   2.250   1.118   4.279 -0.9880 -0.0138 -0.6647
   79MOL    H2034496   2.254   0.950   4.306  1.0336 -2.1452 -0.9459
   79MOL    H2134497   2.016   1.164   4.352  0.9094  0.4212 -1.7978
   79MOL    H2234498   1.893   1.071   4.421  0.6033  1.4297 -0.6760
   79MOL    H2334499   2.044   0.904   4.343  0.5662 -1.2823 -0.1254
   79MOL    C2434500   1.829   1.167   4.243 -0.1701 -0.0771 -0.2470
   79MOL    C2534501   1.716   1.076   4.189  0.3117  0.1434 -0.4862
   79MOL    C2634502   1.624   1.130   4.077  0.5542  0.2638 -0.5336
   79MOL    C2734503   1.525   1.024   4.026  0.0609  0.4006 -0.5044
   79MOL    C2834504   1.441   0.968   4.142  0.3347  0.1205  0.2761
   79MOL    C2934505   1.531   0.911   4.253 -0.0350 -1.1338 -0.4548
   79MOL    C3034506   1.628   1.016   4.300 -0.0923  0.1230  0.1507
   79MOL    C3134507   1.775   1.296   4.305  0.4070  0.5163  0.0339
   79MOL    H3234508   1.882   1.193   4.152  1.1104  2.6648  1.2262
   79MOL    H3334509   1.764   0.993   4.136  0.1490 -0.4889  0.3476
   79MOL    H3434510   1.681   1.174   3.994  0.6918  0.2696 -0.4367
   79MOL    H3534511   1.573   1.218   4.116  0.1667 -0.2358  0.0748
   79MOL    H3634512   1.461   1.057   3.944  1.3739  0.8457 -1.3627
   79MOL    H3734513   1.583   0.943   3.982 -0.4087  0.0574 -0.4983
   79MOL    H3834514   1.371   0.897   4.098 -0.8805 -0.0954  2.4968
   79MOL    H3934515   1.379   1.047   4.183  0.1324  0.2682 -0.3072
   79MOL    H4034516   1.459   0.885   4.330  0.7295  0.1750  0.7190
   79MOL    H4134517   1.586   0.823   4.219 -0.0199 -0.8000 -1.3271
   79MOL    H4234518   1.575   1.096   4.351  1.6044  0.7333  0.9954
   79MOL    H4334519   1.693   0.962   4.368  0.4896  1.8548  0.9983
   79MOL    H4434520   1.743   1.263   4.404 -0.3108  0.9189 -0.0604
   79MOL    H4534521   1.698   1.338   4.240 -0.0953 -0.2075  0.1495
   79MOL    C4634522   1.877   1.414   4.307 -0.1184  0.5075  0.0205
   79MOL    C4734523   1.826   1.535   4.393  0.5297  0.3973 -0.7025
   79MOL    C4834524   1.794   1.489   4.543 -0.0773  0.2820 -0.5968
   79MOL    C4934525   1.768   1.618   4.625 -0.2214  0.2365  0.0145
   79MOL    C5034526   1.656   1.705   4.572 -0.1733  0.1707  0.1047
   79MOL    C5134527   1.676   1.733   4.422 -0.4802  0.3209 -0.2950
   79MOL    C5234528   1.708   1.607   4.334 -0.1198 -0.7245 -0.4292
   79MOL    C5334529   1.928   1.451   4.160  0.5758  0.2965 -0.0274
   79MOL    H5434530   1.968   1.379   4.355 -1.0346 -2.0432 -0.0168
   79MOL    H5534531   1.910   1.603   4.404 -0.7044  1.8420  0.0284
   79MOL    H5634532   1.704   1.426   4.545  0.3487 -0.3352 -0.8913
   79MOL    H5734533   1.877   1.448   4.600 -2.2653  0.0336  2.5520
   79MOL    H5834534   1.863   1.669   4.641 -0.4071  1.1344 -1.6303
   79MOL    H5934535   1.732   1.586   4.723  0.9382  0.8600  0.6519
   79MOL    H6034536   1.559   1.655   4.573 -0.3246  0.3604  3.7281
   79MOL    H6134537   1.632   1.793   4.633  1.5311  1.1823 -0.6614
   79MOL    H6234538   1.766   1.795   4.420  0.2999 -0.8022 -0.7673
   79MOL    H6334539   1.589   1.781   4.378  0.7006  1.0910 -1.8310
   79MOL    H6434540   1.616   1.554   4.311  0.8034 -2.0397 -1.1582
   79MOL    H6534541   1.744   1.629   4.234  0.8107  0.9698  0.2509
   79MOL    H6634542   1.841   1.464   4.096 -0.6904  0.8179  1.7665
   79MOL    H6734543   1.974   1.365   4.111 -0.2422  0.4529 -1.0883
   79MOL    C6834544   2.020   1.571   4.154 -0.0149  0.1683 -0.2817
   79MOL    C6934545   2.156   1.552   4.227 -0.4085 -0.5614 -0.1097
   79MOL    C7034546   2.250   1.456   4.154  0.4064  0.3414  0.0571
   79MOL    C7134547   2.388   1.429   4.223 -0.1177 -0.1766 -0.1806
   79MOL    C7234548   2.451   1.560   4.265  0.7505 -0.0999 -0.5771
   79MOL    C7334549   2.358   1.646   4.349  0.3893 -0.6014 -0.3237
   79MOL    C7434550   2.237   1.679   4.253  0.2650 -0.5903  0.4442
   79MOL    C7534551   2.025   1.623   4.007  0.4297  1.1286 -0.0059
   79MOL    H7634552   1.981   1.652   4.215  1.1450 -0.2922  1.1027
   79MOL    H7734553   2.141   1.501   4.322  0.7300 -3.2332 -1.2905
   79MOL    H7834554   2.267   1.484   4.050 -2.5362 -0.5066 -0.6780
   79MOL    H7934555   2.211   1.355   4.151 -1.7555  0.9973  3.1030
   79MOL    H8034556   2.387   1.369   4.314 -0.5803  0.8237  0.4834
   79MOL    H8134557   2.448   1.370   4.154 -1.2894 -2.8103  0.9734
   79MOL    H8234558   2.486   1.620   4.181 -0.6482  1.9889  0.3192
   79MOL    H8334559   2.533   1.534   4.332  0.1641 -2.7207 -0.8017
   79MOL    H8434560   2.407   1.740   4.375  0.0941  0.1915 -2.5121
   79MOL    H8534561   2.323   1.596   4.439 -2.8432 -0.1823 -1.2813
   79MOL    H8634562   2.271   1.725   4.160 -2.1707 -0.3787 -0.3791
   79MOL    H8734563   2.172   1.753   4.300  0.8496 -0.0630  0.4394
   79MOL    H8834564   2.109   1.569   3.964 -0.0113  0.2024  0.2787
   79MOL    H8934565   1.946   1.578   3.947 -0.0332  0.4304  1.1098
   79MOL    C9034566   2.025   1.773   4.000 -0.0675 -0.7387 -0.1354
   79MOL    C9134567   2.066   1.824   3.860  0.1834 -1.3271  0.2960
   79MOL    C9234568   2.210   1.788   3.822 -0.8073  0.4583 -0.0157
   79MOL    C9334569   2.248   1.850   3.682 -0.3848  0.5325 -0.0503
   79MOL    C9434570   2.144   1.814   3.568 -0.3119 -0.4750 -0.6445
   79MOL    C9534571   1.999   1.849   3.619 -0.3017 -0.0564  0.1419
   79MOL    C9634572   1.972   1.775   3.747 -0.4645 -0.9390  0.1650
   79MOL    C9734573   1.899   1.839   4.046 -0.3936 -0.5672 -0.6680
   79MOL    H9834574   2.098   1.818   4.068  1.0261 -3.1640  0.3322
   79MOL    H9934575   2.071   1.933   3.866  0.4154 -1.3773  0.9718
   79MOL   H10034576   2.219   1.680   3.830  0.1817  0.5953  0.9538
   79MOL   H10134577   2.273   1.825   3.904 -1.9384 -1.2188  1.6581
   79MOL   H10234578   2.347   1.822   3.647 -1.0866 -0.9143 -0.9050
   79MOL   H10334579   2.258   1.958   3.691 -0.6855  0.5884 -0.3796
   79MOL   H10434580   2.148   1.705   3.565  2.4827 -0.4684  1.1026
   79MOL   H10534581   2.149   1.853   3.467 -2.2092 -1.4903 -1.1650
   79MOL   H10634582   1.989   1.957   3.628  3.0832  0.3697 -0.6056
   79MOL   H10734583   1.928   1.823   3.540 -1.4655 -0.5635  1.3304
   79MOL   H10834584   1.869   1.788   3.779  0.0668  2.4630  0.7533
   79MOL   H10934585   1.990   1.668   3.747  0.0399 -0.8662  2.0606
   79MOL   H11034586   1.814   1.805   3.988 -0.0309 -0.9263 -0.9869
   79MOL   H11134587   1.870   1.806   4.146  1.6052  0.3674  0.2585
   79MOL   C11234588   1.891   1.994   4.046 -0.8950 -0.0701  0.4415
   79MOL   C11334589   2.005   2.067   4.118  0.0341  0.0124  0.4514
   79MOL   C11434590   2.005   2.050   4.271  0.6370 -0.0716  0.2674
   79MOL   C11534591   2.132   2.120   4.328  0.0593 -0.0820 -0.3302
   79MOL   C11634592   2.140   2.278   4.298  0.4847  0.7325 -0.2161
   79MOL   C11734593   2.133   2.291   4.146 -0.5788  0.0810 -0.0173
   79MOL   C11834594   2.013   2.217   4.083 -0.4301  0.1810  0.3246
   79MOL   C11934595   1.749   2.029   4.103  0.3192 -0.2010 -0.2168
   79MOL   H12034596   1.903   2.029   3.943  0.1848  0.4185  0.7361
   79MOL   H12134597   2.103   2.041   4.078 -0.1817 -0.5446  0.2747
   79MOL   H12234598   2.006   1.943   4.292  1.9474  0.1794  1.5628
   79MOL   H12334599   1.917   2.089   4.323  1.8955  3.1370  0.0873
   79MOL   H12434600   2.151   2.105   4.434 -1.2130 -4.8517 -0.6490
   79MOL   H12534601   2.217   2.069   4.283  0.5891  1.3068 -0.9460
   79MOL   H12634602   2.049   2.315   4.346 -0.8971 -0.0566 -2.1817
   79MOL   H12734603   2.227   2.322   4.347 -0.5830  0.1802  2.2751
   79MOL   H12834604   2.136   2.392   4.107  4.6108  0.0350 -0.0090
   79MOL   H12934605   2.221   2.256   4.092 -0.6753  0.7096 -0.5766
   79MOL   H13034606   2.015   2.224   3.974 -1.3878  1.3054  0.3711
   79MOL   H13134607   1.921   2.268   4.112 -0.8126 -0.6526  0.6190
   79MOL   H13234608   1.751   2.131   4.143 -1.2137 -0.5031  0.6440
   79MOL   H13334609   1.739   1.974   4.197  1.4765  2.7957  1.7545
   79MOL   C13434610   1.624   2.005   4.002 -0.2090  0.7039 -0.3792
   79MOL   C13534611   1.592   2.120   3.911 -0.1304 -0.1049  0.1297
   79MOL   C13634612   1.707   2.148   3.808 -0.3383  0.6951 -0.0434
   79MOL   C13734613   1.666   2.252   3.700 -0.4764  0.4221 -0.8755
   79MOL   C13834614   1.605   2.388   3.756 -0.3995 -0.7136  0.5160
   79MOL   C13934615   1.509   2.354   3.865  0.0120  0.0327  0.3091
   79MOL   C14034616   1.561   2.262   3.979  0.3328  0.7152  0.0815
   79MOL   C14134617   1.503   1.973   4.098 -0.1297 -0.1973  0.1824
   79MOL   H14234618   1.647   1.912   3.949 -0.8535 -0.1568  0.8233
   79MOL   H14334619   1.511   2.077   3.851  1.6965  0.0688 -2.5725
   79MOL   H14434620   1.786   2.194   3.866 -1.5807  0.5397  1.8158
   79MOL   H14534621   1.747   2.060   3.756 -2.1725  0.8042 -1.7249
   79MOL   H14634622   1.582   2.215   3.641 -0.3699 -1.5572  0.1504
   79MOL   H14734623   1.753   2.270   3.637 -0.1552  0.0304 -0.5493
   79MOL   H14834624   1.677   2.454   3.805 -0.6336  0.0726 -0.2009
   79MOL   H14934625   1.544   2.451   3.692 -0.9552 -0.4312  1.3207
   79MOL   H15034626   1.419   2.318   3.816  0.4468  1.4403 -1.5661
   79MOL   H15134627   1.482   2.449   3.912  0.1330 -0.5508  1.5983
   79MOL   H15234628   1.652   2.302   4.023  0.9929 -0.6566  0.0001
   79MOL   H15334629   1.486   2.270   4.058  1.3059  0.2696  1.0533
   79MOL   H15434630   1.489   2.065   4.155  0.4845 -0.4214  0.7122
   79MOL   H15534631   1.536   1.906   4.177 -1.3640 -2.0471 -0.8333
   79MOL   C15634632   1.373   1.918   4.039 -0.4338  0.0647  1.0579
   79MOL   C15734633   1.271   1.908   4.152 -1.0781  1.3793  0.6295
   79MOL   C15834634   1.278   1.792   4.259  0.1509 -0.1344  0.0397
   79MOL   C15934635   1.149   1.784   4.329 -0.3866 -0.0131 -0.1634
   79MOL   C16034636   1.115   1.916   4.395 -0.7855 -0.0655 -1.0061
   79MOL   C16134637   1.102   2.026   4.293  0.2569  0.0966  0.2354
   79MOL   C16234638   1.239   2.046   4.220 -0.0072  0.1662  0.2447
   79MOL   C16334639   1.391   1.782   3.971 -0.0874  0.0797  1.0657
   79MOL   H16434640   1.331   1.987   3.967 -0.5843 -0.3657  0.7319
   79MOL   H16534641   1.180   1.890   4.094  0.1465 -0.0835 -0.8778
   79MOL   H16634642   1.304   1.701   4.206 -1.0959 -0.5079  0.0720
   79MOL   H16734643   1.362   1.817   4.324  0.2460  2.4743 -0.9991
   79MOL   H16834644   1.067   1.757   4.263 -2.6183 -0.8646  2.8214
   79MOL   H16934645   1.147   1.710   4.409 -2.7878 -0.4562 -0.6037
   79MOL   H17034646   1.193   1.941   4.467  0.1769  1.2793 -2.4870
   79MOL   H17134647   1.030   1.897   4.460 -0.2676 -1.8621 -0.8102
   79MOL   H17234648   1.087   2.125   4.337  1.1319  0.9493 -1.3405
   79MOL   H17334649   1.017   2.012   4.225  0.5540 -4.0894  0.5813
   79MOL   H17434650   1.223   2.130   4.151 -0.2284 -1.3456 -1.6040
   79MOL   H17534651   1.314   2.070   4.294 -1.7240  0.8299  1.7985
   79MOL   H17634652   1.296   1.728   3.969  0.2750 -0.6384  2.1613
   79MOL   H17734653   1.462   1.716   4.022  1.4960  0.1707 -0.9547
   79MOL   C17834654   1.436   1.778   3.822  0.5688  0.7630 -0.1242
   79MOL   C17934655   1.494   1.633   3.792  0.2181  0.0457  1.1223
   79MOL   C18034656   1.394   1.524   3.821  0.3902 -0.3945  0.6649
   79MOL   C18134657   1.455   1.390   3.782  0.1408 -0.6182 -0.1021
   79MOL   C18234658   1.599   1.366   3.839  0.3266  0.3364 -0.2092
   79MOL   C18334659   1.692   1.479   3.795 -0.1632 -0.2190  0.3510
   79MOL   C18434660   1.628   1.611   3.849  0.3237  0.3573 -0.6344
   79MOL   C18534661   1.327   1.821   3.721 -0.3732  0.0631 -0.2071
   79MOL   H18634662   1.517   1.850   3.810  0.6993  0.6595  0.1223
   79MOL   H18734663   1.506   1.645   3.684 -1.8200  1.2306  1.0041
   79MOL   H18834664   1.361   1.515   3.925 -0.9757  0.4085  0.3132
   79MOL   H18934665   1.299   1.534   3.768  0.2933 -0.0400  0.9027
   79MOL   H19034666   1.471   1.390   3.674 -0.4194  4.4383 -0.3306
   79MOL   H19134667   1.385   1.310   3.807  1.9752 -1.8461  1.2442
   79MOL   H19234668   1.592   1.367   3.948  0.3824 -1.4274 -0.1850
   79MOL   H19334669   1.654   1.279   3.803  0.0175  0.2850 -0.5603
   79MOL   H19434670   1.725   1.473   3.692  3.5499 -1.9080  1.5657
   79MOL   H19534671   1.781   1.453   3.852 -0.1335  0.1589  0.4785
   79MOL   H19634672   1.625   1.606   3.958 -3.5534  1.1092 -0.6453
   79MOL   H19734673   1.682   1.705   3.835  0.3398  0.1690 -1.8665
   79MOL   H19834674   1.234   1.769   3.745  0.6168 -2.2635 -1.1859
   79MOL   H19934675   1.308   1.927   3.736  1.2465  0.1552  1.1951
   79MOL   C20034676   1.350   1.809   3.567  0.5387 -0.2189 -0.5940
   79MOL   C20134677   1.221   1.835   3.493  0.3515 -0.4630 -0.8988
   79MOL   C20234678   1.114   1.724   3.526 -0.6414  1.0144  0.5560
   79MOL   C20334679   1.005   1.747   3.426 -0.1992 -0.7239 -0.1398
   79MOL   C20434680   0.937   1.887   3.431  0.6407 -0.1851 -0.3948
   79MOL   C20534681   1.044   2.004   3.416 -0.6713  0.2732 -0.1544
   79MOL   C20634682   1.174   1.980   3.505  0.2867 -0.1072  0.2578
   79MOL   C20734683   1.472   1.888   3.525 -0.6841  0.2772 -0.1403
   79MOL   H20834684   1.365   1.703   3.545 -1.8446 -1.1964  2.1157
   79MOL   H20934685   1.246   1.822   3.387  1.5551  0.5913 -0.7663
   79MOL   H21034686   1.070   1.721   3.625 -0.6498  1.5975  0.5702
   79MOL   H21134687   1.161   1.630   3.497  0.5269  1.7128  0.0947
   79MOL   H21234688   1.041   1.739   3.324 -2.2675  0.7510 -1.0212
   79MOL   H21334689   0.932   1.667   3.441  0.8788 -1.2905  2.2710
   79MOL   H21434690   0.867   1.888   3.347 -1.1825  0.7708  1.1183
   79MOL   H21534691   0.889   1.908   3.526 -0.3716  1.7387 -1.2992
   79MOL   H21634692   1.063   2.020   3.310 -1.9603  1.8370 -0.1711
   79MOL   H21734693   1.005   2.101   3.444 -0.5390  0.1097  0.6043
   79MOL   H21834694   1.245   2.062   3.487  2.6943 -2.5968 -2.1292
   79MOL   H21934695   1.139   1.987   3.608 -2.6119 -2.4561 -0.5173
   79MOL   H22034696   1.446   1.994   3.529 -1.2866  0.1713 -0.9892
   79MOL   H22134697   1.554   1.885   3.596 -0.5990  2.0764 -0.1350
   79MOL   C22234698   1.528   1.839   3.387 -0.2215 -0.8560  0.3681
   79MOL   C22334699   1.621   1.949   3.324 -0.1539 -0.2648  1.3314
   79MOL   C22434700   1.732   2.007   3.412 -0.3215  0.4850 -0.2311
   79MOL   C22534701   1.792   2.135   3.355  0.1289  0.2063 -0.6418
   79MOL   C22634702   1.702   2.235   3.288  0.3580 -0.1147 -0.3784
   79MOL   C22734703   1.607   2.163   3.184  0.0898  0.2337  0.0324
   79MOL   C22834704   1.535   2.056   3.256  0.6026 -0.5343 -0.1053
   79MOL   C22934705   1.596   1.699   3.405  0.5936 -0.2712  0.2474
   79MOL   H23034706   1.438   1.817   3.328 -0.1508 -3.2117  1.0916
   79MOL   H23134707   1.675   1.906   3.240 -1.2516 -0.2778  0.6248
   79MOL   H23234708   1.699   2.030   3.513 -1.6511  0.7707 -0.7237
   79MOL   H23334709   1.798   1.922   3.431 -0.3529  0.5069 -0.0209
   79MOL   H23434710   1.864   2.094   3.284  0.1343 -0.7996 -0.0677
   79MOL   H23534711   1.851   2.184   3.432 -0.5810 -0.6127  0.4463
   79MOL   H23634712   1.640   2.282   3.364 -0.8141 -1.1992 -0.6583
   79MOL   H23734713   1.757   2.316   3.240  1.7357 -0.1661  1.0556
   79MOL   H23834714   1.665   2.127   3.099  1.7967  2.6370  0.1462
   79MOL   H23934715   1.538   2.240   3.152 -0.9330 -1.7805 -2.7570
   79MOL   H24034716   1.474   2.099   3.335  0.0804 -0.9546 -0.2713
   79MOL   H24134717   1.456   2.022   3.188 -2.1803  2.6809  1.3641
   79MOL   H24234718   1.550   1.625   3.471  3.5788 -2.2092  0.2503
   79MOL   H24334719   1.691   1.713   3.455  1.8587 -0.0048 -2.1862
   79MOL   C24434720   1.628   1.629   3.271 -0.7776 -0.1939 -0.5831
   79MOL   C24534721   1.514   1.582   3.179  0.4672  0.3560  0.0783
   79MOL   C24634722   1.479   1.690   3.068  0.4073 -0.0888  0.6417
   79MOL   C24734723   1.360   1.652   2.975  0.7577 -0.9760 -0.1871
   79MOL   C24834724   1.243   1.593   3.056  0.2197  0.3619 -0.2915
   79MOL   C24934725   1.279   1.485   3.150  0.3399 -1.0053  0.4420
   79MOL   C25034726   1.384   1.534   3.249 -0.2393 -0.1195 -0.1242
   79MOL   C25134727   1.737   1.514   3.295 -0.2183 -0.4274 -0.0367
   79MOL   H25234728   1.687   1.692   3.205  0.7950 -2.0972 -1.0465
   79MOL   H25334729   1.563   1.500   3.127  1.0817  0.2686  0.7945
   79MOL   H25434730   1.564   1.713   3.003  0.5445  0.9620  1.1783
   79MOL   H25534731   1.448   1.779   3.123 -0.0203  0.0621  0.1606
   79MOL   H25634732   1.340   1.735   2.908  0.7135 -1.5222 -0.8624
   79MOL   H25734733   1.392   1.570   2.911 -0.2057 -0.7430 -0.9770
   79MOL   H25834734   1.201   1.678   3.110  0.4598 -0.3418  1.0391
   79MOL   H25934735   1.170   1.564   2.980 -0.2325  0.6559  0.0265
   79MOL   H26034736   1.300   1.390   3.100 -1.9893 -0.8441 -0.9172
   79MOL   H26134737   1.192   1.458   3.209 -1.3563 -1.3776 -2.1420
   79MOL   H26234738   1.349   1.618   3.308  1.3364 -0.6289  1.5874
   79MOL   H26334739   1.418   1.453   3.314  1.3304  1.0556  0.5547
   79MOL   H26434740   1.671   1.436   3.333  0.3775 -0.3593  1.1863
   79MOL   H26534741   1.787   1.538   3.389  0.4049  1.8237 -0.9063
   79MOL   C26634742   1.831   1.468   3.176  0.0572  0.1698 -0.0223
   79MOL   C26734743   1.932   1.576   3.140 -0.0995 -0.6036 -0.6772
   79MOL   C26834744   2.000   1.558   3.003 -0.2941 -0.9620 -0.4959
   79MOL   C26934745   2.084   1.684   2.963 -0.3791 -0.1013 -1.1768
   79MOL   C27034746   2.194   1.703   3.073 -0.6738 -0.7342 -0.2340
   79MOL   C27134747   2.129   1.716   3.207  0.2473 -0.8190 -0.2580
   79MOL   C27234748   2.046   1.593   3.246 -0.3876 -0.1304  1.0571
   79MOL   C27334749   1.896   1.331   3.214 -0.1974  0.5392 -0.4920
   79MOL   H27434750   1.785   1.455   3.079 -0.3762 -0.2442  0.2414
   79MOL   H27534751   1.882   1.673   3.141  1.1738  0.0954 -2.2271
   79MOL   H27634752   2.065   1.471   2.995 -1.6012 -2.2089  1.9673
   79MOL   H27734753   1.926   1.528   2.930 -0.6457  0.9713 -0.9654
   79MOL   H27834754   2.029   1.778   2.965  0.6947  0.5308 -0.6831
   79MOL   H27934755   2.120   1.667   2.862 -2.9301 -1.0294 -1.9857
   79MOL   H28034756   2.257   1.615   3.060 -0.9792 -1.1934  1.2339
   79MOL   H28134757   2.257   1.789   3.050 -0.1588 -0.7093  1.1673
   79MOL   H28234758   2.081   1.814   3.210  0.9566 -0.3985 -1.9071
   79MOL   H28334759   2.216   1.736   3.269  0.0438  0.6369 -0.4148
   79MOL   H28434760   1.987   1.621   3.333  0.8457  0.2963  1.7612
   79MOL   H28534761   2.115   1.508   3.246 -1.1906 -0.8444 -1.3247
   79MOL   H28634762   1.911   1.332   3.322  1.0809  1.1317 -0.6618
   79MOL   H28734763   1.991   1.324   3.161 -1.2612 -0.1864 -2.3058
   79MOL   C28834764   1.832   1.205   3.165  0.5685  0.6198  0.3244
   79MOL   C28934765   1.691   1.172   3.233  0.2937  0.0261  0.1591
   79MOL   C29034766   1.619   1.052   3.169 -0.3414 -0.2466 -0.1428
   79MOL   C29134767   1.475   1.036   3.227  0.3083  0.3213 -0.1038
   79MOL   C29234768   1.487   1.014   3.382  0.6649  0.0365  0.4901
   79MOL   C29334769   1.563   1.130   3.457 -0.3493 -0.2634  0.4409
   79MOL   C29434770   1.699   1.150   3.389 -0.5856 -0.1643 -0.5078
   79MOL   C29534771   1.929   1.085   3.160 -0.6616  0.3903  0.3409
   79MOL   H29634772   1.813   1.228   3.060 -1.0482  0.8691  0.6515
   79MOL   H29734773   1.620   1.252   3.212  0.4199  0.3729  1.0371
   79MOL   H29834774   1.611   1.071   3.062  1.2686  0.6526 -0.1278
   79MOL   H29934775   1.678   0.961   3.174  1.2293  0.6359 -1.7838
   79MOL   H30034776   1.412   1.122   3.205  2.0872  1.7645  0.2341
   79MOL   H30134777   1.418   0.952   3.188 -1.4790  1.2750  0.4059
   79MOL   H30234778   1.543   0.921   3.392  1.4545  0.4811  0.2350
   79MOL   H30334779   1.389   0.997   3.426 -0.1604  2.6064 -0.2919
   79MOL   H30434780   1.579   1.110   3.563  1.0624  0.7740  0.4379
   79MOL   H30534781   1.508   1.223   3.445 -1.1237 -0.7905 -0.1855
   79MOL   H30634782   1.766   1.066   3.404 -1.4606 -0.5011  1.6292
   79MOL   H30734783   1.741   1.238   3.439  0.5791 -2.0725  1.9467
   79MOL   H30834784   2.026   1.115   3.200 -1.0179  0.0538  1.4861
   79MOL   H30934785   1.922   1.002   3.230  1.9229  0.9423  1.3382
   79MOL   C31034786   1.965   1.035   3.018  0.1843 -0.5862 -0.3609
   79MOL   C31134787   2.070   1.130   2.946  0.3533 -0.1660 -0.2817
   79MOL   C31234788   2.214   1.109   2.981  0.4996 -0.2835 -0.1368
   79MOL   C31334789   2.304   1.216   2.929 -0.1442  0.3659 -0.4657
   79MOL   C31434790   2.291   1.224   2.773 -0.4706 -0.3679 -0.0514
   79MOL   C31534791   2.144   1.233   2.725  0.2737  0.1686  0.4951
   79MOL   C31634792   2.057   1.118   2.791  0.5372 -0.5392  0.3080
   79MOL   C31734793   2.007   0.891   3.024  0.4393 -0.5683  0.2933
   79MOL   H31834794   1.873   1.041   2.960 -1.1446 -1.1895  1.6281
   79MOL   H31934795   2.037   1.229   2.977 -0.1125 -0.9936  1.9474
   79MOL   H32034796   2.217   1.115   3.090  0.4588 -3.2509  0.0600
   79MOL   H32134797   2.266   1.014   2.969 -0.2236 -0.4871 -1.8062
   79MOL   H32234798   2.405   1.194   2.965  0.0691  1.3296 -0.4512
   79MOL   H32334799   2.275   1.310   2.975 -1.5233 -0.0945 -0.3949
   79MOL   H32434800   2.346   1.308   2.730  0.5596 -0.7242  0.5602
   79MOL   H32534801   2.348   1.138   2.736 -1.0892 -1.1071  0.6926
   79MOL   H32634802   2.100   1.325   2.764 -0.3997  0.3527 -0.7043
   79MOL   H32734803   2.138   1.231   2.616  1.5009 -1.3521  0.4377
   79MOL   H32834804   2.102   1.021   2.768  0.8266 -0.5568  0.9355
   79MOL   H32934805   1.955   1.127   2.754  1.2160 -1.6570 -1.9515
   79MOL   H33034806   2.064   0.877   3.116  1.1807 -1.6152 -0.3116
   79MOL   H33134807   2.078   0.863   2.946 -1.2157 -0.5743 -1.2227
   79MOL   C33234808   1.887   0.794   3.033  0.3000  0.3034  0.1565
   79MOL   C33334809   1.940   0.649   3.082 -0.0674 -0.6973  0.6401
   79MOL   C33434810   1.977   0.643   3.234 -0.1885 -0.5195  0.2014
   79MOL   C33534811   2.001   0.495   3.269  0.8146 -0.3220 -0.1043
   79MOL   C33634812   2.112   0.432   3.195 -0.4599  0.4682  0.2751
   79MOL   C33734813   2.087   0.437   3.039  0.3042  0.3005  0.8615
   79MOL   C33834814   2.058   0.586   3.003  0.3684 -0.2076  0.4256
   79MOL   C33934815   1.829   0.770   2.890  0.4927  0.2886  0.5017
   79MOL   H34034816   1.817   0.824   3.112 -0.6447  0.8330 -0.8603
   79MOL   H34134817   1.854   0.584   3.070  0.5260 -1.2062 -0.9368
   79MOL   H34234818   2.058   0.709   3.264  1.2740 -1.1037 -2.3234
   79MOL   H34334819   1.891   0.678   3.291 -0.2019 -0.4852  0.1594
   79MOL   H34434820   2.009   0.474   3.376 -0.4282 -2.0383 -0.3153
   79MOL   H34534821   1.910   0.441   3.241 -0.0669  2.4524 -2.8460
   79MOL   H34634822   2.203   0.486   3.221 -0.3244 -0.0598  0.9064
   79MOL   H34734823   2.137   0.334   3.236 -1.3484  0.7434  1.5094
   79MOL   H34834824   2.012   0.362   3.013  0.8743 -0.4630  1.4280
   79MOL   H34934825   2.172   0.402   2.980  0.0212 -2.2289  1.8763
   79MOL   H35034826   2.034   0.595   2.896  1.9406  1.7502  0.2023
   79MOL   H35134827   2.146   0.648   3.018 -0.0801  0.6069 -0.2078
   79MOL   H35234828   1.841   0.670   2.848  1.8945  0.2684  0.9178
   79MOL   H35334829   1.867   0.843   2.818 -1.9851 -0.2919 -1.4974
   79MOL   C35434830   1.674   0.787   2.892  0.1082 -0.1925 -0.0773
   79MOL   C35534831   1.595   0.689   2.990  0.4487 -0.4481  0.7944
   79MOL   C35634832   1.593   0.545   2.947 -0.4260  0.1072  0.3792
   79MOL   C35734833   1.510   0.457   3.046 -0.5015  0.3833  0.3901
   79MOL   C35834834   1.363   0.498   3.046  0.6135  0.2392 -0.2404
   79MOL   C35934835   1.353   0.645   3.088 -0.3241 -0.2459 -0.4401
   79MOL   C36034836   1.442   0.732   3.001 -0.3092  0.7531 -0.1817
   79MOL   C36134837   1.623   0.791   2.741  0.0356  0.0406  0.4861
   79MOL   H36234838   1.658   0.883   2.941 -0.8567  0.5887 -1.8809
   79MOL   H36334839   1.635   0.685   3.091 -1.5042  0.8334  1.6619
   79MOL   H36434840   1.692   0.504   2.925 -0.6762 -1.7173  2.4691
   79MOL   H36534841   1.534   0.532   2.857 -0.4576  1.7851  0.1549
   79MOL   H36634842   1.523   0.350   3.033  3.2964  0.4431  2.9104
   79MOL   H36734843   1.546   0.464   3.149  3.3863  1.1590 -0.9587
   79MOL   H36834844   1.329   0.487   2.942  1.2151 -0.3779 -0.3734
   79MOL   H36934845   1.301   0.434   3.108 -0.0880 -0.7921 -1.9622
   79MOL   H37034846   1.257   0.696   3.097  0.0323  0.1406  1.3198
   79MOL   H37134847   1.385   0.651   3.192  0.4248 -1.7519 -0.5662
   79MOL   H37234848   1.426   0.833   3.038  2.5214  0.9678  0.6352
   79MOL   H37334849   1.392   0.714   2.906 -0.5413 -1.4678  0.3232
   79MOL   H37434850   1.529   0.738   2.725  0.6521 -0.5381 -1.4544
   79MOL   H37534851   1.693   0.741   2.674  0.7333  0.4655  0.8897
   79MOL   C37634852   1.607   0.937   2.694  0.3227 -0.0382 -0.4233
   79MOL   C37734853   1.624   0.947   2.540  0.1708 -0.0459 -0.1805
   79MOL   C37834854   1.529   0.844   2.473  0.2027  0.0514  0.1936
   79MOL   C37934855   1.523   0.871   2.320 -0.2850 -0.2888  0.4373
   79MOL   C38034856   1.668   0.842   2.262  0.1440 -0.0075 -0.3399
   79MOL   C38134857   1.768   0.943   2.322  0.0682 -0.2049  0.2762
   79MOL   C38234858   1.764   0.932   2.475 -0.3093  0.4006  0.2202
   79MOL   C38334859   1.470   0.997   2.733  0.3482  0.2818 -0.5441
   79MOL   H38434860   1.688   0.998   2.734  0.6625  0.7596 -2.2735
   79MOL   H38534861   1.598   1.048   2.509  1.7058  0.5420  0.4496
   79MOL   H38634862   1.552   0.738   2.481 -0.8321 -0.3988 -2.2742
   79MOL   H38734863   1.428   0.856   2.512  0.3743 -0.1879  0.7184
   79MOL   H38834864   1.500   0.974   2.291  1.1305 -0.2090 -0.4256
   79MOL   H38934865   1.443   0.806   2.283 -1.6710  1.9838 -0.7201
   79MOL   H39034866   1.708   0.745   2.290  0.2203 -0.1367 -0.9059
   79MOL   H39134867   1.671   0.852   2.154  0.7678 -0.6242 -0.3781
   79MOL   H39234868   1.867   0.928   2.280 -0.4935  1.3200 -1.6378
   79MOL   H39334869   1.753   1.045   2.287 -2.4851 -0.2293  1.1872
   79MOL   H39434870   1.814   0.845   2.517 -0.5747 -0.7153 -1.7088
   79MOL   H39534871   1.824   1.016   2.510  1.6510  0.0824 -2.2588
   79MOL   H39634872   1.467   0.993   2.842 -2.1459 -2.9031 -0.6193
   79MOL   H39734873   1.387   0.931   2.704 -0.1524  0.9862 -0.7141
   79MOL   C39834874   1.437   1.142   2.702 -1.0058 -0.3272 -0.4745
   79MOL   C39934875   1.291   1.184   2.732  0.3603  0.4817  0.4160
   79MOL   C40034876   1.189   1.122   2.634  0.3674  1.2145 -0.0586
   79MOL   C40134877   1.045   1.156   2.670 -0.1400 -0.2657  0.0548
   79MOL   C40234878   1.008   1.119   2.819  0.0111  0.0943 -0.0556
   79MOL   C40334879   1.103   1.188   2.911 -0.3710 -0.3148  0.3491
   79MOL   C40434880   1.244   1.152   2.871 -0.9597  0.1316 -0.0379
   79MOL   C40534881   1.542   1.236   2.777  0.2129 -0.0884 -0.2321
   79MOL   H40634882   1.445   1.177   2.599 -1.1915  0.9379 -0.0726
   79MOL   H40734883   1.289   1.291   2.715  1.4741  0.9023  2.7475
   79MOL   H40834884   1.203   1.015   2.651  2.9002  1.1395 -2.3389
   79MOL   H40934885   1.211   1.150   2.531  0.7153  0.5098 -0.1792
   79MOL   H41034886   0.984   1.100   2.600  0.9524 -0.6430 -0.6131
   79MOL   H41134887   1.030   1.261   2.646 -2.9746 -0.6392  0.0436
   79MOL   H41234888   1.025   1.011   2.824  0.5403  0.2486  1.6889
   79MOL   H41334889   0.904   1.141   2.841 -0.2835 -1.2742 -0.0217
   79MOL   H41434890   1.085   1.294   2.898 -2.4299 -0.8709 -1.6829
   79MOL   H41534891   1.068   1.149   3.007 -0.4995 -2.0921 -0.4012
   79MOL   H41634892   1.320   1.188   2.940  1.1952  0.7633 -2.6901
   79MOL   H41734893   1.251   1.044   2.879 -1.4440  0.0850 -0.2407
   79MOL   H41834894   1.534   1.241   2.885 -2.2675 -1.1833 -0.3212
   79MOL   H41934895   1.645   1.203   2.766  0.5234  0.7619  0.1026
   79MOL   C42034896   1.561   1.379   2.712 -0.2718  0.4143 -0.2572
   79MOL   C42134897   1.612   1.382   2.560 -0.8984  0.3231 -0.6134
   79MOL   C42234898   1.763   1.340   2.546  0.1549 -0.0528  0.2105
   79MOL   C42334899   1.794   1.335   2.398 -0.4545 -0.3388  0.4194
   79MOL   C42434900   1.753   1.457   2.328 -0.6312  0.3946 -0.2496
   79MOL   C42534901   1.604   1.499   2.340 -0.1207  0.1046  0.2353
   79MOL   C42634902   1.565   1.506   2.483  0.0524 -0.1557  0.4621
   79MOL   C42734903   1.662   1.449   2.805 -0.0305  0.1516  0.0345
   79MOL   H42834904   1.465   1.429   2.724 -0.3538 -0.2880  2.2378
   79MOL   H42934905   1.566   1.304   2.499 -0.9648 -0.1838  0.0712
   79MOL   H43034906   1.833   1.411   2.591 -0.3674  0.0496  0.8706
   79MOL   H43134907   1.790   1.241   2.582 -0.0636  0.1044  0.8166
   79MOL   H43234908   1.902   1.323   2.394 -0.4020  0.3570 -0.4790
   79MOL   H43334909   1.748   1.248   2.351  0.6892 -1.6064  1.6027
   79MOL   H43434910   1.781   1.433   2.226  2.5518  2.2340  0.1447
   79MOL   H43534911   1.823   1.538   2.347  1.0019 -0.9360 -0.5119
   79MOL   H43634912   1.549   1.429   2.277 -1.7843  0.4681  1.2309
   79MOL   H43734913   1.606   1.592   2.283  0.1952  0.5214  0.9227
   79MOL   H43834914   1.612   1.599   2.515 -0.0787 -0.3783  1.3288
   79MOL   H43934915   1.456   1.515   2.487  0.0683  0.2522  0.1023
   79MOL   H44034916   1.637   1.451   2.911  0.5046 -1.8022  0.2034
   79MOL   H44134917   1.753   1.389   2.801  1.3238  2.1819 -0.7389
   79MOL   H44234918   1.681   1.552   2.773  2.3100 -0.2415  0.0558
   80MOL     C134919   7.104   2.641   2.671 -0.1954  0.0184  0.0739
   80MOL     C234920   6.956   2.665   2.654  0.4300 -0.2831  0.1711
   80MOL     C334921   6.914   2.787   2.741 -0.5420  0.1159  0.2498
   80MOL     C434922   6.762   2.821   2.725 -0.3540  0.2143 -0.0208
   80MOL     C534923   6.678   2.702   2.766  0.2549  0.3887  0.3305
   80MOL     C634924   6.721   2.577   2.686 -0.0270 -0.2144 -0.2813
   80MOL     C734925   6.870   2.542   2.698 -0.2616 -0.1553  0.2613
   80MOL     C834926   7.192   2.726   2.582  0.9534  0.2923  0.2761
   80MOL     H934927   7.122   2.659   2.777  0.5415  1.2496 -0.2593
   80MOL    H1034928   6.942   2.686   2.548 -2.1134 -0.6729  0.3978
   80MOL    H1134929   6.932   2.779   2.848 -1.5048 -0.3182  0.3839
   80MOL    H1234930   6.970   2.876   2.713 -1.6816  0.5897 -0.5421
   80MOL    H1334931   6.752   2.833   2.617 -1.0731 -0.7079 -0.0609
   80MOL    H1434932   6.724   2.915   2.766 -0.3635 -0.2488  1.0591
   80MOL    H1534933   6.572   2.721   2.751 -0.1025 -0.6749  1.3922
   80MOL    H1634934   6.687   2.691   2.875  1.4367 -1.6621  0.0535
   80MOL    H1734935   6.672   2.495   2.738 -3.1967  1.1529 -0.9930
   80MOL    H1834936   6.684   2.576   2.584  3.1527  1.2184 -1.5061
   80MOL    H1934937   6.888   2.463   2.625  2.2861  1.1917 -0.5994
   80MOL    H2034938   6.913   2.496   2.787  2.5241 -0.6967 -1.3015
   80MOL    H2134939   7.164   2.830   2.600 -1.3063 -0.3084  0.4399
   80MOL    H2234940   7.153   2.705   2.483  1.3360 -0.6449  0.3224
   80MOL    H2334941   7.123   2.534   2.663  0.2499  0.0627  0.4925
   80MOL    C2434942   7.332   2.674   2.589  0.4500 -0.2054  0.4197
   80MOL    C2534943   7.416   2.739   2.475 -0.4277 -0.1650 -0.5639
   80MOL    C2634944   7.547   2.655   2.443 -0.0316  0.5616 -0.7199
   80MOL    C2734945   7.609   2.714   2.314  0.6625 -0.2211 -0.4107
   80MOL    C2834946   7.633   2.867   2.307  0.3090  0.0186  0.0915
   80MOL    C2934947   7.508   2.940   2.345  0.3425  0.0331 -0.4323
   80MOL    C3034948   7.450   2.892   2.478  0.1757  0.0101  0.3825
   80MOL    C3134949   7.398   2.703   2.724  0.3397 -0.0732 -0.1716
   80MOL    H3234950   7.328   2.568   2.561  2.2317 -0.5403  1.3393
   80MOL    H3334951   7.364   2.730   2.380  1.0262  0.5249 -1.4365
   80MOL    H3434952   7.528   2.548   2.431  1.3733  0.2331 -0.1424
   80MOL    H3534953   7.626   2.658   2.518  0.2685 -0.4736 -0.9898
   80MOL    H3634954   7.709   2.672   2.302  0.6379  0.0296 -1.4695
   80MOL    H3734955   7.553   2.677   2.228  2.0861 -0.3921 -1.2839
   80MOL    H3834956   7.657   2.891   2.203 -0.6418  0.8788  0.0682
   80MOL    H3934957   7.717   2.906   2.364 -1.5614  1.9040  1.6197
   80MOL    H4034958   7.535   3.045   2.341  2.5519 -0.5411 -1.3938
   80MOL    H4134959   7.424   2.930   2.277 -2.2049  0.1238  2.5758
   80MOL    H4234960   7.522   2.912   2.556 -0.5233 -0.0675  1.0499
   80MOL    H4334961   7.357   2.945   2.503  0.9499 -0.2731  4.0701
   80MOL    H4434962   7.375   2.803   2.762  0.7988  0.3712 -1.0480
   80MOL    H4534963   7.503   2.724   2.704 -0.4877  5.3052  0.3217
   80MOL    C4634964   7.394   2.600   2.841  0.4766 -0.2108 -0.0380
   80MOL    C4734965   7.427   2.659   2.974  0.2498  0.9619  0.9621
   80MOL    C4834966   7.310   2.739   3.032  0.3013  0.2628 -0.8176
   80MOL    C4934967   7.338   2.779   3.177 -0.3646  0.1840 -0.1939
   80MOL    C5034968   7.462   2.869   3.182 -0.6710  0.1306 -0.0995
   80MOL    C5134969   7.586   2.792   3.122  0.0600 -0.0229 -0.2339
   80MOL    C5234970   7.561   2.730   2.982  0.1384 -0.2979  0.1137
   80MOL    C5334971   7.471   2.474   2.804 -0.0848  0.4996  0.3747
   80MOL    H5434972   7.293   2.564   2.858  0.3930 -0.3931 -0.9379
   80MOL    H5534973   7.435   2.572   3.038 -1.5777  1.0931  1.4172
   80MOL    H5634974   7.293   2.825   2.967  0.0143 -0.1923 -1.3521
   80MOL    H5734975   7.214   2.689   3.020 -0.2055  0.8711  0.5802
   80MOL    H5834976   7.351   2.692   3.241 -2.4983 -0.8965 -1.1556
   80MOL    H5934977   7.251   2.827   3.223 -0.6130 -0.3773 -0.0677
   80MOL    H6034978   7.442   2.967   3.139 -0.3212 -0.3457 -1.3829
   80MOL    H6134979   7.492   2.894   3.284  1.3760  0.1616 -0.6856
   80MOL    H6234980   7.605   2.706   3.186  0.9783  1.2057  1.1610
   80MOL    H6334981   7.675   2.855   3.124 -0.7321  1.0644  1.8885
   80MOL    H6434982   7.553   2.817   2.917 -0.4820  0.9127  1.7771
   80MOL    H6534983   7.649   2.673   2.951  2.1220  2.5914  0.1043
   80MOL    H6634984   7.578   2.473   2.827  0.1366 -0.3516 -0.6304
   80MOL    H6734985   7.470   2.468   2.695  2.0003  3.3033  0.1493
   80MOL    C6834986   7.419   2.341   2.848  0.1682 -0.5840  1.2172
   80MOL    C6934987   7.422   2.230   2.724 -0.0509  0.3253 -0.6266
   80MOL    C7034988   7.322   2.257   2.605 -0.3406 -0.2384 -0.6401
   80MOL    C7134989   7.325   2.140   2.507 -0.7692  0.5863  0.6231
   80MOL    C7234990   7.466   2.092   2.464  0.1803 -0.2773 -0.3183
   80MOL    C7334991   7.573   2.077   2.584  0.2137  0.9229  0.1521
   80MOL    C7434992   7.567   2.203   2.674 -0.4979 -0.6774 -0.1432
   80MOL    C7534993   7.486   2.291   2.978 -0.0021 -0.3587  0.2175
   80MOL    H7634994   7.311   2.351   2.859 -0.1185 -0.5380 -1.3911
   80MOL    H7734995   7.401   2.133   2.771 -2.5351  1.6948  1.1913
   80MOL    H7834996   7.361   2.345   2.554 -0.4980  0.1430 -0.0953
   80MOL    H7934997   7.225   2.283   2.645 -1.8702 -3.9944 -1.6488
   80MOL    H8034998   7.285   2.054   2.561  0.6158 -0.7482 -0.4362
   80MOL    H8134999   7.267   2.159   2.417  0.3518 -4.0539 -1.2133
   80MOL    H8235000   7.508   2.173   2.404  0.4512  0.4338  0.8059
   80MOL    H8335001   7.457   1.998   2.410  1.6503 -0.2059 -0.7127
   80MOL    H8435002   7.678   2.085   2.557  0.3104  0.7031  0.4528
   80MOL    H8535003   7.565   1.994   2.655 -0.2524  1.1389  0.3564
   80MOL    H8635004   7.601   2.284   2.610  2.1169 -0.4211  1.4921
   80MOL    H8735005   7.630   2.194   2.763  0.4390  0.7174 -0.6582
   80MOL    H8835006   7.586   2.253   2.954  1.5569  2.8161  1.3947
   80MOL    H8935007   7.528   2.372   3.037  1.3600 -0.0125 -1.1774
   80MOL    C9035008   7.395   2.199   3.062  0.1341 -0.3894  0.2829
   80MOL    C9135009   7.481   2.083   3.130  0.6515  0.1978  0.5314
   80MOL    C9235010   7.516   1.972   3.028  0.1911 -0.9610 -0.0871
   80MOL    C9335011   7.578   1.856   3.111 -0.5830 -0.1143 -0.5198
   80MOL    C9435012   7.704   1.903   3.190  0.2749 -0.1964  0.0108
   80MOL    C9535013   7.668   2.017   3.279 -0.6683 -0.1014 -0.0336
   80MOL    C9635014   7.611   2.130   3.202 -0.0991  0.0960 -0.3282
   80MOL    C9735015   7.306   2.276   3.155  0.8288 -0.1066 -0.5374
   80MOL    H9835016   7.318   2.146   3.006  0.6861 -0.8138 -0.0743
   80MOL    H9935017   7.420   2.038   3.209 -0.7326  0.2188 -0.5082
   80MOL   H10035018   7.592   2.006   2.959  1.9384 -2.7556  0.8877
   80MOL   H10135019   7.427   1.953   2.968  1.1864  1.6260 -2.4912
   80MOL   H10235020   7.612   1.785   3.035 -1.4775 -1.1690  0.0668
   80MOL   H10335021   7.504   1.799   3.167 -1.0968  0.6913 -0.3714
   80MOL   H10435022   0.010   1.929   3.119  1.4807 -0.7117  1.1430
   80MOL   H10535023   7.757   1.818   3.232  1.9528 -0.0444 -1.6970
   80MOL   H10635024   7.592   1.986   3.351 -1.6348  2.3155  0.0682
   80MOL   H10735025   7.747   2.053   3.345 -1.8093  0.1572  1.2272
   80MOL   H10835026   7.594   2.211   3.273  1.7074  0.9626 -0.8251
   80MOL   H10935027   7.684   2.179   3.137  0.5465  0.4291  0.6465
   80MOL   H11035028   7.371   2.302   3.238  2.0233  0.5059 -1.6455
   80MOL   H11135029   7.290   2.376   3.115  0.4546  1.4504  3.3467
   80MOL   C11235030   7.162   2.221   3.194 -0.2369  0.2738 -0.0740
   80MOL   C11335031   7.061   2.339   3.209  0.4519 -0.4986 -0.1356
   80MOL   C11435032   7.020   2.396   3.073  0.7451  0.5344  0.0339
   80MOL   C11535033   6.925   2.515   3.081 -0.6068 -0.0052 -0.6062
   80MOL   C11635034   6.965   2.625   3.184 -0.1783 -0.6527 -0.5106
   80MOL   C11735035   6.988   2.553   3.321  0.0126  0.2278 -0.3242
   80MOL   C11835036   7.104   2.455   3.312 -0.2239  0.2113  0.4873
   80MOL   C11935037   7.160   2.135   3.323 -0.1136  0.4914  0.7138
   80MOL   H12035038   7.122   2.163   3.112 -0.5077  0.8466 -0.3482
   80MOL   H12135039   6.968   2.299   3.251 -0.1151  0.0355 -0.8780
   80MOL   H12235040   6.964   2.323   3.015 -1.3181  3.0485 -1.2312
   80MOL   H12335041   7.103   2.425   3.009 -0.0363  1.7625 -0.4409
   80MOL   H12435042   6.936   2.568   2.986  0.6906  0.6368 -0.1130
   80MOL   H12535043   6.820   2.486   3.088 -1.1156  2.2321  1.5247
   80MOL   H12635044   7.049   2.682   3.145  1.4487 -2.3965  0.3570
   80MOL   H12735045   6.884   2.698   3.196 -0.0823 -1.0327  3.1294
   80MOL   H12835046   7.001   2.625   3.402 -0.5277 -0.5452  0.4629
   80MOL   H12935047   6.899   2.497   3.352 -0.7674  0.9933 -1.1684
   80MOL   H13035048   7.125   2.404   3.406  0.8129  0.1155  0.2171
   80MOL   H13135049   7.195   2.510   3.288  0.8991 -2.4893 -1.7643
   80MOL   H13235050   7.186   2.192   3.412  0.0022  1.2670  0.1805
   80MOL   H13335051   7.249   2.072   3.312  1.3636  2.5984  0.4698
   80MOL   C13435052   7.039   2.038   3.342 -0.5310 -0.0792  0.4355
   80MOL   C13535053   7.015   1.995   3.487 -0.1589  0.2974 -0.5152
   80MOL   C13635054   6.976   2.112   3.577 -0.1722  0.5745  0.4210
   80MOL   C13735055   6.941   2.068   3.719  0.1106  0.3109  0.5472
   80MOL   C13835056   7.065   1.995   3.779  0.1614 -0.2503  0.2102
   80MOL   C13935057   7.113   1.879   3.694 -0.4016 -0.2412 -0.0009
   80MOL   C14035058   7.136   1.929   3.548  0.1310 -0.5038  0.0961
   80MOL   C14135059   7.039   1.918   3.245  0.2575 -0.7389  0.0092
   80MOL   H14235060   6.949   2.095   3.319  0.0067  0.2433 -0.9815
   80MOL   H14335061   6.924   1.936   3.494 -0.8695  1.2846 -1.3904
   80MOL   H14435062   7.054   2.188   3.573 -1.0107  1.3615 -1.2426
   80MOL   H14535063   6.882   2.155   3.541 -0.4229  0.6807  1.1873
   80MOL   H14635064   6.851   2.008   3.704 -0.2997  0.4113  2.4661
   80MOL   H14735065   6.910   2.151   3.783  1.0710  2.1403 -1.2785
   80MOL   H14835066   7.142   2.071   3.795 -0.5774  0.6416 -0.4157
   80MOL   H14935067   7.048   1.959   3.880  0.7228  2.3355  1.2487
   80MOL   H15035068   7.047   1.792   3.694  0.8857 -1.2230 -0.2234
   80MOL   H15135069   7.204   1.843   3.741  0.4577  2.1130  0.2295
   80MOL   H15235070   7.221   1.997   3.553 -1.5684  1.6733 -0.3296
   80MOL   H15335071   7.171   1.836   3.502  0.2257 -0.2072 -0.4323
   80MOL   H15435072   7.103   1.843   3.292  1.5338  0.3661  0.0592
   80MOL   H15535073   7.095   1.940   3.154 -0.8549  1.8090 -0.0837
   80MOL   C15635074   6.898   1.855   3.217 -0.1812  0.1390  0.4460
   80MOL   C15735075   6.903   1.702   3.213 -0.7232  0.4891 -0.3917
   80MOL   C15835076   7.015   1.652   3.116  0.4977  0.1914 -0.5481
   80MOL   C15935077   6.985   1.509   3.089 -0.1222  0.3418  0.1651
   80MOL   C16035078   6.991   1.420   3.212  0.5819 -0.1258 -0.9436
   80MOL   C16135079   6.904   1.479   3.324 -0.2787 -0.2595 -0.2100
   80MOL   C16235080   6.919   1.631   3.351  0.6805  0.0370 -0.3114
   80MOL   C16335081   6.827   1.915   3.095 -0.5538 -0.0995 -0.8397
   80MOL   H16435082   6.834   1.878   3.302  1.0372 -2.2040  2.0581
   80MOL   H16535083   6.801   1.689   3.177 -0.4658 -0.5608 -0.7598
   80MOL   H16635084   7.021   1.715   3.027  1.1553 -1.9768 -2.0684
   80MOL   H16735085   7.116   1.665   3.157 -0.1658 -0.2904  1.3068
   80MOL   H16835086   6.892   1.501   3.033 -0.3323 -2.1739  0.8451
   80MOL   H16935087   7.050   1.463   3.014  0.9503 -0.6113  1.6438
   80MOL   H17035088   7.096   1.427   3.240  0.8265 -0.5753 -1.7061
   80MOL   H17135089   6.973   1.313   3.195  0.7912 -0.4146  0.6256
   80MOL   H17235090   6.915   1.423   3.417 -1.1078 -0.5178 -0.2585
   80MOL   H17335091   6.801   1.461   3.294 -0.6994 -0.6873  1.4354
   80MOL   H17435092   6.834   1.656   3.414  0.9166 -1.0065  0.4275
   80MOL   H17535093   7.013   1.655   3.399  1.0106  2.3249 -1.9990
   80MOL   H17635094   6.857   1.874   2.998 -2.8033 -1.3431 -1.0288
   80MOL   H17735095   6.860   2.018   3.079  0.9805 -0.2733  1.0392
   80MOL   C17835096   6.672   1.928   3.123 -0.2126 -0.1790  0.8240
   80MOL   C17935097   6.606   2.065   3.147 -0.5225 -0.5831  0.0475
   80MOL   C18035098   6.623   2.180   3.037  0.2659  0.8962  0.1069
   80MOL   C18135099   6.549   2.305   3.075  0.5522  0.3824  0.5191
   80MOL   C18235100   6.577   2.351   3.219  0.9750  0.7183  0.0906
   80MOL   C18335101   6.563   2.238   3.323  0.3849  0.1608 -0.0204
   80MOL   C18435102   6.642   2.117   3.287 -0.2166 -0.2980  0.1915
   80MOL   C18535103   6.594   1.850   3.016  0.5444 -0.5810 -0.3246
   80MOL   H18635104   6.647   1.866   3.209  0.3870 -1.4203  0.1274
   80MOL   H18735105   6.498   2.050   3.148 -0.6808  0.5272  1.1301
   80MOL   H18835106   6.731   2.198   3.033  0.4222  0.6430  2.4349
   80MOL   H18935107   6.589   2.152   2.937  0.2873  0.2077  0.2906
   80MOL   H19035108   6.442   2.283   3.074  0.1862  1.8826  2.4809
   80MOL   H19135109   6.565   2.385   3.003  0.8937  0.0464  0.2227
   80MOL   H19235110   6.677   2.394   3.209  0.6228  1.7833  1.0156
   80MOL   H19335111   6.501   2.425   3.245 -0.0623  0.4137 -1.9504
   80MOL   H19435112   6.458   2.210   3.330  0.7259 -0.7101  1.7335
   80MOL   H19535113   6.594   2.266   3.423  1.1946  0.6238 -0.3977
   80MOL   H19635114   6.745   2.151   3.294 -0.4907  0.2987  1.5434
   80MOL   H19735115   6.634   2.049   3.372  1.2074  0.4301  0.9315
   80MOL   H19835116   6.565   1.910   2.930 -0.9221  1.0005  1.2569
   80MOL   H19935117   6.660   1.778   2.967  0.2069  0.1415 -1.8702
   80MOL   C20035118   6.458   1.780   3.056 -0.0896  0.5602 -0.1204
   80MOL   C20135119   6.352   1.807   2.948  0.7665 -0.0939  0.3799
   80MOL   C20235120   6.298   1.954   2.953 -0.6545 -0.4657  0.5390
   80MOL   C20335121   6.162   1.964   2.884  0.1529 -0.1256  0.5033
   80MOL   C20435122   6.168   1.908   2.736  0.2736 -0.2998 -0.3655
   80MOL   C20535123   6.241   1.767   2.725  0.1897  0.1464  0.1164
   80MOL   C20635124   6.376   1.758   2.808 -0.7220  0.5424 -0.6296
   80MOL   C20735125   6.496   1.632   3.070  1.2059 -0.2105 -0.1722
   80MOL   H20835126   6.428   1.829   3.149  0.0457 -2.8769  1.8323
   80MOL   H20935127   6.268   1.750   2.989  1.1783 -0.7596  0.3025
   80MOL   H21035128   6.371   2.019   2.905  0.3950 -1.9597  0.0954
   80MOL   H21135129   6.303   1.987   3.057  1.4215 -0.7087  0.5331
   80MOL   H21235130   6.095   1.896   2.934  0.6606 -1.8582 -1.1129
   80MOL   H21335131   6.122   2.065   2.897  0.2776  0.0950 -0.6915
   80MOL   H21435132   6.073   1.905   2.682 -0.4660 -1.3511  0.9489
   80MOL   H21535133   6.217   1.986   2.677  0.7201  0.2776  0.7669
   80MOL   H21635134   6.170   1.697   2.768 -0.7826  1.2461  0.3401
   80MOL   H21735135   6.275   1.734   2.627  1.3314  0.4108  0.4121
   80MOL   H21835136   6.404   1.653   2.813  0.8204  0.9984  0.4430
   80MOL   H21935137   6.454   1.817   2.761  0.1892 -0.2200 -0.0810
   80MOL   H22035138   6.523   1.592   2.972  3.9980  1.7503 -0.2563
   80MOL   H22135139   6.588   1.628   3.128  1.3760 -1.3390 -0.5108
   80MOL   C22235140   6.398   1.533   3.146  0.4758 -0.6535  0.3916
   80MOL   C22335141   6.428   1.382   3.109 -0.1518  0.4731  0.1064
   80MOL   C22435142   6.566   1.329   3.163  0.0474 -0.7136 -0.3837
   80MOL   C22535143   6.571   1.171   3.152 -0.1684  0.2048  0.4477
   80MOL   C22635144   6.555   1.134   2.999  0.2538  0.8743 -0.2358
   80MOL   C22735145   6.430   1.194   2.937  0.0369 -0.0244 -0.0451
   80MOL   C22835146   6.414   1.346   2.966  0.5570  0.3852  0.3547
   80MOL   C22935147   6.391   1.571   3.296 -0.4154  0.7646 -0.5999
   80MOL   H23035148   6.294   1.539   3.114  0.3554 -0.0847  0.8813
   80MOL   H23135149   6.354   1.327   3.169 -0.9703  2.4070  0.9158
   80MOL   H23235150   6.647   1.378   3.109 -1.3853  2.0321 -0.1206
   80MOL   H23335151   6.589   1.355   3.266  1.5508  1.3968 -1.2145
   80MOL   H23435152   6.489   1.119   3.201 -0.3104 -0.7626 -0.7775
   80MOL   H23535153   6.669   1.142   3.190 -0.3224 -0.5173  0.3034
   80MOL   H23635154   6.647   1.168   2.951  1.0192  0.9831  1.2718
   80MOL   H23735155   6.560   1.027   2.977  0.1829  0.9535 -0.6439
   80MOL   H23835156   6.344   1.151   2.989  1.0271 -0.2062  1.4473
   80MOL   H23935157   6.426   1.161   2.833 -2.5864 -2.3817  0.7376
   80MOL   H24035158   6.487   1.399   2.906  1.8172 -1.2262  0.4098
   80MOL   H24135159   6.314   1.370   2.931 -0.7463 -3.1727  1.4475
   80MOL   H24235160   6.367   1.678   3.294  1.2125  1.1393 -1.0648
   80MOL   H24335161   6.490   1.563   3.341 -1.1558 -0.4491  0.8442
   80MOL   C24435162   6.295   1.496   3.393 -0.2135  0.5780  0.3481
   80MOL   C24535163   6.145   1.513   3.356  0.2221 -0.1113 -0.2362
   80MOL   C24635164   6.095   1.659   3.389  0.0482 -0.3982 -0.4004
   80MOL   C24735165   5.940   1.684   3.387 -0.0208 -0.4807 -0.0795
   80MOL   C24835166   5.867   1.572   3.464 -0.2167  0.4536 -0.3007
   80MOL   C24935167   5.907   1.434   3.405 -0.2550  0.0484  0.1407
   80MOL   C25035168   6.058   1.401   3.418  0.0885 -0.8389  0.3615
   80MOL   C25135169   6.330   1.530   3.537 -0.2134 -0.0566  0.6016
   80MOL   H25235170   6.328   1.395   3.368 -0.5301  1.0462 -2.1534
   80MOL   H25335171   6.147   1.496   3.248  0.0536  0.1450 -0.2796
   80MOL   H25435172   6.146   1.736   3.332  1.6668 -0.6129  0.7130
   80MOL   H25535173   6.125   1.679   3.492 -0.8622 -0.1547 -0.1800
   80MOL   H25635174   5.925   1.775   3.445  2.3583  0.7019 -1.2399
   80MOL   H25735175   5.905   1.687   3.284 -1.8277  0.0002  0.5257
   80MOL   H25835176   5.880   1.560   3.572  2.5885 -2.0612 -0.8429
   80MOL   H25935177   5.760   1.582   3.446 -0.3221 -1.2377 -0.6904
   80MOL   H26035178   5.886   1.438   3.299  2.9305 -0.8523 -0.5747
   80MOL   H26135179   5.845   1.353   3.443  1.8182 -2.0460 -0.8411
   80MOL   H26235180   6.075   1.392   3.525 -0.2095  0.8038  0.5647
   80MOL   H26335181   6.072   1.303   3.373  0.6710  0.7390 -3.0707
   80MOL   H26435182   6.238   1.518   3.594  0.5780  0.6706  2.0626
   80MOL   H26535183   6.331   1.639   3.544  1.7651  0.2091 -2.4788
   80MOL   C26635184   6.454   1.451   3.590 -0.3154 -0.0556 -0.7415
   80MOL   C26735185   6.538   1.544   3.686 -0.6827  0.3664 -0.3795
   80MOL   C26835186   6.452   1.599   3.813  0.5052  0.3671  0.4774
   80MOL   C26935187   6.553   1.677   3.900  0.4280  0.3135 -0.0073
   80MOL   C27035188   6.609   1.797   3.826 -0.0711 -0.6669  0.0173
   80MOL   C27135189   6.680   1.750   3.703  0.4964  0.4569  0.8942
   80MOL   C27235190   6.601   1.658   3.608  0.4774  0.7886 -0.1522
   80MOL   C27335191   6.396   1.327   3.670 -0.3990  0.2749  1.4974
   80MOL   H27435192   6.514   1.411   3.508  0.5448  1.0942 -0.6856
   80MOL   H27535193   6.614   1.477   3.725 -0.1817 -0.7185 -3.0937
   80MOL   H27635194   6.373   1.661   3.771 -0.9334 -1.1289  0.8981
   80MOL   H27735195   6.407   1.522   3.875 -0.6382  1.4666  1.0347
   80MOL   H27835196   6.629   1.614   3.947  0.1232 -0.5914 -0.7239
   80MOL   H27935197   6.491   1.704   3.985 -0.3044 -0.2181 -0.3747
   80MOL   H28035198   6.532   1.869   3.797  1.9074  2.4769  2.2426
   80MOL   H28135199   6.664   1.859   3.897 -0.5919  2.1747 -1.9535
   80MOL   H28235200   6.761   1.684   3.734 -1.1120 -1.6407  0.7628
   80MOL   H28335201   6.729   1.832   3.651  0.6939  0.4982  1.1433
   80MOL   H28435202   6.648   1.609   3.523 -0.1356  0.6314 -0.4023
   80MOL   H28535203   6.522   1.719   3.564 -1.6242 -0.7589  1.4267
   80MOL   H28635204   6.338   1.267   3.600  1.6232  0.2748 -0.2258
   80MOL   H28735205   6.320   1.358   3.741 -0.7409  1.0838  0.7937
   80MOL   C28835206   6.483   1.230   3.751  0.3550 -0.1889  0.1616
   80MOL   C28935207   6.609   1.178   3.669  0.3223 -0.2345 -0.0980
   80MOL   C29035208   6.716   1.118   3.756 -0.4754 -0.1861 -0.5015
   80MOL   C29135209   6.844   1.092   3.673 -0.0323 -0.6026 -0.2372
   80MOL   C29235210   6.822   0.999   3.557  1.1031  0.2014 -0.9036
   80MOL   C29335211   6.716   1.058   3.468  0.2117 -0.4213 -0.0456
   80MOL   C29435212   6.579   1.090   3.542 -0.2448 -0.2343 -0.0729
   80MOL   C29535213   6.394   1.120   3.810 -0.8587  0.5825  0.6901
   80MOL   H29635214   6.538   1.274   3.835 -1.5584 -1.5613  2.1868
   80MOL   H29735215   6.660   1.262   3.622  0.3704 -0.0648  0.2536
   80MOL   H29835216   6.749   1.190   3.830 -2.0190  0.1558 -0.1254
   80MOL   H29935217   6.679   1.029   3.807 -2.4326  0.5481 -0.6120
   80MOL   H30035218   6.886   1.180   3.625 -2.0646  1.2533  1.2512
   80MOL   H30135219   6.918   1.055   3.743 -2.1970 -0.0440  2.4219
   80MOL   H30235220   6.776   0.905   3.586 -0.6861  1.5617  0.7771
   80MOL   H30335221   6.912   0.970   3.503  1.7966  0.0364  0.3282
   80MOL   H30435222   6.705   1.001   3.376  1.4975 -0.3609 -0.2456
   80MOL   H30535223   6.754   1.146   3.418  0.0707  0.6895  1.7643
   80MOL   H30635224   6.537   0.998   3.582  0.1282  0.2910  1.5727
   80MOL   H30735225   6.510   1.149   3.481 -0.7770 -0.9530 -0.1653
   80MOL   H30835226   6.308   1.088   3.750  0.6433 -0.2468 -1.0834
   80MOL   H30935227   6.459   1.034   3.793  0.0770  0.8769  2.6637
   80MOL   C31035228   6.366   1.125   3.967 -0.3270  0.4062 -0.0201
   80MOL   C31135229   6.296   1.252   4.011  1.1464 -0.7101 -0.7419
   80MOL   C31235230   6.143   1.260   3.972  0.1644  0.2211  1.1503
   80MOL   C31335231   6.082   1.398   4.013  0.1369  0.4649 -0.3914
   80MOL   C31435232   6.104   1.432   4.158  0.1753 -0.2231  0.7422
   80MOL   C31535233   6.247   1.414   4.207  0.3878 -0.3302 -0.0466
   80MOL   C31635234   6.316   1.282   4.164 -0.5579 -0.0539 -0.1145
   80MOL   C31735235   6.315   0.991   4.025  0.0558  0.1075  0.4910
   80MOL   H31835236   6.468   1.139   4.004  0.0023 -2.9304  0.4846
   80MOL   H31935237   6.345   1.336   3.961 -3.3627  3.0993  0.8483
   80MOL   H32035238   6.134   1.254   3.863  0.3904  1.4641  1.0562
   80MOL   H32135239   6.083   1.183   4.021  0.4286 -1.4928 -1.1436
   80MOL   H32235240   5.978   1.398   3.980 -0.4985  0.4638  1.5898
   80MOL   H32335241   6.130   1.463   3.939 -0.4683  0.1632 -1.0538
   80MOL   H32435242   6.066   1.533   4.175 -0.1991 -0.1644 -0.4237
   80MOL   H32535243   6.036   1.367   4.214 -1.8526 -1.9019 -3.4485
   80MOL   H32635244   6.312   1.496   4.179  3.9617 -3.4633 -1.3975
   80MOL   H32735245   6.247   1.434   4.314  0.9740  2.7752 -0.5825
   80MOL   H32835246   6.289   1.193   4.219 -0.0111 -0.6601 -0.8113
   80MOL   H32935247   6.419   1.306   4.189 -1.1561  1.7409  0.7254
   80MOL   H33035248   6.280   0.922   3.948  0.4864 -0.0004  0.3897
   80MOL   H33135249   6.219   1.011   4.073 -1.2868 -2.5742 -0.9390
   80MOL   C33235250   6.403   0.935   4.142 -0.4879 -0.1184 -0.5017
   80MOL   C33335251   6.545   0.881   4.089 -0.8420 -0.0927  0.2616
   80MOL   C33435252   6.524   0.759   3.994 -0.2305  0.3301  0.4566
   80MOL   C33535253   6.659   0.717   3.941 -0.5335  0.5707  0.2178
   80MOL   C33635254   6.756   0.683   4.055  0.2739 -0.3226  0.1567
   80MOL   C33735255   6.771   0.790   4.156  0.3800 -0.7572  0.0906
   80MOL   C33835256   6.635   0.841   4.206 -0.9187  0.9255  0.2206
   80MOL   C33935257   6.318   0.830   4.227 -0.0574  0.9910  0.3507
   80MOL   H34035258   6.426   1.008   4.220  0.0025  0.0185 -0.7744
   80MOL   H34135259   6.592   0.959   4.029 -0.9271 -0.2542 -0.0116
   80MOL   H34235260   6.472   0.677   4.044 -0.0540 -0.0594  0.0133
   80MOL   H34335261   6.473   0.789   3.903  0.2396 -0.5532 -0.1091
   80MOL   H34435262   6.634   0.634   3.875 -0.0593  0.2882  0.3879
   80MOL   H34535263   6.706   0.791   3.876  1.0879 -0.3715  0.2941
   80MOL   H34635264   6.723   0.585   4.091  1.0201 -1.2004 -1.5166
   80MOL   H34735265   6.851   0.671   4.004 -0.3085 -0.5341 -0.9041
   80MOL   H34835266   6.835   0.864   4.108  1.3754 -2.5367 -1.3784
   80MOL   H34935267   6.820   0.764   4.249 -0.2842  2.1092  1.2931
   80MOL   H35035268   6.659   0.927   4.268  1.5422 -0.4143  1.2306
   80MOL   H35135269   6.595   0.761   4.268 -1.1333  1.5570  0.9043
   80MOL   H35235270   6.385   0.784   4.299 -1.1239  1.7153  1.8510
   80MOL   H35335271   6.274   0.754   4.162 -0.3710 -0.0560  1.7554
   80MOL   C35435272   6.196   0.879   4.310  0.6399  0.0015 -0.6615
   80MOL   C35535273   6.244   0.952   4.437  1.2556 -0.2817  0.0895
   80MOL   C35635274   6.306   0.867   4.546 -0.6437  0.0158  0.0055
   80MOL   C35735275   6.358   0.956   4.665  0.4984 -0.1799 -0.0233
   80MOL   C35835276   6.246   1.047   4.716  0.3391 -0.1108 -0.0163
   80MOL   C35935277   6.181   1.130   4.609  0.7344  0.0289 -0.3769
   80MOL   C36035278   6.132   1.039   4.494  0.1079 -0.1677 -0.8245
   80MOL   C36135279   6.098   0.760   4.352 -0.4254  0.6490  0.0691
   80MOL   H36235280   6.141   0.953   4.252  0.2477  0.6031  0.4563
   80MOL   H36335281   6.321   1.026   4.413  1.2529 -0.7801 -1.4480
   80MOL   H36435282   6.391   0.818   4.498 -1.5000 -2.1988  0.6724
   80MOL   H36535283   6.236   0.791   4.580 -0.7685  0.8289  1.5950
   80MOL   H36635284   6.398   0.895   4.746 -2.6948  0.7399  2.3825
   80MOL   H36735285   6.436   1.024   4.630 -0.2764  1.7194  1.8459
   80MOL   H36835286   6.173   0.990   4.773  1.1390 -0.3973  0.7319
   80MOL   H36935287   6.289   1.121   4.783 -0.3906  0.8163 -0.5545
   80MOL   H37035288   6.102   1.181   4.664 -0.1240 -1.6216 -0.0150
   80MOL   H37135289   6.250   1.203   4.569 -1.0020  1.0864 -1.4998
   80MOL   H37235290   6.071   1.089   4.418 -1.6794  0.8703  1.2431
   80MOL   H37335291   6.060   0.970   4.538 -0.5665  0.8250 -0.3488
   80MOL   H37435292   6.074   0.754   4.458 -0.3223  0.0793  0.0640
   80MOL   H37535293   6.146   0.663   4.337 -0.6962  0.2570  1.6439
   80MOL   C37635294   5.974   0.743   4.269  0.4616  0.2281  0.3024
   80MOL   C37735295   5.918   0.602   4.252 -0.1040  0.1950  0.1992
   80MOL   C37835296   5.888   0.524   4.381  0.0820 -0.1651  0.7217
   80MOL   C37935297   5.837   0.379   4.340 -0.7143 -0.1481  0.1873
   80MOL   C38035298   5.944   0.293   4.262  0.0497  0.2141 -0.0747
   80MOL   C38135299   5.962   0.374   4.132 -0.2796  0.4216 -0.4541
   80MOL   C38235300   6.008   0.517   4.149  0.2020  0.0742 -0.5168
   80MOL   C38335301   5.860   0.843   4.323  0.5106  0.3966 -0.1592
   80MOL   H38435302   6.001   0.779   4.170  1.2778  2.2807  1.2296
   80MOL   H38535303   5.822   0.616   4.203 -0.5407 -0.1912  0.9490
   80MOL   H38635304   5.980   0.519   4.439  1.0814 -2.1004 -0.9287
   80MOL   H38735305   5.816   0.585   4.435  0.9103  2.0671 -0.6330
   80MOL   H38835306   5.748   0.385   4.277  1.1630  0.3936 -2.4915
   80MOL   H38935307   5.814   0.331   4.435 -1.3334  0.3404  0.2850
   80MOL   H39035308   6.038   0.281   4.315  0.6008 -0.9235 -1.2751
   80MOL   H39135309   5.905   0.195   4.232  0.9976 -0.0840 -0.3477
   80MOL   H39235310   6.036   0.318   4.075 -0.5900 -0.4546 -0.0110
   80MOL   H39335311   5.865   0.370   4.083  0.9960 -0.8508 -2.9276
   80MOL   H39435312   6.116   0.515   4.158  0.1260  2.3124  1.2766
   80MOL   H39535313   5.992   0.560   4.050  0.0772  0.5658 -0.2870
   80MOL   H39635314   5.916   0.929   4.360  0.7078  0.9526 -1.7184
   80MOL   H39735315   5.823   0.796   4.414 -1.2968  0.8038 -0.6510
   80MOL   C39835316   5.751   0.897   4.226  1.0059 -0.3962 -0.1384
   80MOL   C39935317   5.655   0.981   4.313 -0.1642 -1.1891  0.1547
   80MOL   C40035318   5.707   1.129   4.315  1.0692 -0.0448 -0.9341
   80MOL   C40135319   5.618   1.209   4.419 -0.0088 -0.4981 -1.1369
   80MOL   C40235320   5.472   1.200   4.368  0.1753  0.0498 -0.0961
   80MOL   C40335321   5.419   1.055   4.356  0.0442 -0.5635 -0.0646
   80MOL   C40435322   5.509   0.980   4.252  0.2997 -0.0518  0.2674
   80MOL   C40535323   5.807   0.947   4.084  0.0724  0.2614  0.2598
   80MOL   H40635324   5.692   0.807   4.211 -0.9908  0.4594  2.2734
   80MOL   H40735325   5.655   0.948   4.417 -0.6577 -1.6867 -0.0045
   80MOL   H40835326   5.686   1.177   4.219  0.0582  1.4929  0.0515
   80MOL   H40935327   5.809   1.142   4.349  0.3557  1.7825  0.5292
   80MOL   H41035328   5.658   1.311   4.421  1.2067 -0.9963  0.6906
   80MOL   H41135329   5.628   1.180   4.523 -0.6071  1.9798 -0.3697
   80MOL   H41235330   5.474   1.241   4.267 -1.0836  0.8824  0.1996
   80MOL   H41335331   5.401   1.262   4.423  0.3850  0.8481 -0.7141
   80MOL   H41435332   5.432   1.020   4.458 -0.4369  1.1048  0.5924
   80MOL   H41535333   5.311   1.053   4.340  0.0483  1.9231 -0.6913
   80MOL   H41635334   5.471   0.883   4.222 -1.2894  0.3796  0.8502
   80MOL   H41735335   5.510   1.045   4.164 -1.1906 -0.0976  0.2099
   80MOL   H41835336   5.752   1.036   4.054  2.4582  0.8886 -2.5022
   80MOL   H41935337   5.906   0.987   4.103  1.3918 -1.0304 -3.4076
   80MOL   C42035338   5.790   0.849   3.965  0.0176  0.0011  0.0562
   80MOL   C42135339   5.881   0.891   3.842  0.6800  0.9158  0.2021
   80MOL   C42235340   5.843   1.028   3.780 -0.2779 -0.4257 -0.3937
   80MOL   C42335341   5.942   1.060   3.670  0.6902  0.1828 -0.4184
   80MOL   C42435342   5.963   0.952   3.564  0.0222 -0.2616  0.7912
   80MOL   C42535343   5.995   0.811   3.630 -1.1638  0.3203 -0.1140
   80MOL   C42635344   5.897   0.773   3.735  0.0135  0.1338  0.3470
   80MOL   C42735345   5.639   0.815   3.932 -0.5661  0.4935 -0.3378
   80MOL   H42835346   5.831   0.755   4.003 -0.2058 -0.2844 -0.4139
   80MOL   H42935347   5.981   0.897   3.885  0.3447  1.3669  0.9211
   80MOL   H43035348   5.750   1.030   3.724 -0.7632  1.4414  0.4614
   80MOL   H43135349   5.851   1.100   3.861 -0.7138 -1.3058  0.4440
   80MOL   H43235350   5.898   1.140   3.610 -0.9967  0.2939  0.9457
   80MOL   H43335351   6.034   1.105   3.708 -1.1363  1.2200  3.0322
   80MOL   H43435352   6.037   0.979   3.488 -2.6827  0.7669 -1.5393
   80MOL   H43535353   5.870   0.939   3.509  1.3286 -3.1553 -0.8865
   80MOL   H43635354   6.097   0.816   3.668 -1.3124  0.9646  0.2018
   80MOL   H43735355   5.998   0.735   3.552  2.2569 -0.4835  0.7157
   80MOL   H43835356   5.799   0.740   3.701  0.4541 -0.0416 -0.7853
   80MOL   H43935357   5.940   0.693   3.796  0.5157  2.2986  2.9445
   80MOL   H44035358   5.623   0.733   3.861  0.8930 -1.2630  1.3283
   80MOL   H44135359   5.577   0.786   4.016  0.5350 -0.8633  0.0285
   80MOL   H44235360   5.591   0.899   3.882 -3.1988 -1.6009 -1.4610
   81MOL     C135361   6.312   2.562   0.731 -0.1393 -0.2618  0.1204
   81MOL     C235362   6.433   2.468   0.763 -0.2928  0.1520 -0.3838
   81MOL     C335363   6.394   2.322   0.728  0.3487 -0.2228  0.2881
   81MOL     C435364   6.506   2.216   0.753  0.3981  0.7806 -0.5226
   81MOL     C535365   6.544   2.234   0.902 -0.0478  0.3895  0.3375
   81MOL     C635366   6.591   2.377   0.944 -0.1681 -0.3491  0.4841
   81MOL     C735367   6.475   2.471   0.909 -0.8371 -0.4910  0.1324
   81MOL     C835368   6.275   2.584   0.584 -0.2346  0.4246 -1.0071
   81MOL     H935369   6.221   2.529   0.781  0.1295  0.1352  0.8975
   81MOL    H1035370   6.513   2.501   0.697  1.7865  2.2737  3.0345
   81MOL    H1135371   6.303   2.302   0.784  0.4520 -5.1913 -1.0916
   81MOL    H1235372   6.371   2.309   0.622 -0.6965  0.9859  0.3513
   81MOL    H1335373   6.582   2.241   0.679 -0.0425  1.1720 -0.8500
   81MOL    H1435374   6.465   2.118   0.731 -2.3751  2.1317 -1.6234
   81MOL    H1535375   6.621   2.157   0.911  1.9325  2.1706 -0.8337
   81MOL    H1635376   6.459   2.210   0.965  1.0916 -0.6497  1.5288
   81MOL    H1735377   6.608   2.385   1.051 -2.2778 -0.5642  0.8632
   81MOL    H1835378   6.674   2.406   0.879  0.0291  0.2846  1.0235
   81MOL    H1935379   6.506   2.572   0.937 -1.2107  0.2720 -2.1038
   81MOL    H2035380   6.388   2.453   0.972 -0.0029  1.1761  1.8248
   81MOL    H2135381   6.226   2.495   0.544 -1.5085  0.3690  0.6014
   81MOL    H2235382   6.371   2.598   0.534 -0.8172  0.8948 -1.9974
   81MOL    H2335383   6.342   2.655   0.780  0.4481 -0.9209  1.0266
   81MOL    C2435384   6.193   2.713   0.566 -0.3741 -0.6054 -0.0342
   81MOL    C2535385   6.209   2.766   0.427  0.6092 -0.1918 -0.2135
   81MOL    C2635386   6.156   2.680   0.313 -0.8599 -0.1064  0.4810
   81MOL    C2735387   6.168   2.762   0.181 -0.0228 -0.1307  0.5095
   81MOL    C2835388   6.310   2.826   0.164 -0.0086  0.0704 -0.7459
   81MOL    C2935389   6.364   2.909   0.276  0.1519 -0.5235  0.4975
   81MOL    C3035390   6.343   2.832   0.409  0.1848 -0.3037  0.0747
   81MOL    C3135391   6.044   2.697   0.619 -0.8972  0.3478 -0.6330
   81MOL    H3235392   6.248   2.780   0.633 -3.3410  0.5280  1.3401
   81MOL    H3335393   6.145   2.854   0.423 -1.1162 -1.4854 -1.7440
   81MOL    H3435394   6.047   2.671   0.320 -0.8403 -0.8109 -0.0835
   81MOL    H3535395   6.199   2.581   0.299 -1.7791 -0.1833 -2.1818
   81MOL    H3635396   6.141   2.694   0.100  0.5648 -0.5777  0.6927
   81MOL    H3735397   6.104   2.851   0.178  1.0398  0.6329 -0.0495
   81MOL    H3835398   6.322   2.877   0.068 -1.9777 -0.7959 -1.4746
   81MOL    H3935399   6.375   2.739   0.153  1.6107  1.2140 -0.4546
   81MOL    H4035400   6.469   2.919   0.250  0.1413 -0.6178  0.4155
   81MOL    H4135401   6.310   3.004   0.275 -2.1488 -1.7380 -2.7570
   81MOL    H4235402   6.430   2.766   0.408  1.0646  0.8169 -2.0437
   81MOL    H4335403   6.364   2.896   0.495 -0.4766 -0.6295  0.4780
   81MOL    H4435404   6.045   2.649   0.717 -0.2511  0.6220 -0.5024
   81MOL    H4535405   6.003   2.627   0.546  1.3413 -0.9498 -0.6948
   81MOL    C4635406   5.957   2.824   0.634  0.2217  0.3764 -0.3677
   81MOL    C4735407   6.032   2.945   0.698 -0.2621 -0.1029  0.5415
   81MOL    C4835408   6.067   2.914   0.849 -0.2282 -0.4520  0.2476
   81MOL    C4935409   6.135   3.032   0.913  0.1477  0.2153 -0.0875
   81MOL    C5035410   6.046   3.155   0.913 -0.4317  0.1951  0.5057
   81MOL    C5135411   6.023   3.195   0.762 -0.2837  0.5224 -0.9991
   81MOL    C5235412   5.958   3.080   0.687 -0.0732 -0.0103  0.8927
   81MOL    C5335413   5.820   2.798   0.699  0.5375 -0.1314  0.2235
   81MOL    H5435414   5.942   2.860   0.532 -0.4117  1.2975  0.0426
   81MOL    H5535415   6.132   2.953   0.655 -0.7138  2.6239 -0.0337
   81MOL    H5635416   5.974   2.903   0.906  0.7051  1.7261  2.3076
   81MOL    H5735417   6.117   2.818   0.861  0.5453 -0.0517  0.2887
   81MOL    H5835418   6.227   3.048   0.856 -0.2882 -2.6056 -1.7038
   81MOL    H5935419   6.168   3.010   1.014 -1.1347 -2.0833 -0.1309
   81MOL    H6035420   5.952   3.131   0.961 -1.2316  0.0977 -1.0705
   81MOL    H6135421   6.085   3.236   0.975  0.2534  1.8252 -1.9474
   81MOL    H6235422   6.113   3.227   0.709  0.9258  0.0218  0.7178
   81MOL    H6335423   5.963   3.286   0.763 -0.5476  0.3968 -3.0009
   81MOL    H6435424   5.854   3.070   0.716 -0.2227 -0.7772  0.1120
   81MOL    H6535425   5.956   3.106   0.581 -1.8120 -2.0221  0.3959
   81MOL    H6635426   5.803   2.844   0.796  1.7125 -1.9532  1.3053
   81MOL    H6735427   5.823   2.690   0.713  3.2213 -0.0598  0.4817
   81MOL    C6835428   5.701   2.842   0.602  0.4648  0.6057 -0.1029
   81MOL    C6935429   5.686   2.747   0.478  0.0242 -0.4818 -0.8071
   81MOL    C7035430   5.605   2.616   0.506 -0.1188 -0.3211  0.0843
   81MOL    C7135431   5.587   2.525   0.379 -0.0868  0.4489  0.8455
   81MOL    C7235432   5.520   2.604   0.263 -0.0159  0.0848  0.0236
   81MOL    C7335433   5.597   2.727   0.228  0.5701 -0.2514  0.0953
   81MOL    C7435434   5.615   2.817   0.355  0.0069  0.0344 -0.3153
   81MOL    C7535435   5.570   2.872   0.674  0.0028 -0.0368  0.5794
   81MOL    H7635436   5.740   2.935   0.561 -0.8036  1.2943  0.2274
   81MOL    H7735437   5.785   2.712   0.449 -0.2426 -2.7535  0.8812
   81MOL    H7835438   5.510   2.634   0.556 -0.1100 -0.7506  0.2581
   81MOL    H7935439   5.663   2.559   0.579 -1.9940  0.1279  1.9565
   81MOL    H8035440   5.678   2.471   0.355 -1.1774 -0.4922 -1.2164
   81MOL    H8135441   5.517   2.444   0.399  0.8672 -0.1372  1.9104
   81MOL    H8235442   5.423   2.637   0.299 -0.8352 -0.1120 -1.9776
   81MOL    H8335443   5.493   2.533   0.185  0.0314 -1.2827  1.2282
   81MOL    H8435444   5.547   2.785   0.150  2.2566 -1.8976 -2.2742
   81MOL    H8535445   5.695   2.701   0.187  0.4145  0.2971 -0.6391
   81MOL    H8635446   5.522   2.857   0.395  1.1136  0.0344  2.3235
   81MOL    H8735447   5.658   2.913   0.329 -1.8728  0.8891 -0.3370
   81MOL    H8835448   5.492   2.872   0.598  1.3648  1.0617 -0.8664
   81MOL    H8935449   5.542   2.777   0.720 -0.4958 -0.1124  0.1220
   81MOL    C9035450   5.552   2.992   0.769  0.0668  0.3861 -0.3355
   81MOL    C9135451   5.533   3.123   0.685  0.8864 -0.4923 -0.9766
   81MOL    C9235452   5.388   3.148   0.643  0.7152 -0.5263 -0.0957
   81MOL    C9335453   5.378   3.280   0.562  0.0698  0.0782  0.4256
   81MOL    C9435454   5.424   3.393   0.650 -0.3438 -0.4726  0.1732
   81MOL    C9535455   5.570   3.378   0.689 -0.7151 -0.3619  0.3920
   81MOL    C9635456   5.586   3.248   0.771  0.3215  1.1706 -0.0150
   81MOL    C9735457   5.437   2.967   0.872  0.6504 -0.6383 -0.4766
   81MOL    H9835458   5.652   3.006   0.809 -0.3694  1.4096  0.4460
   81MOL    H9935459   5.603   3.109   0.602  0.7899 -0.8784 -0.9925
   81MOL   H10035460   5.330   3.149   0.735  3.5620  1.5055  1.7429
   81MOL   H10135461   5.359   3.069   0.574  0.3245 -0.7323  0.3017
   81MOL   H10235462   5.272   3.303   0.546 -0.4815 -1.4130  1.8527
   81MOL   H10335463   5.433   3.270   0.468  1.0946  2.3654  0.7501
   81MOL   H10435464   5.363   3.389   0.741 -1.3589 -0.4767 -0.4998
   81MOL   H10535465   5.404   3.488   0.601 -0.4314 -1.0386 -0.8929
   81MOL   H10635466   5.622   3.366   0.593 -1.3687 -0.4080  0.0455
   81MOL   H10735467   5.606   3.464   0.746  3.7545 -0.7201 -1.6342
   81MOL   H10835468   5.690   3.237   0.800  0.2148 -0.5129 -0.1946
   81MOL   H10935469   5.532   3.251   0.866  0.4416 -0.6669  0.1335
   81MOL   H11035470   5.399   3.061   0.910  0.6985 -0.4522 -0.8827
   81MOL   H11135471   5.356   2.935   0.806  0.1969  1.8604 -1.1795
   81MOL   C11235472   5.461   2.868   0.985 -0.4144  0.1896 -0.8223
   81MOL   C11335473   5.328   2.834   1.062  0.2136  0.0643 -0.8613
   81MOL   C11435474   5.228   2.751   0.979 -0.5504 -1.0889  0.6200
   81MOL   C11535475   5.115   2.693   1.054 -0.2359  0.5942  0.3669
   81MOL   C11635476   5.042   2.805   1.127  0.0571 -0.0494 -0.3418
   81MOL   C11735477   5.138   2.911   1.202  0.3328 -0.1435  0.5186
   81MOL   C11835478   5.261   2.954   1.129 -0.4782 -0.2420  0.6545
   81MOL   C11935479   5.573   2.921   1.081 -0.3368 -0.2848 -1.1562
   81MOL   H12035480   5.493   2.774   0.941  0.9966  1.9710 -3.7046
   81MOL   H12135481   5.356   2.772   1.148 -2.6790  0.6908  0.5985
   81MOL   H12235482   5.278   2.665   0.935 -0.1537 -0.7079  0.3189
   81MOL   H12335483   5.184   2.806   0.895 -0.3404 -0.3179  1.0056
   81MOL   H12435484   5.046   2.642   0.986  1.8108 -0.7534 -0.7552
   81MOL   H12535485   5.140   2.615   1.126 -2.0962 -0.4888 -0.1271
   81MOL   H12635486   4.991   2.859   1.047  1.1565  2.2282  0.4279
   81MOL   H12735487   4.971   2.767   1.200 -0.1380  1.5757  0.3545
   81MOL   H12835488   5.082   3.001   1.228 -0.9848 -0.9860  0.6757
   81MOL   H12935489   5.165   2.872   1.300  0.0554 -0.2318  0.5608
   81MOL   H13035490   5.330   2.998   1.200 -0.1417 -0.5343  0.5072
   81MOL   H13135491   5.244   3.033   1.056 -0.8716  1.6552  2.7547
   81MOL   H13235492   5.548   3.013   1.134 -2.9463 -0.1886 -2.4704
   81MOL   H13335493   5.653   2.957   1.017 -0.8205  1.8396 -0.6324
   81MOL   C13435494   5.655   2.825   1.173 -0.6666 -0.9547 -0.4133
   81MOL   C13535495   5.735   2.894   1.290  0.0112  0.4618  0.2907
   81MOL   C13635496   5.638   2.957   1.395 -0.1658 -0.4647  0.4283
   81MOL   C13735497   5.713   3.010   1.511  0.2467  0.3581 -0.6569
   81MOL   C13835498   5.831   3.107   1.462  0.1155  0.5152  0.4204
   81MOL   C13935499   5.923   3.050   1.352 -0.6442 -0.5116 -0.2795
   81MOL   C14035500   5.835   2.998   1.236 -0.0232 -0.1776 -0.0794
   81MOL   C14135501   5.738   2.719   1.098  0.6600 -0.0051 -0.4984
   81MOL   H14235502   5.573   2.771   1.221 -0.0421  0.3280  2.1192
   81MOL   H14335503   5.787   2.814   1.343 -0.0855 -1.0830 -1.9103
   81MOL   H14435504   5.589   3.039   1.342  0.8584 -0.8299 -1.1110
   81MOL   H14535505   5.559   2.895   1.438  0.4241  0.1331  2.4527
   81MOL   H14635506   5.764   2.936   1.573  2.2879  2.4982  0.3157
   81MOL   H14735507   5.644   3.068   1.572 -2.8277  0.0722 -3.7479
   81MOL   H14835508   5.791   3.200   1.420 -0.5171  0.2724  0.4779
   81MOL   H14935509   5.908   3.131   1.535  1.2054 -2.3349  0.2779
   81MOL   H15035510   5.972   2.966   1.402 -0.1874 -1.6694 -2.5992
   81MOL   H15135511   5.995   3.129   1.327 -1.2736 -0.1558 -0.9734
   81MOL   H15235512   5.777   3.071   1.180 -1.3968  0.3767  1.9973
   81MOL   H15335513   5.910   2.957   1.168  1.1231 -1.9385  2.1868
   81MOL   H15435514   5.842   2.743   1.117  0.2310  0.9063  0.7631
   81MOL   H15535515   5.735   2.726   0.989 -2.6341 -0.1390 -0.4703
   81MOL   C15635516   5.699   2.578   1.150  0.1746 -0.7436 -0.3712
   81MOL   C15735517   5.817   2.471   1.134 -0.2884 -0.3164 -0.4572
   81MOL   C15835518   5.884   2.474   0.995 -0.4493 -0.1599  0.8465
   81MOL   C15935519   6.011   2.388   0.994 -0.1637 -0.0774  0.4214
   81MOL   C16035520   6.112   2.416   1.098 -0.5913 -0.1176  0.0318
   81MOL   C16135521   6.042   2.393   1.231 -0.3629  0.3389  0.3743
   81MOL   C16235522   5.922   2.486   1.248 -0.6935 -0.3744  0.3371
   81MOL   C16335523   5.574   2.511   1.086  0.4398 -0.4394 -0.1811
   81MOL   H16435524   5.686   2.588   1.257  2.2001  0.7835 -0.2302
   81MOL   H16535525   5.778   2.372   1.158 -2.3337  0.3820 -0.7920
   81MOL   H16635526   5.817   2.443   0.916  2.6100 -1.3350 -1.3795
   81MOL   H16735527   5.910   2.576   0.964  2.6618 -1.9255 -2.7504
   81MOL   H16835528   5.987   2.281   0.997 -0.0556 -0.0755  1.8343
   81MOL   H16935529   6.057   2.406   0.897 -0.4491  2.5207  0.7427
   81MOL   H17035530   6.162   2.513   1.091 -1.5093  0.3646  0.1565
   81MOL   H17135531   6.200   2.351   1.091  0.1950  1.1612 -2.5887
   81MOL   H17235532   6.110   2.398   1.316 -0.5736 -1.3320  0.6448
   81MOL   H17335533   6.018   2.287   1.234 -1.5052  0.5559 -0.6189
   81MOL   H17435534   5.889   2.469   1.350 -1.3519 -0.6839  0.0727
   81MOL   H17535535   5.953   2.590   1.244  1.5868 -1.0636 -0.9837
   81MOL   H17635536   5.601   2.479   0.986  1.1925  1.1393 -0.4779
   81MOL   H17735537   5.496   2.586   1.076 -0.2835 -1.3868 -1.7038
   81MOL   C17835538   5.500   2.397   1.167 -0.1083 -0.3803 -0.3481
   81MOL   C17935539   5.462   2.427   1.313  0.4691 -0.0366  1.0187
   81MOL   C18035540   5.452   2.302   1.405  0.1953  0.0818  0.1977
   81MOL   C18135541   5.398   2.339   1.546  0.0162 -0.2512 -0.5117
   81MOL   C18235542   5.269   2.417   1.532  0.2281 -0.4357 -0.2815
   81MOL   C18335543   5.303   2.554   1.474  0.5047  0.0040 -0.3592
   81MOL   C18435544   5.359   2.538   1.334  0.2466  0.4065  0.6223
   81MOL   C18535545   5.387   2.351   1.070  0.5525  0.2187 -0.3602
   81MOL   H18635546   5.570   2.313   1.169 -0.1234 -0.3666  1.2056
   81MOL   H18735547   5.548   2.470   1.365 -0.1912  1.6323  0.7399
   81MOL   H18835548   5.397   2.218   1.364  1.3697 -0.7023  0.1988
   81MOL   H18935549   5.554   2.263   1.415  1.3591  2.4919 -1.7566
   81MOL   H19035550   5.472   2.385   1.611 -0.2473  0.1363 -0.4873
   81MOL   H19135551   5.360   2.252   1.600 -1.4426  0.2987 -0.6351
   81MOL   H19235552   5.212   2.356   1.462 -2.2223  0.2756  1.0288
   81MOL   H19335553   5.216   2.431   1.627  0.2863 -0.7059 -0.2091
   81MOL   H19435554   5.373   2.602   1.543  1.8361 -1.2097 -0.8392
   81MOL   H19535555   5.218   2.622   1.466  0.4223  0.0023  0.4363
   81MOL   H19635556   5.269   2.511   1.278  1.2327 -1.0408 -0.2912
   81MOL   H19735557   5.398   2.635   1.305  0.0838 -0.1955 -1.7024
   81MOL   H19835558   5.299   2.345   1.134  0.5614 -0.0728 -0.3755
   81MOL   H19935559   5.358   2.425   0.996  0.3317 -0.8480 -1.3584
   81MOL   C20035560   5.391   2.202   1.012 -0.3297  0.0384 -0.4080
   81MOL   C20135561   5.259   2.151   0.941  0.0750  0.4696  0.1214
   81MOL   C20235562   5.163   2.091   1.042 -0.1564 -0.2759 -0.7485
   81MOL   C20335563   5.045   2.029   0.974  0.4707  0.3478 -0.2625
   81MOL   C20435564   4.976   2.135   0.895 -0.1424  0.1462 -0.2351
   81MOL   C20535565   5.073   2.182   0.785  0.1155 -0.1326  0.0998
   81MOL   C20635566   5.192   2.256   0.848 -0.2107 -0.1995 -0.4722
   81MOL   C20735567   5.514   2.191   0.912 -0.1019 -0.1221 -0.0930
   81MOL   H20835568   5.408   2.140   1.100  3.0153 -0.6658 -1.4766
   81MOL   H20935569   5.280   2.067   0.875 -2.1495  1.3535 -1.7860
   81MOL   H21035570   5.141   2.160   1.123  0.3840 -0.2016 -0.6637
   81MOL   H21135571   5.219   2.023   1.106  0.8455  2.1899  1.0604
   81MOL   H21235572   5.062   1.943   0.908 -0.6035  0.9146 -1.2887
   81MOL   H21335573   4.971   1.994   1.045 -0.3871  0.6380 -1.0127
   81MOL   H21435574   4.897   2.077   0.847 -0.0767  1.0291 -1.4596
   81MOL   H21535575   4.949   2.222   0.955 -2.0422  1.7750 -3.2619
   81MOL   H21635576   5.107   2.098   0.723  1.2944 -0.2158  0.8465
   81MOL   H21735577   5.033   2.263   0.724  0.0475  0.1837  0.5587
   81MOL   H21835578   5.259   2.277   0.765 -2.2868  2.3767 -1.5676
   81MOL   H21935579   5.170   2.351   0.897  0.2266  0.1347 -0.9267
   81MOL   H22035580   5.472   2.203   0.812 -1.7151 -0.5038  0.5371
   81MOL   H22135581   5.594   2.265   0.921  0.7410 -1.0380  0.0945
   81MOL   C22235582   5.577   2.055   0.922 -0.3575 -0.5730 -0.2773
   81MOL   C22335583   5.641   1.993   0.795 -0.6393 -0.6776  0.2715
   81MOL   C22435584   5.755   2.087   0.740 -0.1674  0.2022  0.5649
   81MOL   C22535585   5.823   2.038   0.610  0.7906  0.5370  0.2714
   81MOL   C22635586   5.723   1.999   0.497  0.0432 -0.3905  0.4275
   81MOL   C22735587   5.626   1.896   0.558  0.4232  0.1239 -0.0266
   81MOL   C22835588   5.549   1.960   0.677 -0.0900 -0.4621  0.6940
   81MOL   C22935589   5.681   2.042   1.039 -0.4839  0.1424  0.3167
   81MOL   H23035590   5.490   1.996   0.951 -0.6295 -0.1029 -0.1167
   81MOL   H23135591   5.691   1.897   0.811  0.9683  0.4100  1.9837
   81MOL   H23235592   5.698   2.178   0.721 -0.4819 -0.3503 -1.2046
   81MOL   H23335593   5.836   2.107   0.810  0.6750 -0.4186 -0.2302
   81MOL   H23435594   5.874   1.946   0.639 -1.3852 -1.7498 -2.7394
   81MOL   H23535595   5.897   2.109   0.576  0.6636  1.2666  1.4960
   81MOL   H23635596   5.681   2.094   0.465  1.1891 -0.1517 -0.4225
   81MOL   H23735597   5.780   1.951   0.417 -0.7013  0.8911 -0.9059
   81MOL   H23835598   5.678   1.810   0.598  1.3940  0.9733  0.5688
   81MOL   H23935599   5.549   1.859   0.490  0.1275 -0.0143  0.3851
   81MOL   H24035600   5.492   2.046   0.642 -1.4258 -1.8780 -0.6960
   81MOL   H24135601   5.464   1.903   0.714 -0.6735 -1.1920 -1.6818
   81MOL   H24235602   5.657   2.111   1.120 -0.2390 -1.5586  1.8724
   81MOL   H24335603   5.782   2.076   1.016 -0.5846 -0.7172 -1.4720
   81MOL   C24435604   5.693   1.903   1.108  0.4828  0.2616  0.4595
   81MOL   C24535605   5.577   1.866   1.203 -0.0734 -0.2572  0.0095
   81MOL   C24635606   5.574   1.949   1.329 -0.0051 -0.1122  0.0264
   81MOL   C24735607   5.463   1.914   1.422  0.3984  0.2924 -0.1605
   81MOL   C24835608   5.437   1.764   1.444  0.5105 -0.4914 -0.4278
   81MOL   C24935609   5.438   1.679   1.312  0.8627 -0.7335 -0.8028
   81MOL   C25035610   5.565   1.716   1.226  0.6400 -0.4790 -0.1755
   81MOL   C25135611   5.836   1.894   1.172 -0.3005  0.1539 -0.1211
   81MOL   H25235612   5.684   1.832   1.025  1.9576  0.2969  0.2524
   81MOL   H25335613   5.479   1.889   1.163 -0.4075 -1.4312  0.1219
   81MOL   H25435614   5.566   2.054   1.302  2.1437  0.5957  1.9512
   81MOL   H25535615   5.663   1.945   1.393  0.1016  0.2579 -0.0961
   81MOL   H25635616   5.479   1.971   1.514 -0.4841  0.1600  0.0803
   81MOL   H25735617   5.373   1.949   1.370  0.8484  1.0196 -0.4592
   81MOL   H25835618   5.508   1.728   1.519  0.0426  2.0764  1.3283
   81MOL   H25935619   5.339   1.753   1.490  0.8563 -0.7076  0.2565
   81MOL   H26035620   5.356   1.707   1.246  2.4482  1.3763 -1.9291
   81MOL   H26135621   5.421   1.574   1.335 -0.9010 -0.6429 -1.5966
   81MOL   H26235622   5.651   1.683   1.283  0.1933 -0.1534  0.6879
   81MOL   H26335623   5.570   1.664   1.130  3.0631 -0.1410 -0.2680
   81MOL   H26435624   5.825   1.840   1.266  0.3365  0.9155  0.3980
   81MOL   H26535625   5.864   1.998   1.189  2.6408 -0.0715 -3.1186
   81MOL   C26635626   5.938   1.813   1.084 -0.2271 -0.0802  0.1759
   81MOL   C26735627   6.081   1.825   1.139  0.5175 -0.1228 -0.0339
   81MOL   C26835628   6.100   1.774   1.283  0.7447 -0.5998  0.1196
   81MOL   C26935629   6.240   1.788   1.333 -0.3973  0.2332 -0.8769
   81MOL   C27035630   6.297   1.927   1.309 -0.7373  0.0353 -0.5856
   81MOL   C27135631   6.282   1.988   1.167  0.8067  0.4667  0.0230
   81MOL   C27235632   6.138   1.971   1.128 -0.4792 -0.7066 -0.3416
   81MOL   C27335633   5.882   1.669   1.088 -0.1888 -0.4674  0.6788
   81MOL   H27435634   5.924   1.860   0.987 -1.7271  1.4006  1.0702
   81MOL   H27535635   6.143   1.767   1.070 -1.0668 -2.0234  0.0941
   81MOL   H27635636   6.033   1.830   1.348  0.4337 -0.5899 -0.2103
   81MOL   H27735637   6.055   1.676   1.295 -0.1920 -0.2903 -0.8018
   81MOL   H27835638   6.308   1.716   1.287 -0.6347  0.3340 -1.3821
   81MOL   H27935639   6.243   1.764   1.440 -1.3474  2.5005 -0.3231
   81MOL   H28035640   6.237   1.988   1.377 -1.1937  0.8522 -1.7167
   81MOL   H28135641   6.401   1.940   1.340 -1.3737  1.7766  0.9250
   81MOL   H28235642   6.346   1.952   1.087  3.8179  1.7679  1.7694
   81MOL   H28335643   6.293   2.096   1.176  0.0481  0.4972  0.7068
   81MOL   H28435644   6.125   2.005   1.025 -0.0097  1.4163  0.2555
   81MOL   H28535645   6.076   2.035   1.191  0.0775 -2.0386  1.5799
   81MOL   H28635646   5.782   1.664   1.044  0.1134  0.6848 -0.1703
   81MOL   H28735647   5.866   1.648   1.193 -0.5375 -1.1518  0.4905
   81MOL   C28835648   5.974   1.563   1.022  0.6530 -0.3037 -0.3858
   81MOL   C28935649   6.013   1.589   0.872  0.2115  0.8528 -0.4952
   81MOL   C29035650   6.134   1.506   0.813  0.7657 -0.8174 -0.2734
   81MOL   C29135651   6.188   1.564   0.681 -0.0599 -0.4528 -0.5526
   81MOL   C29235652   6.074   1.559   0.580 -0.3265  0.4563 -0.1764
   81MOL   C29335653   5.955   1.636   0.635  0.0292 -0.2584 -0.2403
   81MOL   C29435654   5.904   1.585   0.769 -0.4179  0.3609  0.2628
   81MOL   C29535655   5.909   1.417   1.037  0.0826 -0.3065 -0.0050
   81MOL   H29635656   6.072   1.565   1.070  1.8991  0.9940 -2.9006
   81MOL   H29735657   6.046   1.693   0.866  0.1200  0.9828  1.1615
   81MOL   H29835658   6.214   1.509   0.886 -0.4495 -1.2897  1.0939
   81MOL   H29935659   6.107   1.403   0.792  0.1588 -0.2432 -2.4949
   81MOL   H30035660   6.222   1.666   0.700  1.2331 -0.9802  0.0419
   81MOL   H30135661   6.278   1.517   0.641 -0.4554 -0.2605 -1.6789
   81MOL   H30235662   6.034   1.458   0.573 -1.0069  0.6501  0.8638
   81MOL   H30335663   6.115   1.587   0.483 -0.0749  0.5215 -0.0514
   81MOL   H30435664   5.871   1.620   0.567 -1.5212  1.8277  1.1010
   81MOL   H30535665   5.988   1.740   0.636  1.9741 -0.8584  1.7910
   81MOL   H30635666   5.874   1.482   0.752  0.6167 -0.1418  1.3869
   81MOL   H30735667   5.814   1.641   0.794  0.2011  1.1029  0.8540
   81MOL   H30835668   5.802   1.427   1.016  0.1476  0.1558 -0.1331
   81MOL   H30935669   5.934   1.355   0.951  2.5061 -1.8733  1.7796
   81MOL   C31035670   5.941   1.342   1.177  0.4317 -0.2670  0.4104
   81MOL   C31135671   5.832   1.242   1.212  0.4050 -0.0088 -0.1743
   81MOL   C31235672   5.704   1.304   1.263  0.3229  0.4651  0.4670
   81MOL   C31335673   5.603   1.196   1.314 -0.3813 -0.2777  0.1011
   81MOL   C31435674   5.573   1.099   1.200  0.6456  0.5582 -0.0048
   81MOL   C31535675   5.691   1.028   1.146 -0.0074  0.3441  0.7111
   81MOL   C31635676   5.794   1.138   1.098 -0.0041  0.0885  0.1409
   81MOL   C31735677   6.082   1.284   1.163 -0.5237  0.1697 -0.1552
   81MOL   H31835678   5.949   1.418   1.254 -0.0582  0.0348  0.1723
   81MOL   H31935679   5.865   1.186   1.299  0.2626  0.9175  0.4893
   81MOL   H32035680   5.714   1.363   1.354  0.2435 -0.4822  1.0945
   81MOL   H32135681   5.646   1.355   1.186  2.0200  0.4422 -0.8345
   81MOL   H32235682   5.518   1.244   1.362 -0.0364  0.3023  0.1373
   81MOL   H32335683   5.656   1.142   1.393  0.4436 -0.7493 -0.7630
   81MOL   H32435684   5.508   1.019   1.236  1.2965 -0.7959 -1.7492
   81MOL   H32535685   5.512   1.139   1.118 -1.3395  0.1401  1.2298
   81MOL   H32635686   5.729   0.972   1.231  0.7143  1.2349  0.9778
   81MOL   H32735687   5.637   0.971   1.070 -2.1934  2.3558  0.6926
   81MOL   H32835688   5.750   1.184   1.009  1.4179  1.0047 -0.1009
   81MOL   H32935689   5.884   1.088   1.062  0.2033 -0.7165  1.7709
   81MOL   H33035690   6.159   1.362   1.158 -0.6336  0.3035  0.2299
   81MOL   H33135691   6.089   1.235   1.066 -5.9898  0.1491 -0.6634
   81MOL   C33235692   6.142   1.185   1.265  0.2767  0.5729 -0.0406
   81MOL   C33335693   6.136   1.246   1.410  0.0870  0.1857  0.5386
   81MOL   C33435694   6.215   1.381   1.427 -1.0251  0.2266 -0.4276
   81MOL   C33535695   6.222   1.437   1.572  0.0967  0.8716  1.1475
   81MOL   C33635696   6.259   1.335   1.673  0.1533 -0.6391 -0.4370
   81MOL   C33735697   6.167   1.214   1.658 -0.2203  0.5608 -0.2871
   81MOL   C33835698   6.187   1.151   1.519  0.8370 -0.1139 -0.0114
   81MOL   C33935699   6.281   1.122   1.235 -0.3216 -0.6008  0.1200
   81MOL   H34035700   6.075   1.099   1.267 -0.5955  1.2638  0.9336
   81MOL   H34135701   6.031   1.263   1.432  0.0272 -1.4223  1.5399
   81MOL   H34235702   6.316   1.368   1.387 -0.4984 -1.9418  1.5201
   81MOL   H34335703   6.171   1.464   1.372  0.8137  0.3337 -1.8193
   81MOL   H34435704   6.284   1.526   1.564 -2.0438  2.0707 -3.7772
   81MOL   H34535705   6.122   1.468   1.600 -0.4958  0.5202 -0.5277
   81MOL   H34635706   6.366   1.315   1.667 -0.2939 -2.2497 -3.9380
   81MOL   H34735707   6.237   1.379   1.771 -2.2026 -1.3473 -0.6153
   81MOL   H34835708   6.067   1.253   1.676  0.3875  1.6131  0.8436
   81MOL   H34935709   6.189   1.142   1.736  0.3704 -0.7439 -1.6247
   81MOL   H35035710   6.153   1.048   1.516 -1.4677  0.6017  0.5239
   81MOL   H35135711   6.293   1.126   1.507  1.1146  0.1986  1.6552
   81MOL   H35235712   6.291   1.024   1.281  2.4962 -1.1750 -1.5865
   81MOL   H35335713   6.356   1.187   1.279  0.2558  0.8036 -2.8318
   81MOL   C35435714   6.325   1.098   1.090 -0.2894 -0.0910 -0.0879
   81MOL   C35535715   6.227   1.005   1.017  0.4440  0.2776  0.3518
   81MOL   C35635716   6.250   0.851   1.037 -0.4298 -0.6276  0.0500
   81MOL   C35735717   6.144   0.770   0.966  0.2915  0.0836  1.0676
   81MOL   C35835718   6.152   0.803   0.818  0.0426  0.4802 -0.8971
   81MOL   C35935719   6.109   0.953   0.794  0.3634 -0.1369 -0.4241
   81MOL   C36035720   6.200   1.051   0.873 -0.3332 -0.3887  0.2018
   81MOL   C36135721   6.467   1.048   1.083  0.0497  0.1984 -0.9437
   81MOL   H36235722   6.327   1.197   1.044  0.5847 -0.4431 -0.8171
   81MOL   H36335723   6.135   1.007   1.075  0.9005 -0.5991  1.1294
   81MOL   H36435724   6.253   0.837   1.145 -3.3640 -2.3837 -0.0335
   81MOL   H36535725   6.343   0.806   1.002  0.0919  0.1879  0.3740
   81MOL   H36635726   6.157   0.664   0.987 -0.5768 -0.2418  0.0199
   81MOL   H36735727   6.046   0.795   1.006  1.0150  0.3420  2.6952
   81MOL   H36835728   6.254   0.786   0.781  1.0386  0.8194  1.6224
   81MOL   H36935729   6.081   0.736   0.769 -2.5410  0.7899  2.2576
   81MOL   H37035730   6.100   0.984   0.690 -0.9690 -1.2899 -0.6708
   81MOL   H37135731   6.005   0.959   0.828  1.0145 -3.0800  2.2514
   81MOL   H37235732   6.162   1.152   0.860  1.5711  0.1687 -1.2357
   81MOL   H37335733   6.290   1.048   0.812 -0.6066 -0.7929 -0.1905
   81MOL   H37435734   6.480   1.005   0.984  0.0045  1.3836 -1.4701
   81MOL   H37535735   6.494   0.967   1.151  2.1710  0.1942 -1.7577
   81MOL   C37635736   6.582   1.158   1.095  0.3595 -0.8365  0.2701
   81MOL   C37735737   6.720   1.108   1.147 -0.1856  0.2803  0.2571
   81MOL   C37835738   6.766   0.984   1.071 -0.9027 -0.4668 -0.0999
   81MOL   C37935739   6.900   0.934   1.140  0.2592 -0.1348  0.3309
   81MOL   C38035740   6.877   0.905   1.294 -0.3948 -0.0579  0.1846
   81MOL   C38135741   6.843   1.032   1.375  0.0354  0.2707 -0.3526
   81MOL   C38235742   6.709   1.085   1.307  0.0390  0.7834  0.2829
   81MOL   C38335743   6.592   1.246   0.969 -0.1951 -0.0321  0.0859
   81MOL   H38435744   6.549   1.222   1.178  0.9657  0.8560 -0.7734
   81MOL   H38535745   6.798   1.184   1.145  0.2764 -0.1471  1.4085
   81MOL   H38635746   6.691   0.906   1.082 -2.2025  0.6401 -1.0217
   81MOL   H38735747   6.786   1.003   0.965 -2.1821  2.1049  0.0890
   81MOL   H38835748   6.978   1.008   1.121  1.5764 -1.7797 -0.8167
   81MOL   H38935749   6.932   0.841   1.093 -0.3254  0.4877 -1.3265
   81MOL   H39035750   6.801   0.830   1.314 -0.7028  0.1983 -0.0158
   81MOL   H39135751   6.967   0.859   1.334  1.5501  1.5405 -2.1573
   81MOL   H39235752   6.825   1.006   1.479  0.6754  1.8507  0.1633
   81MOL   H39335753   6.931   1.097   1.368  1.0125 -1.0240 -0.3147
   81MOL   H39435754   6.622   1.022   1.325 -0.0423  0.6812 -0.4675
   81MOL   H39535755   6.691   1.180   1.358  2.2155  0.5326  1.5831
   81MOL   H39635756   6.498   1.282   0.927 -0.2447 -0.3693 -0.0925
   81MOL   H39735757   6.638   1.183   0.894 -1.2604  2.6908 -2.9712
   81MOL   C39835758   6.690   1.365   0.980 -0.1797 -0.4156 -0.0647
   81MOL   C39935759   6.760   1.404   0.848 -0.0851 -0.3724 -0.2962
   81MOL   C40035760   6.883   1.320   0.802  1.1454 -0.6574  0.1412
   81MOL   C40135761   6.951   1.364   0.673 -0.2271 -0.7684 -0.0306
   81MOL   C40235762   6.848   1.368   0.562  0.4108  0.2463  0.7329
   81MOL   C40335763   6.728   1.454   0.594  0.0336  0.1867 -0.2898
   81MOL   C40435764   6.662   1.403   0.724  0.4011 -0.3076 -0.3986
   81MOL   C40535765   6.643   1.495   1.062  0.1361 -0.2582 -0.0728
   81MOL   H40635766   6.778   1.331   1.034 -0.2109 -1.9359 -0.9688
   81MOL   H40735767   6.791   1.508   0.851  0.8060 -0.6191 -0.6682
   81MOL   H40835768   6.861   1.214   0.793  2.0242 -0.9334  1.2460
   81MOL   H40935769   6.956   1.331   0.882  1.1916  1.1009 -0.1147
   81MOL   H41035770   7.037   1.305   0.643 -0.5882 -0.1325 -2.3845
   81MOL   H41135771   6.990   1.466   0.675 -1.5919 -0.2482  2.5595
   81MOL   H41235772   6.813   1.267   0.539  0.3482  0.7443 -1.4325
   81MOL   H41335773   6.892   1.400   0.468  2.1171  0.2011  1.4820
   81MOL   H41435774   6.769   1.554   0.604 -0.2850  0.0333  2.9717
   81MOL   H41535775   6.657   1.455   0.511  1.9609  0.7024 -1.9877
   81MOL   H41635776   6.576   1.454   0.767  0.6900 -1.7889  1.9839
   81MOL   H41735777   6.632   1.300   0.706  0.5698 -0.7052  1.4846
   81MOL   H41835778   6.579   1.552   0.994 -0.3178  0.2937  0.7948
   81MOL   H41935779   6.581   1.465   1.147 -1.4030 -3.0419 -2.0977
   81MOL   C42035780   6.758   1.588   1.110  0.3930  0.3477  0.1316
   81MOL   C42135781   6.838   1.530   1.229 -0.2706 -0.7777  0.2018
   81MOL   C42235782   6.790   1.557   1.372 -0.4736  0.2496 -0.1671
   81MOL   C42335783   6.868   1.477   1.476 -0.2749  0.1805 -0.5003
   81MOL   C42435784   7.018   1.511   1.469  0.0738 -0.0190  0.7406
   81MOL   C42535785   7.074   1.491   1.324  0.1994  0.4102 -0.3793
   81MOL   C42635786   6.988   1.565   1.217  0.9975  0.7067 -0.7475
   81MOL   C42735787   6.719   1.740   1.138  0.6075  0.0878  0.1720
   81MOL   H42835788   6.831   1.604   1.030  0.7428  0.3931  0.4560
   81MOL   H42935789   6.830   1.421   1.225 -0.1101 -0.6893 -3.5289
   81MOL   H43035790   6.804   1.663   1.391 -0.8258  0.1044  0.9365
   81MOL   H43135791   6.685   1.527   1.375 -0.5098  0.5201  1.9452
   81MOL   H43235792   6.833   1.493   1.578 -2.0321  0.8583 -1.1927
   81MOL   H43335793   6.868   1.371   1.453  0.9838 -0.6889  3.2161
   81MOL   H43435794   7.075   1.452   1.540 -1.9862 -2.6602  0.2926
   81MOL   H43535795   7.018   1.616   1.498 -0.2490  0.2670 -0.2643
   81MOL   H43635796   7.088   1.385   1.305  1.1767 -0.0976  2.8324
   81MOL   H43735797   7.169   1.546   1.324  1.2691 -1.3926  1.4076
   81MOL   H43835798   7.000   1.673   1.226  1.3353  0.7476 -1.6114
   81MOL   H43935799   7.029   1.528   1.123  3.0498  0.8105  0.0853
   81MOL   H44035800   6.811   1.795   1.159  0.6946  0.6722 -1.6523
   81MOL   H44135801   6.659   1.776   1.055  2.2164 -1.0079 -1.4858
   81MOL   H44235802   6.651   1.746   1.223  0.5202 -0.5495  0.1515
   82MOL     C135803   1.309   1.849   0.519 -0.0949 -0.0655 -0.5369
   82MOL     C235804   1.353   1.705   0.481  0.0194 -0.0712 -0.4437
   82MOL     C335805   1.498   1.706   0.515  0.6793 -0.3223  0.6562
   82MOL     C435806   1.562   1.571   0.476 -0.7247  0.1396  0.0894
   82MOL     C535807   1.534   1.550   0.330  0.4659 -0.2687 -0.3936
   82MOL     C635808   1.391   1.548   0.289 -0.5243  0.0498 -0.3141
   82MOL     C735809   1.333   1.686   0.331 -0.2584 -0.0418  0.1556
   82MOL     C835810   1.324   1.894   0.663  1.0960  0.2031  0.7773
   82MOL     H935811   1.367   1.917   0.457  2.9775 -2.6667 -0.6383
   82MOL    H1035812   1.295   1.630   0.535  2.2301  1.4807  4.3947
   82MOL    H1135813   1.552   1.783   0.460  0.7086 -1.4949 -1.0025
   82MOL    H1235814   1.517   1.716   0.622  0.0508 -0.1598  0.7546
   82MOL    H1335815   1.533   1.486   0.537 -0.7163 -0.8721 -1.3067
   82MOL    H1435816   1.669   1.574   0.497 -0.9314 -0.7915  1.2869
   82MOL    H1535817   1.575   1.450   0.317  1.8470  0.2603 -0.1546
   82MOL    H1635818   1.587   1.618   0.263  0.7774 -0.2956 -0.1725
   82MOL    H1735819   1.380   1.531   0.182  1.2214 -0.3247 -0.4540
   82MOL    H1835820   1.338   1.470   0.344 -0.2730  1.9632  2.8037
   82MOL    H1935821   1.226   1.684   0.312 -0.1627  2.6807 -0.9744
   82MOL    H2035822   1.382   1.769   0.281  0.3864 -1.5235 -1.7235
   82MOL    H2135823   1.426   1.905   0.698  1.8355  0.0675 -1.2630
   82MOL    H2235824   1.286   1.803   0.709  1.2156 -0.0036  0.4713
   82MOL    H2335825   1.209   1.860   0.476 -0.8762 -0.6527  1.0650
   82MOL    C2435826   1.262   2.025   0.702  0.5894 -1.4050 -0.0975
   82MOL    C2535827   1.233   2.030   0.854  0.0295  0.2420  0.0337
   82MOL    C2635828   1.122   1.934   0.892  0.5807 -0.4628  0.1539
   82MOL    C2735829   1.118   1.925   1.046  0.1608 -0.0340 -0.3952
   82MOL    C2835830   1.093   2.055   1.117 -0.1587  0.0941  0.6234
   82MOL    C2935831   1.209   2.150   1.079  0.1479  0.2008  0.4599
   82MOL    C3035832   1.206   2.161   0.924  0.1599  0.0549 -0.5174
   82MOL    C3135833   1.337   2.150   0.642  0.5378 -0.7378 -0.7547
   82MOL    H3235834   1.165   2.027   0.652  0.4944  0.8069  0.1230
   82MOL    H3335835   1.319   1.995   0.910 -2.1722 -1.3802  2.5668
   82MOL    H3435836   1.149   1.836   0.855  0.8251 -0.4936  0.4161
   82MOL    H3535837   1.023   1.959   0.853  0.6172  0.7351  0.7964
   82MOL    H3635838   1.039   1.857   1.081  1.3801 -0.7014  1.1140
   82MOL    H3735839   1.200   1.867   1.088  0.2084 -1.7223 -2.6970
   82MOL    H3835840   1.089   2.043   1.226 -1.8893  0.5382  0.6257
   82MOL    H3935841   0.995   2.093   1.087 -0.6801  0.3116  2.5093
   82MOL    H4035842   1.213   2.245   1.132 -2.8324 -0.7813  2.6202
   82MOL    H4135843   1.309   2.114   1.101 -0.4304 -1.2500  0.7829
   82MOL    H4235844   1.108   2.199   0.893  0.6555  0.8016 -1.1799
   82MOL    H4335845   1.289   2.229   0.907  1.6947 -1.2538  1.5378
   82MOL    H4435846   1.424   2.111   0.589  1.7311 -0.0352  0.6650
   82MOL    H4535847   1.390   2.213   0.713  2.1886 -1.2023 -1.5385
   82MOL    C4635848   1.249   2.245   0.562 -0.2541  0.2027  0.3722
   82MOL    C4735849   1.198   2.178   0.427 -0.6211 -0.0332 -0.1245
   82MOL    C4835850   1.302   2.188   0.323 -0.2113  0.1525  0.7495
   82MOL    C4935851   1.258   2.113   0.200 -0.1506  0.4777  0.4284
   82MOL    C5035852   1.127   2.153   0.136 -0.1820 -0.2967 -0.0410
   82MOL    C5135853   1.018   2.156   0.249  0.0780 -0.0690 -0.0990
   82MOL    C5235854   1.058   2.227   0.375 -0.9271 -0.3474 -0.2797
   82MOL    C5335855   1.311   2.387   0.533 -0.3281  0.1875 -0.0455
   82MOL    H5435856   1.160   2.256   0.624 -1.1979 -1.4034 -0.6755
   82MOL    H5535857   1.177   2.073   0.446 -5.7931  0.3712 -2.5747
   82MOL    H5635858   1.311   2.292   0.292  0.9493  0.3028  1.5514
   82MOL    H5735859   1.403   2.157   0.352  0.3156  0.8845 -0.2787
   82MOL    H5835860   1.247   2.012   0.239  0.2152  0.0514 -0.5504
   82MOL    H5935861   1.340   2.117   0.128 -0.5054  0.7918  0.0471
   82MOL    H6035862   1.128   2.257   0.103 -1.4788 -0.1638  0.3233
   82MOL    H6135863   1.107   2.083   0.055 -0.1419  1.0746 -1.2568
   82MOL    H6235864   1.008   2.050   0.274 -4.3114  0.5018  0.9603
   82MOL    H6335865   0.921   2.188   0.211 -0.2706 -0.4063  0.4979
   82MOL    H6435866   1.053   2.334   0.358 -0.3792 -0.0098  1.4898
   82MOL    H6535867   0.979   2.213   0.449 -0.4435  2.5177  0.8349
   82MOL    H6635868   1.277   2.447   0.449 -2.1107  1.5567  1.5995
   82MOL    H6735869   1.416   2.383   0.506 -0.7250  0.8433 -1.7771
   82MOL    C6835870   1.306   2.488   0.658  0.7950  1.2842 -0.7644
   82MOL    C6935871   1.444   2.546   0.709  0.6084  0.1234  0.3709
   82MOL    C7035872   1.501   2.648   0.605  0.3649 -0.0953 -0.3848
   82MOL    C7135873   1.652   2.662   0.636  0.2841 -0.0869  0.1123
   82MOL    C7235874   1.666   2.714   0.785  0.6551  0.0200  0.1487
   82MOL    C7335875   1.593   2.622   0.891 -0.8158  0.0583 -0.1540
   82MOL    C7435876   1.444   2.594   0.854 -0.4660 -0.5021 -0.0211
   82MOL    C7535877   1.193   2.591   0.617 -0.5896  0.1380  0.2327
   82MOL    H7635878   1.266   2.430   0.741  0.3550 -0.4528 -2.1616
   82MOL    H7735879   1.521   2.469   0.707  0.3274 -0.1542  0.3487
   82MOL    H7835880   1.453   2.745   0.617 -0.3270 -0.4611 -0.1440
   82MOL    H7935881   1.475   2.622   0.502  1.7758 -1.0270 -0.5160
   82MOL    H8035882   1.695   2.564   0.619 -0.2317 -0.2662 -0.1355
   82MOL    H8135883   1.706   2.724   0.565 -0.5168 -2.0670 -2.2719
   82MOL    H8235884   1.628   2.816   0.793  1.2017  0.1327  1.4662
   82MOL    H8335885   1.772   2.734   0.799  0.5936  1.5632 -1.3688
   82MOL    H8435886   1.587   2.686   0.979 -1.6827  2.1909 -1.7252
   82MOL    H8535887   1.640   2.526   0.911 -2.8921 -1.2350 -1.3956
   82MOL    H8635888   1.379   2.680   0.871  0.6027  0.1759  0.7047
   82MOL    H8735889   1.410   2.515   0.920 -0.8244 -0.4470 -0.1372
   82MOL    H8835890   1.243   2.661   0.551 -1.1073  0.4210  0.1342
   82MOL    H8935891   1.122   2.543   0.550 -0.7151  1.1869 -0.3916
   82MOL    C9035892   1.119   2.673   0.728 -0.2260  0.5736  0.0250
   82MOL    C9135893   1.034   2.788   0.669 -0.1828 -0.7850 -0.3578
   82MOL    C9235894   1.127   2.911   0.630 -0.0686  0.4120 -0.7947
   82MOL    C9335895   1.031   3.027   0.592 -0.3826 -0.2581  0.4104
   82MOL    C9435896   0.932   2.986   0.478  0.4312  0.3632  0.0490
   82MOL    C9535897   0.834   2.875   0.521  0.4042  0.1591 -0.4666
   82MOL    C9635898   0.934   2.756   0.553 -0.3876  0.0774  0.3109
   82MOL    C9735899   1.038   2.581   0.825 -0.2284 -0.1115  0.5688
   82MOL    H9835900   1.200   2.722   0.783  0.0318  2.6940 -2.1580
   82MOL    H9935901   0.975   2.820   0.754 -1.1841  1.4410 -1.8373
   82MOL   H10035902   1.182   2.888   0.539  1.9290 -0.0146  0.4778
   82MOL   H10135903   1.201   2.919   0.710 -1.7504 -0.3764  0.8823
   82MOL   H10235904   1.090   3.114   0.561 -2.5734  1.0002 -0.3171
   82MOL   H10335905   0.978   3.058   0.682 -0.5234 -0.9575  0.5648
   82MOL   H10435906   0.983   2.975   0.382 -0.2430  0.4255 -0.3210
   82MOL   H10535907   0.859   3.063   0.453 -0.5512 -2.1289 -5.4895
   82MOL   H10635908   0.778   2.902   0.610 -0.2855 -0.3587 -0.7325
   82MOL   H10735909   0.777   2.854   0.430  1.2506 -1.0986 -0.7266
   82MOL   H10835910   0.877   2.669   0.585  0.6786 -0.3330  1.0968
   82MOL   H10935911   0.995   2.719   0.471  0.5518  0.7597  0.6994
   82MOL   H11035912   0.950   2.547   0.770  0.7740 -0.2010 -1.0017
   82MOL   H11135913   1.093   2.489   0.846  1.9723  0.9869 -0.2100
   82MOL   C11235914   0.976   2.631   0.962  0.3413  0.2261  0.2274
   82MOL   C11335915   1.084   2.675   1.068  0.5451 -0.1463 -0.2248
   82MOL   C11435916   1.170   2.552   1.098 -0.1719 -0.6724  0.5754
   82MOL   C11535917   1.290   2.584   1.196 -0.6717  0.0676  0.2238
   82MOL   C11635918   1.237   2.651   1.325 -0.7869 -0.4062  0.1423
   82MOL   C11735919   1.137   2.769   1.303 -0.3625 -0.1906  0.3934
   82MOL   C11835920   1.025   2.736   1.200 -0.0552  0.8657 -0.8629
   82MOL   C11935921   0.877   2.519   1.005  0.0129 -0.3870 -0.6165
   82MOL   H12035922   0.915   2.720   0.942  0.6027  0.0478 -1.4333
   82MOL   H12135923   1.149   2.751   1.026 -2.0615  1.2291 -1.8761
   82MOL   H12235924   1.208   2.509   1.006  0.2097 -0.8569  0.8154
   82MOL   H12335925   1.102   2.476   1.137  0.1077 -0.9350  0.5567
   82MOL   H12435926   1.343   2.494   1.227 -0.3984 -0.6231 -2.1932
   82MOL   H12535927   1.367   2.647   1.152  0.5247  0.3172  2.5843
   82MOL   H12635928   1.183   2.573   1.379  3.0105 -2.6318  0.8827
   82MOL   H12735929   1.322   2.681   1.387  0.2304  0.8689 -1.8204
   82MOL   H12835930   1.094   2.796   1.399  0.0055  0.8101  0.2848
   82MOL   H12935931   1.201   2.852   1.272  0.4918 -0.6483  0.9072
   82MOL   H13035932   0.968   2.825   1.174 -1.3378  0.8279  1.6263
   82MOL   H13135933   0.956   2.668   1.251 -0.4627  2.7028  1.1066
   82MOL   H13235934   0.882   2.494   1.111 -4.8594 -2.2817 -0.7103
   82MOL   H13335935   0.908   2.434   0.944  0.9648  0.8315 -1.8647
   82MOL   C13435936   0.731   2.551   0.967  0.3263  0.3021 -0.4582
   82MOL   C13535937   0.659   2.644   1.069 -0.3581 -0.1555  0.3922
   82MOL   C13635938   0.576   2.576   1.179 -0.2165 -0.4022  0.0678
   82MOL   C13735939   0.524   2.681   1.276 -0.5656 -0.5255 -0.6808
   82MOL   C13835940   0.424   2.769   1.201  0.5379 -0.1434 -0.3411
   82MOL   C13935941   0.489   2.837   1.083  0.7246  0.7559 -0.0999
   82MOL   C14035942   0.568   2.744   0.990 -0.1897  0.5672  0.1137
   82MOL   C14135943   0.649   2.422   0.944  0.0922  0.2709  0.0160
   82MOL   H14235944   0.728   2.602   0.871  2.3934  2.1525  0.4328
   82MOL   H14335945   0.740   2.702   1.113 -1.1443  0.9105  0.4473
   82MOL   H14435946   0.505   2.507   1.133 -2.3406  2.1895 -0.6822
   82MOL   H14535947   0.647   2.516   1.236  0.7270  1.4207  0.8281
   82MOL   H14635948   0.602   2.741   1.325 -1.5007  0.7920 -0.7905
   82MOL   H14735949   0.468   2.623   1.349  1.5641 -0.2766  1.2275
   82MOL   H14835950   0.332   2.713   1.181 -0.2111  0.9748 -0.0352
   82MOL   H14935951   0.380   2.844   1.267 -1.4390  0.4198 -2.2168
   82MOL   H15035952   0.559   2.909   1.125  1.8847 -1.2414  1.4595
   82MOL   H15135953   0.409   2.881   1.023  1.0396  1.4920  0.0193
   82MOL   H15235954   0.500   2.678   0.937  0.2405  0.1290  0.0996
   82MOL   H15335955   0.621   2.799   0.913  1.5491 -0.2003  0.7283
   82MOL   H15435956   0.544   2.451   0.933  0.6776  2.5223  0.0048
   82MOL   H15535957   0.669   2.362   1.033  2.3220  1.8884  0.6436
   82MOL   C15635958   0.675   2.334   0.809  0.1974 -0.5047 -0.1857
   82MOL   C15735959   0.693   2.425   0.685  0.0351 -0.3570 -0.4079
   82MOL   C15835960   0.748   2.343   0.562 -0.1912  0.1803 -0.4860
   82MOL   C15935961   0.800   2.432   0.449  0.4490 -0.1358 -0.3845
   82MOL   C16035962   0.690   2.534   0.414  0.9429  0.3661 -0.0526
   82MOL   C16135963   0.597   2.594   0.529 -0.5225 -0.1763  0.0640
   82MOL   C16235964   0.564   2.494   0.638 -0.2782  0.2593 -0.0641
   82MOL   C16335965   0.559   2.232   0.797  0.1129  0.2102  0.0042
   82MOL   H16435966   0.772   2.285   0.822 -0.6450 -2.4744 -1.1699
   82MOL   H16535967   0.775   2.496   0.688 -1.1491  1.0608 -1.0775
   82MOL   H16635968   0.829   2.275   0.587  1.1427  1.0569 -2.3582
   82MOL   H16735969   0.665   2.292   0.513 -0.6654 -0.7153  1.2063
   82MOL   H16835970   0.901   2.472   0.454  0.6683 -0.7442  0.0501
   82MOL   H16935971   0.814   2.370   0.360  2.0073  1.2418 -1.1366
   82MOL   H17035972   0.626   2.476   0.347  0.9862  1.0332 -0.6777
   82MOL   H17135973   0.726   2.620   0.357  0.6760  0.2444 -0.4042
   82MOL   H17235974   0.501   2.627   0.489 -0.4808 -0.3254 -0.1659
   82MOL   H17335975   0.658   2.673   0.573  0.7793 -0.4912 -1.1279
   82MOL   H17435976   0.510   2.544   0.719 -0.4900  1.9577 -1.2286
   82MOL   H17535977   0.496   2.419   0.597  0.0415  0.3553 -0.7868
   82MOL   H17635978   0.543   2.224   0.689 -1.7627 -2.0217  0.3975
   82MOL   H17735979   0.458   2.261   0.825 -1.3851 -4.1168 -0.5370
   82MOL   C17835980   0.608   2.093   0.848  0.8730 -0.2934 -0.7884
   82MOL   C17935981   0.599   2.077   1.007  0.3525 -0.5004 -0.3343
   82MOL   C18035982   0.674   1.958   1.068  0.7289  0.2955  0.3458
   82MOL   C18135983   0.651   1.942   1.215 -0.3853  0.3251  0.3307
   82MOL   C18235984   0.501   1.925   1.250 -0.4902  0.5789  0.0072
   82MOL   C18335985   0.427   2.056   1.204 -0.6116  0.2193  0.6198
   82MOL   C18435986   0.453   2.080   1.052  0.3313  0.5261 -0.7545
   82MOL   C18535987   0.535   1.971   0.777  0.4531  0.4430 -0.1959
   82MOL   H18635988   0.714   2.082   0.826  1.2548  2.1048 -0.2453
   82MOL   H18735989   0.647   2.165   1.050  0.7050 -0.9823  0.2584
   82MOL   H18835990   0.663   1.866   1.011  1.1464 -0.5981  1.6954
   82MOL   H18935991   0.781   1.977   1.063  0.1812  3.3913 -0.7357
   82MOL   H19035992   0.677   2.032   1.271  0.1958  1.3072 -1.4761
   82MOL   H19135993   0.714   1.866   1.261 -0.2512 -0.3890 -1.0086
   82MOL   H19235994   0.450   1.847   1.194 -2.3716  0.3103  2.0429
   82MOL   H19335995   0.480   1.903   1.355 -2.7752  3.6321  0.2766
   82MOL   H19435996   0.463   2.148   1.249  1.0535 -0.0645 -0.1001
   82MOL   H19535997   0.321   2.047   1.229 -0.8689  2.8668  0.5544
   82MOL   H19635998   0.395   2.004   0.999  2.2704 -0.0078 -2.1451
   82MOL   H19735999   0.406   2.174   1.022 -1.8454 -0.5532 -0.8962
   82MOL   H19836000   0.536   1.886   0.845  3.0050  0.5426 -0.0440
   82MOL   H19936001   0.429   1.990   0.794  0.6153  1.8481 -0.6977
   82MOL   C20036002   0.590   1.942   0.637  0.1248 -0.5559 -0.6396
   82MOL   C20136003   0.733   1.893   0.630  0.2039  0.5243 -0.2985
   82MOL   C20236004   0.748   1.755   0.698  0.0758  0.7166 -0.3570
   82MOL   C20336005   0.888   1.706   0.681  0.4748 -0.2532  0.2227
   82MOL   C20436006   0.927   1.715   0.535  0.5623  0.2490  0.1370
   82MOL   C20536007   0.932   1.855   0.476  1.1346  0.2306  0.6201
   82MOL   C20636008   0.790   1.907   0.487 -0.7651  1.2322  0.3575
   82MOL   C20736009   0.495   1.851   0.564  0.6195  0.2211 -0.1074
   82MOL   H20836010   0.591   2.042   0.592  1.2791 -0.8506 -1.2971
   82MOL   H20936011   0.793   1.956   0.696  0.0903  1.7430 -1.3306
   82MOL   H21036012   0.688   1.684   0.641  0.9933  2.8242 -4.0985
   82MOL   H21136013   0.713   1.753   0.801 -0.3386  1.2581 -0.4835
   82MOL   H21236014   0.959   1.761   0.742 -1.1844  0.5870  1.4393
   82MOL   H21336015   0.902   1.605   0.719  0.8702  0.5436  2.2237
   82MOL   H21436016   1.019   1.660   0.521 -0.1616 -0.4866 -1.9025
   82MOL   H21536017   0.856   1.661   0.473 -1.2558  0.0633  2.3054
   82MOL   H21636018   0.987   1.920   0.543 -0.0549  0.4622  1.3770
   82MOL   H21736019   0.985   1.850   0.381  2.2660 -0.3807  1.2710
   82MOL   H21836020   0.791   2.011   0.457  0.3741  0.7540 -1.3104
   82MOL   H21936021   0.736   1.855   0.407 -0.5522  0.3708  0.7636
   82MOL   H22036022   0.543   1.787   0.491 -0.3483  0.7820 -1.2549
   82MOL   H22136023   0.458   1.775   0.633  2.8966 -0.3978  0.4689
   82MOL   C22236024   0.371   1.933   0.497  0.1831  0.2848  0.4525
   82MOL   C22336025   0.403   2.016   0.376 -0.5155 -0.2538  0.6396
   82MOL   C22436026   0.295   2.124   0.341  0.3641 -0.0265  0.2477
   82MOL   C22536027   0.347   2.223   0.237 -0.6638 -1.0904 -0.4264
   82MOL   C22636028   0.399   2.159   0.104  0.3339 -0.2217 -0.3557
   82MOL   C22736029   0.484   2.036   0.126 -0.4375  0.2286  0.1221
   82MOL   C22836030   0.433   1.944   0.242 -0.1572 -0.6988  0.2930
   82MOL   C22936031   0.234   1.854   0.495  0.0878  0.9494  0.4928
   82MOL   H23036032   0.345   2.012   0.567 -0.8056  0.3654 -0.0028
   82MOL   H23136033   0.492   2.074   0.403 -0.3577 -0.9523  1.6383
   82MOL   H23236034   0.200   2.079   0.311  1.3885 -2.3397  0.3831
   82MOL   H23336035   0.265   2.178   0.431  0.4018  1.5270 -0.6656
   82MOL   H23436036   0.415   2.298   0.280  0.0685 -1.0477 -1.6414
   82MOL   H23536037   0.276   2.294   0.194  0.8996  0.1693 -1.0127
   82MOL   H23636038   0.318   2.128   0.038 -0.1204 -1.6854  0.8452
   82MOL   H23736039   0.462   2.233   0.056  0.3708  0.0976  0.1809
   82MOL   H23836040   0.589   2.062   0.138 -0.7593  1.4663  0.2867
   82MOL   H23936041   0.482   1.967   0.042  0.4349 -0.2492  0.4858
   82MOL   H24036042   0.347   1.888   0.207 -0.2041 -1.4035  1.4910
   82MOL   H24136043   0.494   1.855   0.256 -0.1822 -0.9726 -1.3324
   82MOL   H24236044   0.259   1.751   0.470 -0.9676  0.3555  1.8743
   82MOL   H24336045   0.185   1.887   0.404  1.2402 -0.1433 -0.5417
   82MOL   C24436046   0.133   1.895   0.614  0.2357  0.3389 -0.4068
   82MOL   C24536047   0.164   1.817   0.749 -0.3453  0.4152  0.3386
   82MOL   C24636048   0.151   1.662   0.730  0.0238  0.6159  0.6675
   82MOL   C24736049   0.203   1.586   0.853 -0.1577  0.3214  0.2578
   82MOL   C24836050   0.154   1.652   0.982  0.2124 -0.1831 -0.2544
   82MOL   C24936051   0.156   1.804   0.999 -0.1277  0.4213  0.2874
   82MOL   C25036052   0.101   1.873   0.880 -0.1636  0.0373 -0.1906
   82MOL   C25136053   7.756   1.870   0.569 -0.6205  0.6841  0.2362
   82MOL   H25236054   0.153   2.002   0.620  0.5569  0.2154  0.8155
   82MOL   H25336055   0.271   1.837   0.755 -0.0907 -0.8656  0.2172
   82MOL   H25436056   0.190   1.624   0.636  0.7673  0.8491  0.8736
   82MOL   H25536057   0.043   1.648   0.728 -0.1834  2.1784 -2.1078
   82MOL   H25636058   0.184   1.479   0.842 -3.4362  0.8324  0.5442
   82MOL   H25736059   0.312   1.594   0.850 -0.1156 -0.2235  0.3505
   82MOL   H25836060   0.050   1.621   0.983  0.2314 -0.2547  1.3104
   82MOL   H25936061   0.206   1.600   1.063  0.3446 -1.7483 -1.3281
   82MOL   H26036062   0.262   1.829   1.001  0.0241 -0.0966 -0.8700
   82MOL   H26136063   0.121   1.839   1.096  3.3270 -1.1188  2.1765
   82MOL   H26236064   7.765   1.865   0.889 -0.0936 -0.8276 -0.0708
   82MOL   H26336065   0.151   1.969   0.890 -1.7834  0.8708  0.0731
   82MOL   H26436066   7.697   1.817   0.645 -1.9374  1.0813 -0.4918
   82MOL   H26536067   7.749   1.793   0.493 -3.2843 -0.7148  1.7749
   82MOL   C26636068   7.673   1.989   0.523  0.2697  0.9823  0.5285
   82MOL   C26736069   7.543   1.956   0.449 -0.4297 -0.2964  0.8112
   82MOL   C26836070   7.447   1.859   0.520  0.3157  0.0745 -0.0528
   82MOL   C26936071   7.319   1.856   0.435 -0.0699  0.1247  0.4845
   82MOL   C27036072   7.341   1.801   0.283 -0.2239 -0.1410  0.4438
   82MOL   C27136073   7.442   1.895   0.216 -0.0177 -0.2260 -0.0388
   82MOL   C27236074   7.572   1.904   0.298  0.1863  0.8278  0.3344
   82MOL   C27336075   7.640   2.082   0.639 -0.2049 -0.5659 -0.4373
   82MOL   H27436076   7.733   2.049   0.455 -0.8162 -0.6579 -1.9160
   82MOL   H27536077   7.490   2.048   0.427  0.7868  0.4175  0.8155
   82MOL   H27636078   7.488   1.759   0.531 -2.1638 -1.1343 -1.3899
   82MOL   H27736079   7.434   1.895   0.622  0.3859  0.8930 -0.3276
   82MOL   H27836080   7.278   1.957   0.432 -1.1659 -0.3167  0.1732
   82MOL   H27936081   7.251   1.793   0.492 -0.6280  1.1596  0.9844
   82MOL   H28036082   7.386   1.702   0.283 -0.4565 -0.2470 -0.0273
   82MOL   H28136083   7.246   1.796   0.228 -2.0359 -0.9845  3.5099
   82MOL   H28236084   7.394   1.993   0.213 -1.7569 -1.0394  0.4942
   82MOL   H28336085   7.456   1.873   0.110 -2.3140 -2.4139  0.0876
   82MOL   H28436086   7.637   1.978   0.250  1.3633  1.8040  3.3116
   82MOL   H28536087   7.632   1.814   0.309  0.0736  0.6357 -0.5648
   82MOL   H28636088   7.725   2.091   0.707 -0.2277  1.0490 -0.6158
   82MOL   H28736089   7.554   2.040   0.692 -0.7693 -0.0992 -0.9889
   82MOL   C28836090   7.602   2.232   0.606 -0.8898 -0.2279 -0.8470
   82MOL   C28936091   7.735   2.298   0.559  0.1379 -0.6628  0.0735
   82MOL   C29036092   7.716   2.401   0.452 -0.2910 -0.7368  1.2838
   82MOL   C29136093   0.078   2.446   0.394 -0.0481  0.2754 -1.0979
   82MOL   C29236094   0.172   2.516   0.496  0.5917 -0.4911 -0.6299
   82MOL   C29336095   0.195   2.422   0.617 -0.5514  0.0391 -0.2830
   82MOL   C29436096   0.062   2.359   0.667  0.4748  0.1686  0.6203
   82MOL   C29536097   7.533   2.307   0.720 -0.0423  0.2119 -0.3041
   82MOL   H29636098   7.531   2.231   0.524 -2.1132 -1.1317  0.1941
   82MOL   H29736099   0.025   2.222   0.511 -0.7163 -1.9598  0.9776
   82MOL   H29836100   7.654   2.362   0.372 -0.7628  0.2457  1.1628
   82MOL   H29936101   7.670   2.490   0.497 -0.7833 -0.8096  0.9231
   82MOL   H30036102   0.130   2.365   0.343  0.1623  1.4366 -2.7980
   82MOL   H30136103   0.061   2.504   0.303 -2.4144 -1.4964 -1.8340
   82MOL   H30236104   0.133   2.605   0.546  0.5600  0.0955 -1.6911
   82MOL   H30336105   0.262   2.555   0.449 -1.0208  3.5206 -0.6320
   82MOL   H30436106   0.251   2.466   0.700 -0.8253  0.9816 -0.5967
   82MOL   H30536107   0.265   2.349   0.576  0.7983  0.5010  1.1549
   82MOL   H30636108   0.012   2.448   0.706  0.2145 -0.9001  2.7685
   82MOL   H30736109   0.073   2.290   0.750  0.2125 -0.7154 -0.0755
   82MOL   H30836110   7.462   2.239   0.768  0.5803  1.0934  1.9644
   82MOL   H30936111   7.608   2.347   0.789  0.3761  0.9052 -1.1493
   82MOL   C31036112   7.442   2.428   0.674  0.0491 -0.0696 -0.1244
   82MOL   C31136113   7.288   2.392   0.687 -0.1506 -0.3438  0.5564
   82MOL   C31236114   7.246   2.297   0.571 -1.0556 -0.4933  0.0074
   82MOL   C31336115   7.091   2.281   0.583  0.4639  0.0325 -0.1935
   82MOL   C31436116   7.033   2.244   0.720  0.8144 -0.3912  0.2297
   82MOL   C31536117   7.082   2.347   0.821 -0.2130 -0.1338 -0.1374
   82MOL   C31636118   7.236   2.355   0.826 -0.7133  0.7512  0.1307
   82MOL   C31736119   7.483   2.557   0.763 -0.0790 -0.1319 -0.5533
   82MOL   H31836120   7.459   2.441   0.568 -1.5420 -1.3732 -0.5648
   82MOL   H31936121   7.250   2.493   0.673 -0.5337 -0.5585  0.0108
   82MOL   H32036122   7.274   2.340   0.475 -0.0864 -3.9265 -1.3118
   82MOL   H32136123   7.291   2.201   0.596  0.4051 -0.0824 -1.0218
   82MOL   H32236124   7.065   2.203   0.511  0.6780 -0.1194 -0.1054
   82MOL   H32336125   7.039   2.370   0.549  0.3299 -0.5633 -1.5646
   82MOL   H32436126   6.924   2.240   0.713  0.8246 -1.4329  0.5759
   82MOL   H32536127   7.070   2.145   0.747  1.4107  0.3500  2.1730
   82MOL   H32636128   7.029   2.442   0.815  0.8746  0.4939  0.1760
   82MOL   H32736129   7.054   2.306   0.917 -0.4630  0.3335 -0.0068
   82MOL   H32836130   7.274   2.255   0.847 -2.1211 -0.0679 -1.0906
   82MOL   H32936131   7.265   2.425   0.903 -0.0634  0.0178  0.5564
   82MOL   H33036132   7.591   2.567   0.768 -0.0142 -0.4732 -1.2868
   82MOL   H33136133   7.456   2.531   0.865  1.4863  2.5994  0.6400
   82MOL   C33236134   7.421   2.695   0.728  0.0680  0.1419 -0.1091
   82MOL   C33336135   7.450   2.754   0.590  0.2363  0.7176  0.6010
   82MOL   C33436136   7.371   2.689   0.477  0.1767 -0.1024  0.2174
   82MOL   C33536137   7.372   2.774   0.350 -0.6909 -0.6397  0.4687
   82MOL   C33636138   7.516   2.800   0.310  0.4074 -0.1087  0.1258
   82MOL   C33736139   7.604   2.860   0.422  0.0067 -0.0859  0.0611
   82MOL   C33836140   7.599   2.777   0.549  0.4058 -0.1007 -0.1884
   82MOL   C33936141   7.446   2.802   0.836  0.2061  0.1882 -0.1513
   82MOL   H34036142   7.312   2.689   0.725  0.1242 -1.8719  0.8196
   82MOL   H34136143   7.408   2.854   0.582  1.5162  1.2524  0.4561
   82MOL   H34236144   7.407   2.593   0.441  2.7606  1.6745 -2.1216
   82MOL   H34336145   7.269   2.658   0.498 -0.6379  2.4688  0.1712
   82MOL   H34436146   7.315   2.736   0.265 -2.4638 -1.4592  1.9883
   82MOL   H34536147   7.324   2.871   0.363 -0.8455 -0.5477 -0.7579
   82MOL   H34636148   7.567   2.709   0.280  2.1118  0.9580 -0.2747
   82MOL   H34736149   7.509   2.849   0.213 -1.9740 -0.9282 -0.1366
   82MOL   H34836150   7.583   2.962   0.453 -2.2437 -1.3261  2.7914
   82MOL   H34936151   7.706   2.862   0.382  0.1440  0.1079  0.4182
   82MOL   H35036152   7.648   2.827   0.633 -1.9352  1.7425  0.1272
   82MOL   H35136153   7.655   2.684   0.537  2.1049  0.7086  1.1688
   82MOL   H35236154   7.398   2.898   0.815 -0.6373  0.4868  2.8849
   82MOL   H35336155   7.550   2.836   0.829 -0.0783  1.5420  1.7718
   82MOL   C35436156   7.414   2.770   0.986 -0.2613 -0.2536  0.7666
   82MOL   C35536157   7.268   2.730   1.004 -0.5388  0.3190 -0.8993
   82MOL   C35636158   7.184   2.858   0.999 -0.6097 -0.3574 -0.0143
   82MOL   C35736159   7.039   2.808   1.000 -0.1188 -0.0944  0.2231
   82MOL   C35836160   7.007   2.739   1.135 -0.5386 -0.3124 -0.7616
   82MOL   C35936161   7.100   2.622   1.173 -0.6955 -0.4141 -0.0453
   82MOL   C36036162   7.249   2.650   1.141  0.6032 -0.1981 -0.5170
   82MOL   C36136163   7.467   2.881   1.077 -0.0011  0.2970 -0.4502
   82MOL   H36236164   7.467   2.678   1.015 -0.4002 -1.3189 -2.2249
   82MOL   H36336165   7.235   2.664   0.924  0.5276  1.5101 -2.3476
   82MOL   H36436166   7.188   2.908   0.903  1.0778  0.7069  0.5926
   82MOL   H36536167   7.208   2.934   1.074  1.3600 -1.1022  0.1519
   82MOL   H36636168   6.973   2.892   0.979  1.2773  1.4279  1.8071
   82MOL   H36736169   7.024   2.733   0.922  0.5956  0.3775 -0.3794
   82MOL   H36836170   7.027   2.806   1.218  1.2733 -2.1775  0.3594
   82MOL   H36936171   6.902   2.709   1.138 -1.2809  2.3247  0.7419
   82MOL   H37036172   7.098   2.600   1.279  1.8668  1.8545  0.5238
   82MOL   H37136173   7.062   2.535   1.118  0.7131 -0.7539 -0.4936
   82MOL   H37236174   7.281   2.548   1.119 -1.1210 -0.7708 -0.4501
   82MOL   H37336175   7.299   2.691   1.229 -1.2261  2.3384 -0.6039
   82MOL   H37436176   7.414   2.881   1.173  2.2236 -3.0097  0.8880
   82MOL   H37536177   7.447   2.973   1.023 -0.3937 -0.0101 -0.8320
   82MOL   C37636178   7.613   2.875   1.114 -0.7969  0.3739  0.3194
   82MOL   C37736179   7.685   2.997   1.073 -0.0031 -0.4465 -0.8746
   82MOL   C37836180   0.066   2.979   1.059 -0.0459  0.2033 -0.0492
   82MOL   C37936181   0.140   3.108   1.019  0.0559  0.0883 -0.8398
   82MOL   C38036182   0.104   3.232   1.099  0.1399 -0.6183 -1.2299
   82MOL   C38136183   7.721   3.249   1.096 -0.7567 -0.0190  0.7267
   82MOL   C38236184   7.650   3.129   1.161 -0.4918 -0.4125  0.5477
   82MOL   C38336185   7.638   2.828   1.260  0.0509 -0.7718  0.4827
   82MOL   H38436186   7.661   2.800   1.050  2.9468  1.8200  1.2986
   82MOL   H38536187   7.650   3.017   0.971 -1.5068  1.4566 -0.0348
   82MOL   H38636188   0.110   2.949   1.155  0.9082 -0.3950 -0.6654
   82MOL   H38736189   0.089   2.902   0.985 -1.3656  1.1009 -1.4087
   82MOL   H38836190   0.113   3.127   0.915 -1.6455 -0.8233 -0.5830
   82MOL   H38936191   0.247   3.089   1.024  0.1029  0.5819  0.1306
   82MOL   H39036192   0.139   3.239   1.202 -1.8614 -0.4384 -0.5447
   82MOL   H39136193   0.154   3.307   1.037  3.0660 -1.4159  0.0999
   82MOL   H39236194   7.700   3.333   1.163 -1.3098 -0.1038  0.6635
   82MOL   H39336195   7.686   3.272   0.995  3.0059  1.4758 -0.3526
   82MOL   H39436196   7.676   3.128   1.267  0.0599 -0.5733  0.4111
   82MOL   H39536197   7.545   3.158   1.161 -0.2941  0.3265  2.0795
   82MOL   H39636198   7.590   2.892   1.334  1.0702  1.5762 -0.8072
   82MOL   H39736199   7.743   2.849   1.279 -0.4629  1.3178  1.2010
   82MOL   C39836200   7.621   2.678   1.287 -0.3151 -0.8758  0.4091
   82MOL   C39936201   7.714   2.583   1.206  0.7965 -0.2115 -0.7342
   82MOL   C40036202   0.093   2.587   1.249  0.1440 -0.7927  0.4865
   82MOL   C40136203   0.177   2.489   1.169 -0.2516  0.2315 -0.2962
   82MOL   C40236204   0.110   2.351   1.159 -0.0059  0.4935 -0.1661
   82MOL   C40336205   7.749   2.354   1.094 -0.6019  0.2752 -0.1387
   82MOL   C40436206   7.662   2.438   1.192 -0.2112  0.1726  0.3690
   82MOL   C40536207   7.629   2.651   1.439 -0.1943 -0.1112 -0.3175
   82MOL   H40636208   7.520   2.651   1.256 -0.2222  0.5560 -1.2157
   82MOL   H40736209   7.706   2.605   1.099  0.8682  0.9265 -0.5125
   82MOL   H40836210   0.110   2.572   1.356  0.1959 -0.0973  0.5775
   82MOL   H40936211   0.111   2.691   1.223  0.1538 -1.3948 -2.0892
   82MOL   H41036212   0.278   2.482   1.211 -0.3567  3.8446  0.7188
   82MOL   H41136213   0.169   2.535   1.071 -2.2946  0.8448  0.1450
   82MOL   H41236214   0.108   2.307   1.258 -1.3411  0.0751 -0.3760
   82MOL   H41336215   0.175   2.292   1.094  0.1332  1.5178 -0.9852
   82MOL   H41436216   7.745   2.403   0.997 -1.7988 -0.3521 -0.4132
   82MOL   H41536217   7.707   2.256   1.072 -0.0098 -0.4616  1.9093
   82MOL   H41636218   7.561   2.447   1.151 -1.2029  1.0753  2.8762
   82MOL   H41736219   7.650   2.405   1.295  1.3641  1.9350  1.1477
   82MOL   H41836220   7.654   2.548   1.465 -0.4301 -0.6597 -2.1985
   82MOL   H41936221   7.712   2.709   1.480 -1.6734  0.5287  1.8639
   82MOL   C42036222   7.489   2.689   1.507 -0.2800  0.1955  0.9431
   82MOL   C42136223   7.511   2.751   1.654 -0.8074  0.1519 -0.1115
   82MOL   C42236224   7.586   2.664   1.754  0.0072 -0.0696 -0.5727
   82MOL   C42336225   7.608   2.721   1.895  0.0960  0.5691  0.2507
   82MOL   C42436226   7.471   2.766   1.958  0.2398 -0.0865 -0.6190
   82MOL   C42536227   7.388   2.854   1.858 -0.4316  1.0042  0.0648
   82MOL   C42636228   7.378   2.782   1.720  0.5523  0.1640 -0.1601
   82MOL   C42736229   7.397   2.565   1.501 -0.3376  0.4762 -0.2139
   82MOL   H42836230   7.438   2.765   1.448 -2.2355 -2.9261 -1.5162
   82MOL   H42936231   7.566   2.844   1.638 -0.1007 -0.1591  0.4866
   82MOL   H43036232   7.535   2.568   1.762 -1.7185  0.5768 -3.1053
   82MOL   H43136233   7.686   2.655   1.710  0.8074  1.4024  0.9152
   82MOL   H43236234   7.652   2.646   1.960  1.2818  2.0360  1.1645
   82MOL   H43336235   7.667   2.811   1.877  2.0706 -0.5623  0.9102
   82MOL   H43436236   7.487   2.820   2.052 -2.9746 -2.2042  1.2173
   82MOL   H43536237   7.413   2.677   1.979  1.0412 -0.5139 -0.2002
   82MOL   H43636238   7.432   2.951   1.837  0.7339  0.4736  0.0294
   82MOL   H43736239   7.291   2.873   1.905 -0.1878 -0.2623  1.1042
   82MOL   H43836240   7.330   2.688   1.745  1.7760 -0.9307 -1.8545
   82MOL   H43936241   7.313   2.834   1.650 -0.1789 -1.2091 -0.5099
   82MOL   H44036242   7.419   2.493   1.581  0.6097 -0.6211 -1.4482
   82MOL   H44136243   7.290   2.575   1.518 -0.1735 -0.9758  1.9377
   82MOL   H44236244   7.409   2.512   1.407  0.4548 -0.1839  0.2464
   83MOL     C136245   0.758   4.314   7.714  0.3763  0.8674  0.3919
   83MOL     C236246   0.650   4.200   7.689 -0.2687  0.7625  0.0765
   83MOL     C336247   0.581   4.187   7.548 -0.0596 -0.0697 -0.0366
   83MOL     C436248   0.480   4.074   7.544  0.2655 -0.1398  0.9662
   83MOL     C536249   0.381   4.074   7.656  0.0891  0.2674 -0.4447
   83MOL     C636250   0.448   4.089   0.022  0.5600  0.2949 -0.4433
   83MOL     C736251   0.546   4.204   0.030 -0.3315 -0.2617  0.6171
   83MOL     C836252   0.893   4.302   7.638 -0.7349 -0.5439  1.0279
   83MOL     H936253   0.712   4.407   7.679 -0.0675  0.0948 -1.1147
   83MOL    H1036254   0.716   4.113   7.700 -0.9829  0.2237  0.1304
   83MOL    H1136255   0.539   4.286   7.530 -1.2674 -0.7843 -1.2544
   83MOL    H1236256   0.659   4.165   7.476  0.8325  0.4671  0.7565
   83MOL    H1336257   0.535   3.980   7.543 -1.2916 -1.0875 -0.2327
   83MOL    H1436258   0.421   4.076   7.452  1.4863 -1.8222  0.1229
   83MOL    H1536259   0.323   3.981   7.655  1.9598 -0.9239 -2.7010
   83MOL    H1636260   0.305   4.149   7.633 -0.6046  0.0607  1.0599
   83MOL    H1736261   0.369   4.114   0.093  0.1531  2.3250 -1.5480
   83MOL    H1836262   0.495   3.992   0.038  1.5949  0.2791 -3.2389
   83MOL    H1936263   0.599   4.192   0.124  0.4952 -1.3273  0.0369
   83MOL    H2036264   0.501   4.303   0.026 -1.7396 -0.9394 -1.1957
   83MOL    H2136265   0.877   4.256   7.541 -2.9576 -0.6424  1.4116
   83MOL    H2236266   0.943   4.225   7.697 -1.6957 -0.7862  1.5254
   83MOL    H2336267   0.772   4.324   0.049 -2.1837  0.9326  0.7646
   83MOL    C2436268   0.971   4.433   7.619  0.4163  0.1244 -0.3512
   83MOL    C2536269   1.102   4.441   7.702  0.5810  0.2167  0.3845
   83MOL    C2636270   1.199   4.325   7.661 -0.3941 -0.0362 -0.1825
   83MOL    C2736271   1.327   4.346   7.737  0.3274  0.0703  0.2014
   83MOL    C2836272   1.302   4.342   0.113  0.0447  0.6007  0.1227
   83MOL    C2936273   1.197   4.443   0.160  0.0824  0.1465 -0.2028
   83MOL    C3036274   1.071   4.430   0.082  0.0937 -0.0670 -0.1213
   83MOL    C3136275   0.996   4.452   7.468  0.7617  0.0395  0.1660
   83MOL    H3236276   0.902   4.510   7.653  0.0357 -0.2203 -0.3415
   83MOL    H3336277   1.158   4.533   7.685 -1.5548  1.0959 -2.2482
   83MOL    H3436278   1.211   4.330   7.552  0.0597  0.2673 -0.1194
   83MOL    H3536279   1.165   4.224   7.685 -0.3858 -0.5312 -2.1613
   83MOL    H3636280   1.403   4.275   7.703 -1.3290 -0.1169 -3.2971
   83MOL    H3736281   1.373   4.443   7.716  0.4867 -0.0496 -0.0087
   83MOL    H3836282   1.397   4.335   0.166  0.4233  0.4108 -0.5745
   83MOL    H3936283   1.255   4.244   0.119 -1.7598  1.4835  0.7736
   83MOL    H4036284   1.166   4.437   0.265  0.3513  1.3041 -0.0490
   83MOL    H4136285   1.237   4.544   0.148 -1.4252  0.9938  1.5448
   83MOL    H4236286   1.023   4.334   0.102  0.7446 -0.1441  1.1219
   83MOL    H4336287   0.992   4.501   0.107 -0.8514 -1.1297 -0.0786
   83MOL    H4436288   1.012   4.351   7.429  1.4533  0.4215 -0.5793
   83MOL    H4536289   1.077   4.520   7.439 -1.0899  2.4479  0.5168
   83MOL    C4636290   0.876   4.507   7.389  0.1351  0.4445  0.1352
   83MOL    C4736291   0.874   4.469   7.234 -0.1247 -0.6500 -0.3895
   83MOL    C4836292   0.810   4.331   7.224  0.2760  0.1425 -0.1792
   83MOL    C4936293   0.804   4.281   7.077  0.1415 -0.5987 -0.0102
   83MOL    C5036294   0.936   4.302   7.002 -0.2598  0.7390 -0.1427
   83MOL    C5136295   1.002   4.439   7.019 -0.2283  0.5257  0.3925
   83MOL    C5236296   1.013   4.475   7.174 -0.2903  0.1343 -0.7281
   83MOL    C5336297   0.868   4.664   7.397 -0.5396  0.6315 -0.2684
   83MOL    H5436298   0.788   4.461   7.433  0.3959 -0.9440 -0.7403
   83MOL    H5536299   0.814   4.546   7.185 -2.4537 -1.3850  1.1839
   83MOL    H5636300   0.862   4.259   7.286 -0.1374  1.5712  1.8706
   83MOL    H5736301   0.708   4.339   7.260  0.5242  1.3527  0.2872
   83MOL    H5836302   0.727   4.332   7.018 -1.1599 -2.1442  0.3166
   83MOL    H5936303   0.767   4.178   7.075 -2.6078  0.2667  2.5320
   83MOL    H6036304   1.008   4.230   7.040 -0.5765  0.2665 -0.4346
   83MOL    H6136305   0.924   4.266   6.900  0.7212  0.2395 -0.0879
   83MOL    H6236306   0.947   4.519   6.969  0.2191 -0.4584 -1.7454
   83MOL    H6336307   1.098   4.429   6.967 -1.0262 -1.7716 -0.7037
   83MOL    H6436308   1.073   4.398   7.222 -0.7845  1.1013  1.5303
   83MOL    H6536309   1.069   4.568   7.186  1.7600 -0.9757 -1.6679
   83MOL    H6636310   0.947   4.703   7.334 -0.5420  1.5769  0.3161
   83MOL    H6736311   0.875   4.691   7.502  2.1778 -0.5201 -0.1169
   83MOL    C6836312   0.743   4.738   7.348 -0.2794  0.5258 -0.3772
   83MOL    C6936313   0.609   4.678   7.404 -0.2348  0.0204  0.2650
   83MOL    C7036314   0.601   4.692   7.558 -0.1488  0.5294  0.0941
   83MOL    C7136315   0.474   4.623   7.613 -0.0099  0.3389 -0.0644
   83MOL    C7236316   0.347   4.680   7.548 -0.2517 -0.1051  0.1528
   83MOL    C7336317   0.360   4.659   7.393  0.0871  0.0394  0.9097
   83MOL    C7436318   0.482   4.739   7.344  0.5113  0.0355  0.6635
   83MOL    C7536319   0.747   4.889   7.366 -0.3307 -0.5225  0.2204
   83MOL    H7636320   0.730   4.720   7.241 -2.3508 -1.1529  0.1192
   83MOL    H7736321   0.613   4.572   7.381 -1.1682 -0.3725  1.8398
   83MOL    H7836322   0.596   4.798   7.581 -1.9475  0.5731 -0.4790
   83MOL    H7936323   0.692   4.663   7.612 -1.0026 -3.2995 -0.3969
   83MOL    H8036324   0.484   4.515   7.603  0.5937  0.4060 -0.2406
   83MOL    H8136325   0.471   4.641   7.721  0.6842 -1.3726  0.2498
   83MOL    H8236326   0.344   4.787   7.568  2.6996 -0.1157  0.9726
   83MOL    H8336327   0.261   4.638   7.599  0.2383 -0.8367  0.3899
   83MOL    H8436328   0.264   4.692   7.353  0.3000 -1.5531 -0.9226
   83MOL    H8536329   0.372   4.555   7.364  1.4991  0.6238 -0.6280
   83MOL    H8636330   0.469   4.841   7.382 -1.4850  1.6572 -3.9456
   83MOL    H8736331   0.486   4.743   7.236  1.3715 -2.3725  0.5917
   83MOL    H8836332   0.657   4.939   7.331  0.8676  1.5026 -0.0444
   83MOL    H8936333   0.743   4.901   7.474  2.6623  2.1681  0.0847
   83MOL    C9036334   0.859   4.966   7.291 -0.8849  0.0802 -0.1992
   83MOL    C9136335   0.866   4.942   7.139 -0.5747  0.8853  0.1795
   83MOL    C9236336   0.739   4.974   7.068 -0.3137 -0.0046 -0.6346
   83MOL    C9336337   0.745   4.936   6.918  0.6700 -0.5475  0.8106
   83MOL    C9436338   0.875   4.994   6.849  0.0832  0.3542 -0.5806
   83MOL    C9536339   1.003   4.946   6.923 -0.5156 -0.1561 -0.8238
   83MOL    C9636340   0.993   4.998   7.072 -0.3228 -0.1628  0.2918
   83MOL    C9736341   0.842   5.122   7.320 -0.1133 -0.2031 -0.2690
   83MOL    H9836342   0.951   4.926   7.333 -1.4138  2.1568  3.1688
   83MOL    H9936343   0.873   4.834   7.134 -0.2735  1.0319 -3.5880
   83MOL   H10036344   0.733   5.081   7.085 -0.8366  0.4078 -3.1309
   83MOL   H10136345   0.658   4.918   7.114 -0.3465  0.5494 -0.0207
   83MOL   H10236346   0.670   4.978   6.851 -0.9062 -3.3213  0.7724
   83MOL   H10336347   0.737   4.827   6.916  2.3834 -0.6746 -0.8746
   83MOL   H10436348   0.875   5.102   6.864 -2.1152  0.1411  1.2583
   83MOL   H10536349   0.869   4.958   6.747 -0.8442  0.1652 -0.4621
   83MOL   H10636350   1.007   4.837   6.924  4.6152 -0.0618 -0.0054
   83MOL   H10736351   1.086   4.993   6.871 -0.2855  0.0715 -0.2422
   83MOL   H10836352   1.085   4.951   7.107  1.1517  1.3751 -1.4122
   83MOL   H10936353   1.004   5.106   7.078  0.5974 -0.1399 -1.4049
   83MOL   H11036354   0.918   5.183   7.272  0.0170  0.3227  0.5767
   83MOL   H11136355   0.743   5.150   7.284  1.1219  4.1892 -0.6156
   83MOL   C11236356   0.852   5.168   7.471  0.1454  0.0199  0.2607
   83MOL   C11336357   0.734   5.257   7.524 -0.1841  0.1273 -0.5855
   83MOL   C11436358   0.601   5.177   7.527  0.2664 -0.2830 -0.6972
   83MOL   C11536359   0.484   5.253   7.590 -0.2666 -0.5222 -0.1617
   83MOL   C11636360   0.469   5.400   7.532  0.0047 -0.3877 -0.6833
   83MOL   C11736361   0.606   5.472   7.530 -0.7509  0.0840 -0.0427
   83MOL   C11836362   0.715   5.394   7.456 -0.0887 -0.5442 -0.0414
   83MOL   C11936363   0.990   5.236   7.495  0.0291 -0.4262 -0.2909
   83MOL   H12036364   0.845   5.080   7.536 -1.4386 -0.4895 -0.5692
   83MOL   H12136365   0.767   5.278   7.626  0.8713 -1.7356 -0.5166
   83MOL   H12236366   0.610   5.089   7.590 -0.3292 -0.0002 -0.2176
   83MOL   H12336367   0.565   5.147   7.429 -3.6859  0.5587  0.4164
   83MOL   H12436368   0.389   5.201   7.577  0.3753 -1.1873 -2.4063
   83MOL   H12536369   0.494   5.256   7.698  1.7850 -0.3953 -0.3521
   83MOL   H12636370   0.421   5.389   7.434 -1.3488  0.7329 -0.1669
   83MOL   H12736371   0.411   5.453   7.607  2.2784 -1.2728  1.7825
   83MOL   H12836372   0.586   5.561   7.469 -0.2364  0.8447  0.8862
   83MOL   H12936373   0.635   5.501   7.631 -0.2583 -0.6336  0.0265
   83MOL   H13036374   0.801   5.461   7.457 -0.1924 -0.3818 -1.7116
   83MOL   H13136375   0.687   5.376   7.353  1.1492  0.2770 -0.5309
   83MOL   H13236376   1.001   5.271   7.598  2.4956 -1.7196 -0.0539
   83MOL   H13336377   0.988   5.325   7.433  1.3137 -0.8295 -0.9238
   83MOL   C13436378   1.121   5.163   7.453  0.5281 -1.0284 -0.6561
   83MOL   C13536379   1.147   5.029   7.529  0.4266 -0.1548  0.7158
   83MOL   C13636380   1.231   5.043   7.661 -0.2807 -0.2075 -0.2860
   83MOL   C13736381   1.258   4.902   7.723 -0.5376 -0.3193  0.3957
   83MOL   C13836382   1.320   4.802   7.618 -0.5075 -0.6040 -0.0647
   83MOL   C13936383   1.234   4.790   7.494  0.5960 -0.1383 -0.3166
   83MOL   C14036384   1.219   4.928   7.431 -0.6355  0.6383  0.2229
   83MOL   C14136385   1.246   5.255   7.450 -0.2737  0.0313 -0.3370
   83MOL   H14236386   1.094   5.121   7.356 -0.8970  0.5863 -0.9823
   83MOL   H14336387   1.051   4.988   7.560 -0.5240  2.0733  0.7792
   83MOL   H14436388   1.329   5.090   7.648 -0.1065 -0.8272 -1.3084
   83MOL   H14536389   1.186   5.101   7.742 -0.9007  0.7748 -1.3168
   83MOL   H14636390   1.163   4.858   7.752  0.8676 -2.5938  1.7202
   83MOL   H14736391   1.319   4.907   0.040  1.0636  1.6579 -0.7729
   83MOL   H14836392   1.415   4.847   7.587 -1.1473  1.4494  0.8933
   83MOL   H14936393   1.336   4.706   7.667 -0.4462 -1.1621 -1.1582
   83MOL   H15036394   1.135   4.753   7.522  0.8949 -0.5194  0.2488
   83MOL   H15136395   1.281   4.713   7.433 -0.5591  0.6621 -2.2720
   83MOL   H15236396   1.317   4.972   7.410  0.2715 -0.7733  1.4138
   83MOL   H15336397   1.174   4.913   7.334  0.5917  1.3735 -0.4795
   83MOL   H15436398   1.324   5.186   7.421 -0.4867 -0.8417  1.1183
   83MOL   H15536399   1.276   5.291   7.549 -1.8538  0.3774  0.0406
   83MOL   C15636400   1.244   5.377   7.354  0.0898  0.5744 -0.5050
   83MOL   C15736401   1.229   5.342   7.207  0.1135  0.6069 -0.2851
   83MOL   C15836402   1.166   5.457   7.132 -0.8283 -1.0345 -0.3920
   83MOL   C15936403   1.140   5.404   6.987 -0.3695 -0.1233  0.8796
   83MOL   C16036404   1.260   5.341   6.907  0.2589  0.0258 -0.2906
   83MOL   C16136405   1.313   5.233   6.991  0.0894 -0.2783  0.2958
   83MOL   C16236406   1.355   5.276   7.136 -0.1008  0.4106 -0.7526
   83MOL   C16336407   1.352   5.489   7.379 -0.1378  0.5536  0.6499
   83MOL   H16436408   1.148   5.426   7.371 -0.5562 -0.6621 -0.4575
   83MOL   H16536409   1.161   5.257   7.205  0.4318  0.3682 -1.5571
   83MOL   H16636410   1.066   5.486   7.165 -0.7048  0.2635 -1.0942
   83MOL   H16736411   1.232   5.544   7.131 -0.2673 -1.4345  0.9388
   83MOL   H16836412   1.061   5.330   6.990 -0.1234 -0.3725  1.2559
   83MOL   H16936413   1.102   5.485   6.926  1.4464  1.6220  1.9923
   83MOL   H17036414   1.333   5.419   6.884 -1.1056  0.9788 -1.5608
   83MOL   H17136415   1.222   5.307   6.811  0.0096  0.4333 -0.3398
   83MOL   H17236416   1.398   5.190   6.938  0.5338  0.2613  0.5522
   83MOL   H17336417   1.233   5.162   7.008 -0.7426  0.8161  1.0326
   83MOL   H17436418   1.385   5.196   7.204  3.8958  1.2166 -1.4337
   83MOL   H17536419   1.440   5.345   7.131  0.5619 -0.1895  1.5180
   83MOL   H17636420   1.406   5.507   7.286 -0.8695 -0.0814  0.0959
   83MOL   H17736421   1.427   5.452   7.449 -1.4630 -0.4066  1.5886
   83MOL   C17836422   1.293   5.626   7.427  0.0404  0.1592  0.4360
   83MOL   C17936423   1.211   5.612   7.555  0.0456 -0.6123  0.0584
   83MOL   C18036424   1.142   5.745   7.600 -0.4384 -0.1464 -0.3820
   83MOL   C18136425   1.051   5.716   7.720  0.0656  0.8273 -0.1050
   83MOL   C18236426   1.135   5.653   0.064  0.0325 -0.6298  0.2896
   83MOL   C18336427   1.207   5.525   0.022 -0.2506  0.7642  0.3683
   83MOL   C18436428   1.294   5.553   7.668 -0.8952 -0.0316 -0.0554
   83MOL   C18536429   1.396   5.739   7.439 -0.0843  0.1666  0.7582
   83MOL   H18636430   1.219   5.662   7.355  0.7385  1.0450  0.1584
   83MOL   H18736431   1.136   5.533   7.545 -0.2346 -0.3694  0.2327
   83MOL   H18836432   1.211   5.823   7.633  0.3497 -1.0785  0.2012
   83MOL   H18936433   1.095   5.787   7.511 -1.3632 -0.0057  0.1731
   83MOL   H19036434   0.971   5.642   7.711 -1.2875  2.3050 -0.3187
   83MOL   H19136435   1.026   5.810   7.768  3.0913  1.7485 -0.2334
   83MOL   H19236436   1.217   5.720   0.090 -0.2815  0.6312 -1.8698
   83MOL   H19336437   1.086   5.635   0.160  0.1123  1.1403  0.6670
   83MOL   H19436438   1.142   5.441   7.770 -0.0520  0.9996 -1.0452
   83MOL   H19536439   1.263   5.480   0.104 -1.5314 -1.8531 -0.1357
   83MOL   H19636440   1.376   5.620   7.695  0.4495 -1.5318 -0.3632
   83MOL   H19736441   1.352   5.465   7.643 -1.8282 -0.8898  0.7653
   83MOL   H19836442   1.365   5.825   7.498  0.2156 -0.0075  1.1734
   83MOL   H19936443   1.470   5.710   7.513 -0.1297  0.1320  0.7890
   83MOL   C20036444   1.467   5.789   7.311 -0.2891  0.4628 -0.8391
   83MOL   C20136445   1.426   5.927   7.262  0.0905  0.3741  0.1976
   83MOL   C20236446   1.501   5.977   7.138 -1.3144  0.2225 -0.1571
   83MOL   C20336447   1.445   6.109   7.083  1.0975  0.1740  0.3144
   83MOL   C20436448   1.292   6.108   7.061 -0.3031  0.0048 -0.4267
   83MOL   C20536449   1.228   6.088   7.199  0.0600  0.1046  0.1588
   83MOL   C20636450   1.272   5.943   7.244 -0.0496 -0.0722 -0.2166
   83MOL   C20736451   1.625   5.779   7.340  0.6224  0.6414  0.0405
   83MOL   H20836452   1.450   5.714   7.234  0.3148 -1.9303  1.2596
   83MOL   H20936453   1.454   5.993   7.344  1.7096  0.3098 -0.2852
   83MOL   H21036454   1.499   5.907   7.055  2.7341  1.2040 -1.1477
   83MOL   H21136455   1.606   6.000   7.154 -1.5105  1.8082 -1.0905
   83MOL   H21236456   1.463   6.183   7.161  0.0302  1.1440 -0.3302
   83MOL   H21336457   1.500   6.159   7.003 -0.8319  0.0191 -1.1405
   83MOL   H21436458   1.252   6.204   7.030  0.6855  0.9168  1.0506
   83MOL   H21536459   1.264   6.029   6.991 -1.2185 -1.7104  1.7843
   83MOL   H21636460   1.270   6.157   7.271 -2.3977 -0.5450  2.3028
   83MOL   H21736461   1.120   6.093   7.215 -0.1029  0.0741 -0.8834
   83MOL   H21836462   1.229   5.922   7.342  2.2868 -0.4572  0.7768
   83MOL   H21936463   1.227   5.868   7.179  0.3070 -1.9967  1.6735
   83MOL   H22036464   1.687   5.834   7.269  0.1631 -1.0215 -1.6998
   83MOL   H22136465   1.640   5.842   7.427  2.1110  0.0639  0.2012
   83MOL   C22236466   1.694   5.643   7.336 -0.3888 -0.7252  0.0541
   83MOL   C22336467   1.757   5.612   7.192  0.2971  0.2559  1.1609
   83MOL   C22436468   1.875   5.699   7.133  0.2199 -0.1943  0.7342
   83MOL   C22536469   1.937   5.649   7.001  0.2503 -0.0442  0.3395
   83MOL   C22636470   1.822   5.652   6.901 -0.2347  0.6471 -0.7801
   83MOL   C22736471   1.705   5.563   6.947 -0.0937  0.5483  0.0861
   83MOL   C22836472   1.653   5.611   7.078  0.0192  0.3378 -0.5456
   83MOL   C22936473   1.815   5.649   7.439 -0.0754 -0.4958  0.2763
   83MOL   H23036474   1.625   5.561   7.356 -2.1545 -0.1211 -3.3548
   83MOL   H23136475   1.784   5.507   7.199  0.9429  0.4189  1.1656
   83MOL   H23236476   1.826   5.792   7.104  1.1336  0.1240  0.1987
   83MOL   H23336477   1.953   5.717   7.206 -0.1554 -1.5601  1.4945
   83MOL   H23436478   1.973   5.546   7.003  1.7429  0.4583  0.3012
   83MOL   H23536479   2.022   5.715   6.982  1.6319 -1.8623  0.0439
   83MOL   H23636480   1.789   5.753   6.879  0.8060  1.0929 -0.3254
   83MOL   H23736481   1.847   5.619   6.800  1.2032  0.1406 -0.2773
   83MOL   H23836482   1.743   5.462   6.956 -1.0483 -0.1235 -2.8815
   83MOL   H23936483   1.624   5.561   6.874 -0.6511  2.9454  0.5843
   83MOL   H24036484   1.599   5.705   7.071  1.3273  1.0002 -2.0588
   83MOL   H24136485   1.572   5.544   7.105  0.5872 -1.1920 -2.5312
   83MOL   H24236486   1.773   5.690   7.531 -0.5246 -0.8576  0.2347
   83MOL   H24336487   1.878   5.733   7.408 -2.1771  1.6730  1.6489
   83MOL   C24436488   1.903   5.524   7.471 -0.3521  0.6403  0.0856
   83MOL   C24536489   1.834   5.430   7.569 -0.3927 -0.8810 -0.1951
   83MOL   C24636490   1.727   5.332   7.506 -0.1220  0.0285 -0.5545
   83MOL   C24736491   1.695   5.222   7.611  0.3253 -0.1509  0.2448
   83MOL   C24836492   1.642   5.270   7.750 -0.5905  0.2376  0.3420
   83MOL   C24936493   1.744   5.377   0.039 -0.2748  0.2335  0.7199
   83MOL   C25036494   1.781   5.491   7.709  0.1557  0.2768  0.3652
   83MOL   C25136495   2.043   5.575   7.529 -0.4136 -0.3087  1.0925
   83MOL   H25236496   1.918   5.466   7.380 -0.6792 -0.2324  0.5801
   83MOL   H25336497   1.918   5.365   7.595  0.3669 -0.0116 -0.4507
   83MOL   H25436498   1.776   5.283   7.422  1.7035 -0.3861  0.7034
   83MOL   H25536499   1.632   5.377   7.480  0.4288  0.4384 -1.9083
   83MOL   H25636500   1.616   5.166   7.561  0.2400  1.2248 -1.1898
   83MOL   H25736501   1.774   5.148   7.623  0.5491  0.3637  2.1956
   83MOL   H25836502   1.552   5.327   7.725 -0.1312  1.4250  1.3410
   83MOL   H25936503   1.617   5.186   0.043  0.0825  0.2377  0.6062
   83MOL   H26036504   1.831   5.321   0.072 -0.9396 -0.0027  2.1418
   83MOL   H26136505   1.707   5.425   0.130  0.5172  3.0487 -0.3766
   83MOL   H26236506   1.696   5.552   7.676  0.0628 -1.1773 -2.1622
   83MOL   H26336507   1.848   5.561   7.759  0.2978 -0.6684  1.5109
   83MOL   H26436508   2.021   5.602   7.633 -3.0368  1.2071  0.1852
   83MOL   H26536509   2.064   5.672   7.483 -1.4181 -0.1238  0.9991
   83MOL   C26636510   2.170   5.483   7.499  0.2532  0.1338 -0.2140
   83MOL   C26736511   2.225   5.508   7.356 -0.4813  0.5638 -0.1290
   83MOL   C26836512   2.309   5.393   7.297  0.8272 -0.1048 -0.3715
   83MOL   C26936513   2.337   5.420   7.142 -0.2107 -0.6430  1.1540
   83MOL   C27036514   2.405   5.557   7.124  0.3844  0.3457  0.1382
   83MOL   C27136515   2.323   5.673   7.196 -0.1573  0.4749  0.4462
   83MOL   C27236516   2.302   5.645   7.340  0.0128  0.0706  0.0530
   83MOL   C27336517   2.268   5.487   7.625 -0.1456  0.5168  1.0491
   83MOL   H27436518   2.117   5.388   7.491 -1.1258  0.9064 -0.3881
   83MOL   H27536519   2.139   5.519   7.290 -1.2000 -0.6968  0.5669
   83MOL   H27636520   2.402   5.390   7.354  0.8033 -0.9019 -0.3603
   83MOL   H27736521   2.264   5.294   7.306  2.4039 -0.5758  2.8423
   83MOL   H27836522   2.239   5.426   7.094  1.0080 -0.8048 -1.3706
   83MOL   H27936523   2.411   5.352   7.101 -0.3240 -0.7393  1.1118
   83MOL   H28036524   2.504   5.555   7.169 -0.4758  0.8541  2.1059
   83MOL   H28136525   2.415   5.574   7.017  1.7330 -3.0335 -0.3502
   83MOL   H28236526   2.230   5.697   7.144 -0.2979  1.3437  1.0927
   83MOL   H28336527   2.383   5.764   7.188 -0.0951  0.5580  1.7648
   83MOL   H28436528   2.248   5.728   7.387 -0.7234  0.7846 -2.0246
   83MOL   H28536529   2.399   5.644   7.390 -0.1761 -3.1957  0.4633
   83MOL   H28636530   2.201   5.503   7.709 -0.9853  1.2420  0.2507
   83MOL   H28736531   2.332   5.573   7.610 -2.1882  1.8414 -0.4097
   83MOL   C28836532   2.348   5.358   7.662 -0.0496 -0.6239  0.1701
   83MOL   C28936533   2.268   5.250   7.728  0.1200 -0.0059 -0.2504
   83MOL   C29036534   2.186   5.291   0.077  0.4587  0.8885  0.0186
   83MOL   C29136535   2.124   5.175   0.154 -0.1861  0.8629 -0.7772
   83MOL   C29236536   2.044   5.080   0.064 -0.1226 -0.0965  0.5207
   83MOL   C29336537   2.119   5.050   7.706 -0.2161 -0.1734 -0.2400
   83MOL   C29436538   2.175   5.172   7.637 -0.5393 -0.0324  0.9929
   83MOL   C29536539   2.469   5.397   7.748 -0.1410  0.5065  0.2829
   83MOL   H29636540   2.385   5.312   7.570  1.7389  1.3243 -0.1298
   83MOL   H29736541   2.343   5.175   7.754 -1.0514 -0.5612  1.6269
   83MOL   H29836542   2.242   5.343   0.155  0.8519  1.0398 -0.3659
   83MOL   H29936543   2.105   5.357   0.047  0.6097  0.6235 -0.9696
   83MOL   H30036544   2.187   5.106   0.210 -2.6113 -0.7147  0.0875
   83MOL   H30136545   2.069   5.222   0.235  1.5349  4.6354 -1.7165
   83MOL   H30236546   1.953   5.135   0.041  1.1806  1.2627 -1.5911
   83MOL   H30336547   2.023   4.988   0.118 -1.9258 -0.3920 -0.6510
   83MOL   H30436548   2.049   4.994   7.645  0.6239 -0.9487 -0.4870
   83MOL   H30536549   2.208   4.998   7.740 -0.1603  2.0734  3.3381
   83MOL   H30636550   2.095   5.240   7.609 -1.1201 -0.0595  2.5352
   83MOL   H30736551   2.233   5.137   7.551 -0.0564  0.4969  1.0942
   83MOL   H30836552   2.526   5.474   7.697 -2.1079  1.7602 -0.0688
   83MOL   H30936553   2.430   5.440   0.068  0.3745 -0.7814  1.1329
   83MOL   C31036554   2.575   5.291   0.014 -0.5563 -0.2695 -0.5996
   83MOL   C31136555   2.722   5.337   0.001 -0.1937 -0.5251 -0.3529
   83MOL   C31236556   2.766   5.355   7.625  0.0632 -0.3288 -0.2790
   83MOL   C31336557   2.917   5.378   7.616  0.8640  0.1867 -0.1154
   83MOL   C31436558   2.961   5.502   7.694  0.6537  0.3290  0.1825
   83MOL   C31536559   2.910   5.487   0.068  0.3141 -0.5520  0.0675
   83MOL   C31636560   2.757   5.463   0.081 -0.1959 -0.7666  0.0453
   83MOL   C31736561   2.553   5.244   0.159  0.0658 -1.1226 -0.7963
   83MOL   H31836562   2.568   5.214   7.709  2.5375  0.2240 -1.4419
   83MOL   H31936563   2.785   5.255   0.036  0.6524  0.1450 -0.2902
   83MOL   H32036564   2.753   5.262   7.571  2.1043 -2.4805  2.7843
   83MOL   H32136565   2.709   5.435   7.577  0.0460  0.3949  0.9299
   83MOL   H32236566   2.935   5.388   7.509  1.9588  2.7134  0.2549
   83MOL   H32336567   2.968   5.284   7.639 -0.9572 -0.3039  2.0708
   83MOL   H32436568   3.070   5.514   7.694  0.5124  1.8955 -1.4901
   83MOL   H32536569   2.920   5.596   7.656 -1.5768 -0.9834 -0.7713
   83MOL   H32636570   2.965   5.402   0.107  1.2213 -1.7827 -3.7116
   83MOL   H32736571   2.939   5.572   0.130 -0.0116 -0.6388  0.3392
   83MOL   H32836572   2.707   5.546   0.030  1.5628 -1.0078 -2.1269
   83MOL   H32936573   2.730   5.459   0.186 -3.2719  1.6957 -0.5536
   83MOL   H33036574   2.450   5.211   0.170 -0.6962  1.7455  1.2742
   83MOL   H33136575   2.550   5.337   0.215  0.3343 -1.2140 -0.6298
   83MOL   C33236576   2.630   5.125   0.229 -0.0137  0.4098 -0.3635
   83MOL   C33336577   2.646   5.009   0.140  0.1864 -0.1357  0.3673
   83MOL   C33436578   2.528   4.931   0.111 -0.0575  0.2294  0.7840
   83MOL   C33536579   2.553   4.813   0.021  0.3369 -0.4591  0.2252
   83MOL   C33636580   2.671   4.724   0.073  0.7052  0.1814  0.1529
   83MOL   C33736581   2.797   4.798   0.107  0.0406 -0.0808  0.3793
   83MOL   C33836582   2.762   4.917   0.201  0.5611 -0.1809 -0.4561
   83MOL   C33936583   2.566   5.105   0.369 -0.1365  0.1159  0.2023
   83MOL   H34036584   2.732   5.163   0.241 -0.4558  1.1369  1.3256
   83MOL   H34136585   2.691   5.047   0.048 -0.5014  0.1434  0.1422
   83MOL   H34236586   2.475   4.879   0.192 -0.8256 -1.0228 -0.5084
   83MOL   H34336587   2.448   4.990   0.067 -0.0305 -0.7583 -0.5985
   83MOL   H34436588   2.457   4.761   0.017 -0.2796  0.7894 -2.1973
   83MOL   H34536589   2.566   4.838   7.688  0.8211 -2.4034 -0.1927
   83MOL   H34636590   2.636   4.664   0.157 -0.2911  1.2720  0.5212
   83MOL   H34736591   2.687   4.644   0.001 -1.1213 -1.2346  1.2831
   83MOL   H34836592   2.848   4.838   0.019 -1.7786  1.1043 -0.1537
   83MOL   H34936593   2.872   4.735   0.155  0.0139 -1.0980 -0.9027
   83MOL   H35036594   2.845   4.987   0.211 -0.4630  1.2253 -1.4822
   83MOL   H35136595   2.757   4.886   0.305  0.2686  1.6398  0.1057
   83MOL   H35236596   2.579   5.001   0.400 -1.8450 -0.0330  0.4435
   83MOL   H35336597   2.459   5.113   0.349  0.0569 -0.1705 -0.9710
   83MOL   C35436598   2.586   5.210   0.479  0.1851  0.1948  0.0761
   83MOL   C35536599   2.713   5.181   0.566 -0.1308  0.4302 -0.0208
   83MOL   C35636600   2.749   5.302   0.651 -0.0970  0.4016  0.1897
   83MOL   C35736601   2.879   5.281   0.735  0.3454 -0.3355 -0.7034
   83MOL   C35836602   3.001   5.242   0.647 -0.2336 -0.3481  0.6607
   83MOL   C35936603   2.965   5.123   0.568 -0.2332 -0.3105 -0.6409
   83MOL   C36036604   2.840   5.156   0.478  0.0812  0.3556 -0.3901
   83MOL   C36136605   2.455   5.222   0.562  0.1399 -0.3126  0.1593
   83MOL   H36236606   2.603   5.307   0.433 -1.5147 -0.0721 -1.1465
   83MOL   H36336607   2.704   5.097   0.636 -0.9798  0.1776 -0.4210
   83MOL   H36436608   2.670   5.327   0.722 -0.2166 -3.4120  1.5610
   83MOL   H36536609   2.764   5.388   0.587  0.5691  0.0853 -0.0827
   83MOL   H36636610   2.903   5.371   0.791  1.4869 -2.1256  1.7774
   83MOL   H36736611   2.868   5.210   0.816 -0.3014  2.0189  1.3299
   83MOL   H36836612   3.021   5.319   0.572 -1.7103 -3.2161 -2.8236
   83MOL   H36936613   3.089   5.218   0.706  0.1350 -2.7022 -0.7753
   83MOL   H37036614   3.047   5.101   0.500 -0.3433  0.8112 -1.1565
   83MOL   H37136615   2.945   5.039   0.634  2.7170 -0.0290  0.6855
   83MOL   H37236616   2.824   5.070   0.412  0.1063  1.6606 -2.1440
   83MOL   H37336617   2.851   5.247   0.418  1.0007  0.7000  0.2955
   83MOL   H37436618   2.490   5.233   0.664 -0.3749  0.2131  0.2786
   83MOL   H37536619   2.402   5.127   0.568 -1.6495  0.5502 -1.3290
   83MOL   C37636620   2.355   5.335   0.532 -0.1545  0.3106  0.5421
   83MOL   C37736621   2.204   5.295   0.564  0.9992 -0.5088  0.0441
   83MOL   C37836622   2.098   5.405   0.525  0.1445  0.6811 -0.5385
   83MOL   C37936623   1.949   5.362   0.536  0.0817 -0.6362 -0.1599
   83MOL   C38036624   1.925   5.314   0.678  0.2800  0.3014  0.7706
   83MOL   C38136625   2.034   5.224   0.736 -0.0603 -0.4337  0.0815
   83MOL   C38236626   2.182   5.258   0.713  0.0155 -0.1338  0.0172
   83MOL   C38336627   2.412   5.471   0.589  0.4787  0.1635 -0.1748
   83MOL   H38436628   2.363   5.348   0.424  1.8080 -0.0245  0.6274
   83MOL   H38536629   2.181   5.206   0.505  1.6188 -0.3703 -0.4117
   83MOL   H38636630   2.109   5.480   0.605 -0.5239  0.1947  0.0143
   83MOL   H38736631   2.131   5.464   0.439  3.8372  1.2888  1.1940
   83MOL   H38836632   1.926   5.284   0.463  0.3217 -0.5649 -0.3109
   83MOL   H38936633   1.886   5.448   0.518 -0.2150 -0.5701  1.1514
   83MOL   H39036634   1.912   5.399   0.746  1.8836  1.7685 -0.6985
   83MOL   H39136635   1.836   5.251   0.676  1.0188 -0.7753  1.4613
   83MOL   H39236636   2.016   5.222   0.843 -1.0550  0.2523 -0.0690
   83MOL   H39336637   2.020   5.121   0.703 -0.0244 -0.2863 -0.3926
   83MOL   H39436638   2.218   5.342   0.772 -1.1401  0.0628  0.4519
   83MOL   H39536639   2.236   5.170   0.749 -0.3969 -0.7178 -0.7741
   83MOL   H39636640   2.519   5.453   0.584  0.4625 -1.4257  3.9130
   83MOL   H39736641   2.381   5.474   0.693 -1.8042 -0.9428 -0.7981
   83MOL   C39836642   2.376   5.604   0.515  0.2561  0.9724 -0.5157
   83MOL   C39936643   2.380   5.710   0.630 -0.6399 -0.4289 -0.4041
   83MOL   C40036644   2.251   5.710   0.719 -0.1610  0.3713  0.1000
   83MOL   C40136645   2.255   5.826   0.814  0.4670 -0.3054 -0.2700
   83MOL   C40236646   2.375   5.829   0.899  0.2831 -0.5355  0.7699
   83MOL   C40336647   2.507   5.835   0.818  0.1290 -0.1313 -0.4438
   83MOL   C40436648   2.518   5.730   0.698  0.2742  0.0460  0.0159
   83MOL   C40536649   2.464   5.636   0.395 -0.1333  0.6848  0.5692
   83MOL   H40636650   2.272   5.598   0.482  0.7392 -1.9146 -1.6162
   83MOL   H40736651   2.360   5.805   0.580 -0.1243 -0.4484 -0.6432
   83MOL   H40836652   2.250   5.616   0.774  0.3122  1.1726  1.5035
   83MOL   H40936653   2.162   5.713   0.656  0.4567 -3.2204 -1.0153
   83MOL   H41036654   2.171   5.820   0.883  0.3026 -2.2575 -0.6197
   83MOL   H41136655   2.231   5.914   0.755  0.7591  0.9523  1.4412
   83MOL   H41236656   2.366   5.741   0.963  0.9653 -0.8080  0.5003
   83MOL   H41336657   2.381   5.924   0.953  2.4892 -0.7647  0.9806
   83MOL   H41436658   2.529   5.935   0.779 -0.2460  0.9323  2.0177
   83MOL   H41536659   2.595   5.813   0.879  0.7075  1.9447 -0.5028
   83MOL   H41636660   2.591   5.759   0.622  0.1476  0.5336  0.0780
   83MOL   H41736661   2.545   5.634   0.741  0.4915 -0.1993 -0.6614
   83MOL   H41836662   2.568   5.643   0.428 -0.0228  1.2007  0.1208
   83MOL   H41936663   2.462   5.544   0.336 -2.9092  0.9873  0.1220
   83MOL   C42036664   2.427   5.764   0.306  0.0550  0.6067  0.0423
   83MOL   C42136665   2.277   5.774   0.282  0.6419  0.7653 -0.3826
   83MOL   C42236666   2.220   5.649   0.199 -0.1703  0.1843  0.6858
   83MOL   C42336667   2.070   5.658   0.154 -0.0226 -0.1710 -0.3018
   83MOL   C42436668   2.063   5.793   0.079  0.1327  0.1411  0.1864
   83MOL   C42536669   2.094   5.915   0.175  0.5555  0.1992  0.3902
   83MOL   C42636670   2.241   5.900   0.211  0.2702  0.2846  0.5140
   83MOL   C42736671   2.525   5.780   0.187 -0.5791 -0.2103  0.4021
   83MOL   H42836672   2.450   5.846   0.375 -0.7073 -0.0679  1.1104
   83MOL   H42936673   2.222   5.785   0.375  0.5724  0.4293 -0.3829
   83MOL   H43036674   2.289   5.634   0.116 -3.4215  3.2789 -2.7684
   83MOL   H43136675   2.222   5.558   0.260 -1.7550  0.3402  0.9911
   83MOL   H43236676   2.049   5.573   0.089  1.9899  0.4053 -1.7509
   83MOL   H43336677   1.991   5.658   0.229 -0.0714 -1.4477 -0.3484
   83MOL   H43436678   1.966   5.804   0.031  0.0575 -0.1701  0.2629
   83MOL   H43536679   2.130   5.800   7.766 -1.9775 -0.0507 -1.5265
   83MOL   H43636680   2.020   5.917   0.255 -1.8466  1.5034 -1.8007
   83MOL   H43736681   2.077   6.004   0.115  0.7232 -0.2221 -0.2908
   83MOL   H43836682   2.299   5.898   0.119 -1.1766 -0.9097 -0.3962
   83MOL   H43936683   2.266   5.979   0.282 -0.7663 -0.9661  2.3281
   83MOL   H44036684   2.510   5.723   0.096 -0.0966  1.7623 -0.9457
   83MOL   H44136685   2.512   5.886   0.163 -1.8017 -0.6370 -0.9208
   83MOL   H44236686   2.629   5.760   0.213 -1.1511 -1.8062  1.5110
   84MOL     C136687   7.718   6.466   0.074  0.2319  0.0571  0.5399
   84MOL     C236688   7.717   6.381   0.202 -0.2660 -0.2508  0.0402
   84MOL     C336689   0.056   6.277   0.193 -0.0656  0.3571 -0.1946
   84MOL     C436690   0.077   6.193   0.328 -0.1847  0.4500  0.4854
   84MOL     C536691   7.710   6.127   0.360 -0.0686  0.1418 -0.1840
   84MOL     C636692   7.602   6.231   0.375  0.1603  0.4952 -0.6584
   84MOL     C736693   7.578   6.311   0.242 -0.3814 -0.1759 -0.0125
   84MOL     C836694   7.625   6.590   0.082  0.5794 -0.2737 -0.5020
   84MOL     H936695   0.048   6.502   0.071  0.0855  0.3858 -0.5764
   84MOL    H1036696   7.740   6.448   0.285 -0.6730 -1.1960  0.9227
   84MOL    H1136697   0.033   6.205   0.115  0.6008 -1.9268  1.6598
   84MOL    H1236698   0.151   6.322   0.167  1.3321 -2.2971  0.1007
   84MOL    H1336699   0.119   6.256   0.407  1.0390 -1.5587  1.4982
   84MOL    H1436700   0.154   6.119   0.307 -0.8396 -0.0681 -0.0991
   84MOL    H1536701   7.728   6.069   0.451 -1.3907 -1.1493 -0.7125
   84MOL    H1636702   7.671   6.050   0.294 -2.6415  1.3249 -0.1071
   84MOL    H1736703   7.512   6.183   0.412 -0.2812  0.3026 -1.9476
   84MOL    H1836704   7.630   6.292   0.460 -0.6462  0.3183 -0.2628
   84MOL    H1936705   7.503   6.386   0.269 -1.5765 -1.3870  0.0857
   84MOL    H2036706   7.532   6.242   0.172 -0.1830  0.0745 -0.3889
   84MOL    H2136707   7.648   6.642   0.175 -2.0360 -0.2017  0.1482
   84MOL    H2236708   7.521   6.558   0.089  1.0532 -1.9853 -0.9254
   84MOL    H2336709   7.688   6.406   7.760 -1.0125 -0.1289  1.0987
   84MOL    C2436710   7.635   6.683   7.733 -0.0667 -0.1164 -0.4202
   84MOL    C2536711   7.574   6.626   7.605 -0.7254 -0.1596  0.0796
   84MOL    C2636712   7.652   6.679   7.487  0.3463  0.5728  0.2728
   84MOL    C2736713   7.612   6.617   7.353 -0.3741 -0.2923 -0.4005
   84MOL    C2836714   7.458   6.613   7.328 -0.2522 -0.1531  0.2042
   84MOL    C2936715   7.379   6.569   7.453 -0.0973  0.5070  0.3904
   84MOL    C3036716   7.422   6.652   7.574  0.7585  0.2564  0.0469
   84MOL    C3136717   7.578   6.827   7.762  0.2243  0.1327  0.4251
   84MOL    H3236718   7.742   6.699   7.721 -0.0156  0.8330  1.1011
   84MOL    H3336719   7.589   6.518   7.612  1.2007  0.0916  0.3220
   84MOL    H3436720   7.755   6.649   7.502  0.3904 -0.1815 -1.4060
   84MOL    H3536721   7.630   6.785   7.471 -1.1514  0.2989  0.3838
   84MOL    H3636722   7.666   6.665   7.272  0.3907 -2.5817 -1.2787
   84MOL    H3736723   7.646   6.514   7.344 -1.2232 -0.4567 -1.8215
   84MOL    H3836724   7.429   6.554   7.240 -1.9980 -1.2254  1.4493
   84MOL    H3936725   7.426   6.714   7.302  0.8029 -0.1465 -1.1164
   84MOL    H4036726   7.272   6.578   7.436 -0.0245 -0.9323 -0.9667
   84MOL    H4136727   7.400   6.462   7.460 -0.2016  0.4266 -0.4177
   84MOL    H4236728   7.405   6.757   7.554  1.6776  0.0316 -1.9974
   84MOL    H4336729   7.352   6.638   7.656  1.8315  0.6032  1.0368
   84MOL    H4436730   7.481   6.823   0.040 -0.2523 -2.7176 -0.6087
   84MOL    H4536731   7.557   6.879   7.669 -0.4487  0.4397  0.7434
   84MOL    C4636732   7.678   6.915   0.067  0.3169  0.0382 -0.0403
   84MOL    C4736733   7.617   7.033   0.154  0.0044 -0.2286 -0.3573
   84MOL    C4836734   7.535   6.978   0.272 -0.1908  0.4181 -0.4075
   84MOL    C4936735   7.500   7.078   0.388  0.0356  0.1848  0.0086
   84MOL    C5036736   7.433   7.196   0.330  0.3459 -0.3224  0.8151
   84MOL    C5136737   7.516   7.258   0.211 -0.2299 -0.6147  0.4245
   84MOL    C5236738   7.549   7.156   0.096  0.2358  0.2381 -0.4894
   84MOL    C5336739   0.008   6.978   7.741  0.4970  0.8353  0.1870
   84MOL    H5436740   7.728   6.853   0.141 -1.8963 -1.0412  0.5971
   84MOL    H5536741   7.707   7.074   0.201 -0.3709  0.2197 -0.0247
   84MOL    H5636742   7.448   6.936   0.221 -0.5211  0.4664  0.1166
   84MOL    H5736743   7.590   6.893   0.313  0.7108  1.2858  0.2006
   84MOL    H5836744   7.587   7.097   0.450 -0.5134 -0.1307  0.8818
   84MOL    H5936745   7.437   7.035   0.466  1.4216  0.1449  1.1162
   84MOL    H6036746   7.338   7.169   0.283  0.7679  2.2931 -1.7042
   84MOL    H6136747   7.406   7.277   0.399  0.3557 -0.5831  1.1252
   84MOL    H6236748   7.616   7.290   0.239 -0.5269  0.8748 -0.1702
   84MOL    H6336749   7.458   7.345   0.179  0.9062  1.0349  2.7318
   84MOL    H6436750   7.465   7.120   0.036  0.6443  0.3284 -1.1241
   84MOL    H6536751   7.611   7.204   0.020 -0.5691  1.7614 -0.2156
   84MOL    H6636752   7.729   7.045   7.672 -0.1813 -0.6608 -0.7885
   84MOL    H6736753   0.046   6.902   7.673  2.1240 -1.0843  3.1528
   84MOL    C6836754   0.134   7.050   0.030  0.1255 -0.2605 -0.2405
   84MOL    C6936755   0.235   6.957   0.105 -0.1960  0.3312  0.2416
   84MOL    C7036756   0.301   6.847   0.015  0.5916  0.5399 -0.9463
   84MOL    C7136757   0.395   6.760   0.094  0.1254 -0.0348 -0.1964
   84MOL    C7236758   0.500   6.844   0.178 -0.0335 -0.5279  0.3947
   84MOL    C7336759   0.438   6.953   0.263 -0.7511 -0.3942  0.1412
   84MOL    C7436760   0.334   7.035   0.183 -0.2049  0.3321 -0.5801
   84MOL    C7536761   0.202   7.130   7.685  0.5912  0.4228 -0.4182
   84MOL    H7636762   0.104   7.113   0.114  0.6252 -0.4548  0.0884
   84MOL    H7736763   0.172   6.908   0.180  1.2090  0.9005  1.8030
   84MOL    H7836764   0.367   6.894   7.715  2.8533 -1.8948 -0.5487
   84MOL    H7936765   0.226   6.786   7.737 -2.0300  0.2988  3.0162
   84MOL    H8036766   0.335   6.714   0.172  2.0198 -3.6099 -0.7722
   84MOL    H8136767   0.449   6.689   0.032  0.2310  0.6771 -0.9435
   84MOL    H8236768   0.565   6.885   0.101 -2.2550  1.0746 -0.6872
   84MOL    H8336769   0.562   6.777   0.238 -0.0630 -1.7170 -0.8662
   84MOL    H8436770   0.517   7.006   0.317 -0.2485 -2.4111  1.4844
   84MOL    H8536771   0.387   6.915   0.352 -0.5783 -0.0380  0.3970
   84MOL    H8636772   0.391   7.098   0.116 -1.6453  1.6393 -0.5950
   84MOL    H8736773   0.285   7.109   0.247 -1.4415 -1.0571  0.1219
   84MOL    H8836774   0.310   7.141   7.696  0.3327 -0.0016  3.0136
   84MOL    H8936775   0.184   7.078   7.591  2.0408  0.0760 -0.5280
   84MOL    C9036776   0.154   7.282   7.657 -0.0205  0.1772 -0.1455
   84MOL    C9136777   0.235   7.377   7.754  0.2796 -0.6272 -0.3006
   84MOL    C9236778   0.385   7.403   7.711 -0.0591  0.0915  0.0368
   84MOL    C9336779   0.450   7.495   0.041  0.4395 -0.7576 -0.3006
   84MOL    C9436780   0.382   7.624   0.051 -0.2043 -0.0027  0.8319
   84MOL    C9536781   0.233   7.602   0.092  0.2874 -0.7701  0.2201
   84MOL    C9636782   0.154   7.507   7.770 -0.0319  0.0382 -0.9624
   84MOL    C9736783   0.172   7.317   7.513  0.0759  0.1165  0.5522
   84MOL    H9836784   0.049   7.293   7.683 -0.8774  0.3909 -3.4338
   84MOL    H9936785   0.238   7.323   0.076 -1.9973 -0.1120  0.1181
   84MOL   H10036786   0.391   7.452   7.614  0.9127 -0.9498 -0.4314
   84MOL   H10136787   0.437   7.308   7.698  0.1446  0.2226 -0.1060
   84MOL   H10236788   0.557   7.508   0.033  0.5165  1.1949  2.8683
   84MOL   H10336789   0.440   7.446   0.139 -0.6094  0.2210  0.0940
   84MOL   H10436790   0.416   7.687   7.741  1.2972  1.4533  2.5211
   84MOL   H10536791   0.432   7.677   0.132  0.2405  1.1351 -0.1667
   84MOL   H10636792   0.219   7.580   0.197 -1.8415 -2.4924 -0.3887
   84MOL   H10736793   0.175   7.694   0.080 -1.0367 -1.3861  1.7660
   84MOL   H10836794   0.057   7.478   0.040  1.2595 -1.2347  1.2126
   84MOL   H10936795   0.144   7.555   7.673 -1.5854 -0.7415 -1.2169
   84MOL   H11036796   0.189   7.423   7.495  0.6308 -0.1595 -0.6016
   84MOL   H11136797   0.265   7.270   7.480 -0.3256 -0.5201  0.3129
   84MOL   C11236798   0.053   7.283   7.417 -0.0266  0.5734 -0.0900
   84MOL   C11336799   0.068   7.154   7.326 -0.1784  0.7359 -0.0143
   84MOL   C11436800   0.128   7.178   7.187  0.2983  0.5756  0.3987
   84MOL   C11536801   0.128   7.052   7.103 -0.7630 -0.5533 -0.0511
   84MOL   C11636802   7.766   6.972   7.099  0.3098  0.2978  0.6089
   84MOL   C11736803   7.705   6.958   7.243  0.4801  0.7262  0.1784
   84MOL   C11836804   7.705   7.090   7.314 -0.0688  0.2643  0.1022
   84MOL   C11936805   7.764   7.409   7.339  0.3724  0.1666  0.4904
   84MOL   H12036806   7.757   7.241   7.491 -0.2091 -0.5104 -0.8558
   84MOL   H12136807   0.129   7.086   7.386 -0.2395  0.6340 -0.0669
   84MOL   H12236808   0.227   7.223   7.180  1.3285 -1.7372 -0.3661
   84MOL   H12336809   0.061   7.244   7.132  0.1173  0.0267 -0.0426
   84MOL   H12436810   0.150   7.063   6.997 -2.2154 -0.8512 -0.3907
   84MOL   H12536811   0.196   6.983   7.152 -0.8799  1.3057  2.9008
   84MOL   H12636812   7.695   7.026   7.037 -1.8154 -3.0754  0.0009
   84MOL   H12736813   7.766   6.873   7.054 -2.4274  1.1011 -1.3098
   84MOL   H12836814   7.604   6.919   7.231  0.7306  0.0958  0.0933
   84MOL   H12936815   7.753   6.881   7.303  1.4735  1.3895  0.2401
   84MOL   H13036816   7.666   7.072   7.414  0.8418  1.3838  0.6708
   84MOL   H13136817   7.637   7.159   7.264 -0.6405 -1.0334 -0.9225
   84MOL   H13236818   7.718   7.389   7.242  0.5994 -1.7879  0.7661
   84MOL   H13336819   0.078   7.472   7.317  1.5661 -1.6330 -0.0799
   84MOL   C13436820   7.664   7.490   7.417  0.0772 -0.3658  0.1950
   84MOL   C13536821   7.544   7.408   7.475  0.3003 -0.8404 -0.1327
   84MOL   C13636822   7.442   7.367   7.358 -0.0113  0.2418  0.0338
   84MOL   C13736823   7.326   7.281   7.414 -0.3093  0.1981 -0.4733
   84MOL   C13836824   7.257   7.364   7.520  0.2366  0.0625 -0.5163
   84MOL   C13936825   7.354   7.385   7.632  0.1536  0.2597 -0.3228
   84MOL   C14036826   7.476   7.479   7.593 -0.3312  0.5671  0.3999
   84MOL   C14136827   7.626   7.622   7.346 -0.8672  0.7412 -0.1562
   84MOL   H14236828   7.714   7.514   7.511  1.3403 -1.5499 -0.1580
   84MOL   H14336829   7.581   7.318   7.523 -0.3482 -0.4266  1.1521
   84MOL   H14436830   7.401   7.461   7.320 -1.0502 -0.7395 -1.2899
   84MOL   H14536831   7.499   7.326   7.275  3.3316 -0.1895  2.4118
   84MOL   H14636832   7.378   7.194   7.453  0.2891  1.4103  1.5336
   84MOL   H14736833   7.249   7.239   7.349  0.8023 -0.9768 -1.0494
   84MOL   H14836834   7.226   7.461   7.483 -1.7084 -0.6784 -0.8910
   84MOL   H14936835   7.165   7.312   7.548  1.7717 -2.4090  0.0899
   84MOL   H15036836   7.389   7.287   7.665  3.0961  1.3232 -0.0704
   84MOL   H15136837   7.300   7.415   7.723 -2.5304 -3.3341 -0.6334
   84MOL   H15236838   7.449   7.582   7.571 -1.4948  0.4868  1.3815
   84MOL   H15336839   7.549   7.485   7.674  0.8004 -0.9725 -0.4885
   84MOL   H15436840   7.576   7.685   7.419 -0.2902  0.0155  0.8855
   84MOL   H15536841   7.563   7.586   7.265 -1.9082  1.6617  0.2317
   84MOL   C15636842   7.729   7.701   7.260 -0.2528 -0.6100 -1.0311
   84MOL   C15736843   0.085   7.748   7.338 -0.0804  0.2496  0.5893
   84MOL   C15836844   0.201   0.006   7.247 -0.0128 -0.1050 -0.1196
   84MOL   C15936845   0.324   0.022   7.341 -0.0005 -0.1302  0.1701
   84MOL   C16036846   0.308   0.128   7.444 -0.5386  0.3619 -0.2303
   84MOL   C16136847   0.197   0.093   7.535 -0.1591 -0.1755  0.6977
   84MOL   C16236848   0.066   0.077   7.450 -0.4148 -0.6361  0.2478
   84MOL   C16336849   7.666   0.051   7.193 -0.1750  0.1678 -0.8784
   84MOL   H16436850   7.770   7.628   7.191 -1.7943 -0.2213 -2.3784
   84MOL   H16536851   0.111   7.664   7.402 -4.4041 -2.4048 -0.9126
   84MOL   H16636852   0.214   7.695   7.178 -1.2645  1.5031 -2.3518
   84MOL   H16736853   0.187   0.096   7.186 -0.5435 -1.1602 -1.5839
   84MOL   H16836854   0.340   7.693   7.378  1.0582 -0.3048 -0.7638
   84MOL   H16936855   0.411   0.034   7.276  0.4765 -2.7728  0.2978
   84MOL   H17036856   0.288   0.226   7.400 -1.1852  1.1059  1.6595
   84MOL   H17136857   0.402   0.149   7.494 -0.9419  1.1686  0.2002
   84MOL   H17236858   0.189   0.170   7.612  1.4481  0.7382 -0.0112
   84MOL   H17336859   0.212   0.006   7.599 -1.4026 -0.1743  0.9988
   84MOL   H17436860   7.753   0.058   7.515 -0.4470 -3.5458 -0.5623
   84MOL   H17536861   0.043   0.174   7.407  1.5959 -0.1635  0.1756
   84MOL   H17636862   7.737   0.102   7.128 -0.1475  1.7306  0.3486
   84MOL   H17736863   7.640   0.126   7.268  1.7282 -0.0549  0.0244
   84MOL   C17836864   7.542   0.031   7.107  1.1760 -0.2067 -0.1060
   84MOL   C17936865   7.471   0.172   7.087  0.1172  0.0506  0.6701
   84MOL   C18036866   7.551   0.282   7.009  0.4369 -0.3334 -0.5494
   84MOL   C18136867   7.468   0.403   6.985 -0.0740  0.4002  0.0837
   84MOL   C18236868   7.405   0.450   7.117 -0.3019 -0.0652 -0.7705
   84MOL   C18336869   7.314   0.351   7.183  0.3349  0.1366 -0.9086
   84MOL   C18436870   7.392   0.226   7.210  0.0450 -0.5482  0.6373
   84MOL   C18536871   7.577   7.729   6.977  0.2573 -0.2446  0.4215
   84MOL   H18636872   7.463   7.751   7.162 -0.8150 -0.0140 -2.6433
   84MOL   H18736873   7.385   0.157   7.021 -0.4320  0.5678  1.2634
   84MOL   H18836874   7.645   0.306   7.061 -1.7378  1.4459  2.7618
   84MOL   H18936875   7.591   0.247   6.914 -0.3180 -1.9724 -0.2732
   84MOL   H19036876   7.381   0.383   6.923 -0.7736 -0.1163  1.2124
   84MOL   H19136877   7.529   0.479   6.938 -0.0223  0.4513  0.2313
   84MOL   H19236878   7.480   0.488   7.187 -1.5449 -0.2549  0.6815
   84MOL   H19336879   7.341   0.534   7.093  0.7427  1.3952  1.4136
   84MOL   H19436880   7.219   0.329   7.136 -0.6969  0.7601  0.8681
   84MOL   H19536881   7.297   0.388   7.284 -0.6850 -2.5940 -0.0285
   84MOL   H19636882   7.463   0.256   7.287 -2.4113  1.3689  2.2257
   84MOL   H19736883   7.326   0.152   7.255 -0.9257  1.4094  2.4713
   84MOL   H19836884   7.631   0.027   6.914  0.6359  0.1642  1.1982
   84MOL   H19936885   7.647   7.649   6.998 -1.0385 -1.3471  0.6690
   84MOL   C20036886   7.446   7.665   6.909 -0.3418 -0.7354 -0.2496
   84MOL   C20136887   7.466   7.655   6.759  0.4837 -0.0376  0.3510
   84MOL   C20236888   7.465   0.020   6.688  0.6156 -0.3737  0.5780
   84MOL   C20336889   7.473   7.772   6.532 -0.1488  0.1168 -0.9828
   84MOL   C20436890   7.608   7.700   6.493  0.0469 -0.9740  0.0078
   84MOL   C20536891   7.604   7.562   6.561  0.2542 -0.4163  0.0582
   84MOL   C20636892   7.590   7.573   6.720  0.2632 -0.0552 -0.3340
   84MOL   C20736893   7.404   7.534   6.980  0.6357  0.3719  0.0125
   84MOL   H20836894   7.362   7.733   6.925  0.6078  0.6061 -0.8951
   84MOL   H20936895   7.375   7.609   6.720  0.6392  1.3868 -1.7620
   84MOL   H21036896   7.545   0.087   6.717 -2.5106  3.9547 -0.1984
   84MOL   H21136897   7.380   0.079   6.722 -0.6378 -0.8193 -1.6555
   84MOL   H21236898   7.387   7.714   6.498 -0.5453  0.4074 -0.4865
   84MOL   H21336899   7.469   0.095   6.480  1.9803  0.4531 -0.5460
   84MOL   H21436900   7.605   7.673   6.387  0.4235 -0.9494 -0.0091
   84MOL   H21536901   7.697   7.758   6.515 -0.0598 -0.4984 -0.7648
   84MOL   H21636902   7.516   7.510   6.522  0.4856 -0.7090 -0.0757
   84MOL   H21736903   7.693   7.504   6.537  0.8744  0.1506  0.9803
   84MOL   H21836904   7.586   7.472   6.761  1.5050 -0.9776 -2.3495
   84MOL   H21936905   7.679   7.606   6.774  1.0327 -1.0334 -0.9756
   84MOL   H22036906   7.436   7.445   6.926 -0.0180 -0.0668  0.3399
   84MOL   H22136907   7.441   7.523   7.082 -1.0703 -2.1321  0.4077
   84MOL   C22236908   7.247   7.515   6.995  0.3063 -0.8970 -0.0559
   84MOL   C22336909   7.165   7.618   7.090  0.0040  0.3020 -0.1755
   84MOL   C22436910   7.066   7.553   7.189  0.1889 -0.0651 -0.1898
   84MOL   C22536911   7.008   7.656   7.294 -0.1155  0.0787 -0.4183
   84MOL   C22636912   6.946   0.001   7.213  0.3956 -0.1653 -0.7469
   84MOL   C22736913   7.043   0.073   7.121  0.0820  0.1966  0.8193
   84MOL   C22836914   7.095   7.742   7.018 -0.1477  0.3384  0.7007
   84MOL   C22936915   7.177   7.494   6.863 -0.0513  0.1500  0.1464
   84MOL   H23036916   7.237   7.423   7.053 -2.9976 -0.9656 -0.6892
   84MOL   H23136917   7.245   7.663   7.150  1.0699 -1.6893 -0.0820
   84MOL   H23236918   6.982   7.506   7.139  0.2124  1.5788 -1.8501
   84MOL   H23336919   7.134   7.492   7.249  2.3082  0.4554 -2.0190
   84MOL   H23436920   7.093   7.691   7.352 -0.4221 -0.5188  0.4112
   84MOL   H23536921   6.942   7.607   7.365  0.5498 -1.7358 -1.0106
   84MOL   H23636922   6.868   7.725   7.155 -0.2145 -1.2599  0.9379
   84MOL   H23736923   6.902   0.075   7.280 -0.1139 -0.0966 -1.1568
   84MOL   H23836924   7.125   0.117   7.179  0.6317  0.1203  0.1054
   84MOL   H23936925   6.998   0.159   7.071  0.3197  0.4750  1.0754
   84MOL   H24036926   7.006   7.716   6.961  0.6927 -0.5844 -0.2305
   84MOL   H24136927   7.160   0.021   6.947 -0.9094 -0.5755 -0.6858
   84MOL   H24236928   7.161   7.589   6.811 -0.9546 -0.1234 -0.0939
   84MOL   H24336929   7.077   7.462   6.893 -0.7223  2.4550  0.4484
   84MOL   C24436930   7.223   7.370   6.771  0.5303  0.3165  0.4097
   84MOL   C24536931   7.158   7.361   6.631  0.3310 -0.2211 -0.1785
   84MOL   C24636932   7.192   7.475   6.532 -0.5530 -0.0388  0.0148
   84MOL   C24736933   7.129   7.456   6.399 -0.6414  0.3036 -0.5462
   84MOL   C24836934   6.978   7.451   6.395 -0.3234  0.2945 -0.1163
   84MOL   C24936935   6.942   7.335   6.493  0.0011 -0.1534  0.4899
   84MOL   C25036936   7.002   7.352   6.633 -0.0186 -0.6820  0.0895
   84MOL   C25136937   7.212   7.227   6.843 -0.4547 -0.2233 -0.3899
   84MOL   H25236938   7.325   7.394   6.740  0.6334 -1.1471 -0.4244
   84MOL   H25336939   7.194   7.270   6.583  2.1366 -0.2662  1.2205
   84MOL   H25436940   7.296   7.494   6.507 -1.4991  4.5675 -0.9111
   84MOL   H25536941   7.168   7.570   6.580  0.6158  0.7135 -0.8720
   84MOL   H25636942   7.164   7.530   6.327  1.0043  0.7666  0.6836
   84MOL   H25736943   7.171   7.361   6.366  1.0182  0.3004  1.4574
   84MOL   H25836944   6.936   7.544   6.432 -0.5977 -0.5566  1.7836
   84MOL   H25936945   6.941   7.434   6.294  0.1575 -2.5908  0.1309
   84MOL   H26036946   6.974   7.237   6.457  0.0967 -0.4724  1.4299
   84MOL   H26136947   6.834   7.320   6.506  0.5772 -5.3261  0.3705
   84MOL   H26236948   6.953   7.438   6.681 -1.0504  0.3225 -2.6783
   84MOL   H26336949   6.970   7.268   6.696 -0.7168 -0.2958  0.2631
   84MOL   H26436950   7.112   7.213   6.882 -0.5964  0.4159 -0.5208
   84MOL   H26536951   7.282   7.238   6.926  0.2235  0.7035 -1.0548
   84MOL   C26636952   7.261   7.104   6.769  0.3067 -0.5846  0.2182
   84MOL   C26736953   7.405   7.110   6.725  0.6203  0.5957  1.0589
   84MOL   C26836954   7.437   6.988   6.633  0.7037 -0.8897 -0.1719
   84MOL   C26936955   7.579   7.011   6.581  0.2054 -0.2815  0.1111
   84MOL   C27036956   7.684   7.010   6.689  0.1761  0.3495 -0.6728
   84MOL   C27136957   7.649   7.128   6.780  0.0121 -0.1012  0.6634
   84MOL   C27236958   7.510   7.121   6.834  0.0470  0.4068  0.7149
   84MOL   C27336959   7.232   6.982   6.862 -0.0918  0.1357  0.2875
   84MOL   H27436960   7.211   7.085   6.674  4.7555  0.8769 -2.5878
   84MOL   H27536961   7.405   7.194   6.656  0.4346  1.4432  2.0735
   84MOL   H27636962   7.442   6.900   6.696  1.7325 -0.3987  0.4585
   84MOL   H27736963   7.361   6.970   6.557  1.6995  2.8016 -2.2003
   84MOL   H27836964   7.583   7.114   6.546  0.3287 -0.3501 -0.0764
   84MOL   H27936965   7.602   6.954   6.490  1.1879  2.4475 -1.4117
   84MOL   H28036966   7.677   6.915   6.742 -2.3916  0.9858  0.2446
   84MOL   H28136967   0.008   7.034   6.645  0.2688 -1.7569 -1.6840
   84MOL   H28236968   7.667   7.224   6.731 -0.4638  0.2524  1.1737
   84MOL   H28336969   7.729   7.128   6.855  0.4127 -2.4572  0.2607
   84MOL   H28436970   7.497   7.218   6.882  0.7618  1.0988 -0.4541
   84MOL   H28536971   7.515   7.036   6.902 -1.1433 -0.1496  0.1238
   84MOL   H28636972   7.274   7.013   6.958 -0.4595 -2.2337  1.2529
   84MOL   H28736973   7.293   6.895   6.838  0.7775  1.2636 -1.6581
   84MOL   C28836974   7.083   6.931   6.890  0.2760  0.4489  0.6588
   84MOL   C28936975   7.052   6.881   7.034  0.5721 -0.1765  0.1337
   84MOL   C29036976   7.144   6.766   7.079 -0.1273 -0.7835  0.4173
   84MOL   C29136977   7.122   6.721   7.219 -1.3442 -0.3045 -0.0965
   84MOL   C29236978   7.153   6.836   7.311 -0.7102  0.0535  0.2105
   84MOL   C29336979   7.050   6.949   7.284  0.3652  0.7034  0.3681
   84MOL   C29436980   7.061   6.994   7.137 -0.2931 -0.4855 -0.2534
   84MOL   C29536981   7.036   6.826   6.785  0.0228 -0.0063  0.0485
   84MOL   H29636982   7.019   7.015   6.865 -0.3705 -0.5939 -1.3570
   84MOL   H29736983   6.947   6.856   7.043  0.8700 -2.0741 -1.2434
   84MOL   H29836984   7.121   6.686   7.009  2.1615  0.0766 -1.3504
   84MOL   H29936985   7.248   6.797   7.073 -0.3222  0.0460  1.1483
   84MOL   H30036986   7.020   6.681   7.229 -1.5472 -0.4848 -2.6592
   84MOL   H30136987   7.185   6.636   7.244  1.4422  1.8442  0.3794
   84MOL   H30236988   7.255   6.856   7.278 -0.6585 -0.8883 -0.2398
   84MOL   H30336989   7.168   6.799   7.412  1.7111 -0.4175 -0.2895
   84MOL   H30436990   7.053   7.037   7.347  0.9808  0.5706  0.5261
   84MOL   H30536991   6.949   6.907   7.291  0.5719 -0.0994 -1.1754
   84MOL   H30636992   7.159   7.041   7.140 -0.5754  0.1487 -0.6818
   84MOL   H30736993   6.990   7.076   7.122 -0.5936 -1.3677 -4.2534
   84MOL   H30836994   7.129   6.778   6.753 -0.5199  0.1402 -1.8439
   84MOL   H30936995   6.969   6.748   6.822  0.6347 -1.5744 -1.9998
   84MOL   C31036996   6.984   6.889   6.653 -0.2044  0.0788 -0.2828
   84MOL   C31136997   7.069   6.848   6.520  0.5561 -0.2088 -0.2516
   84MOL   C31236998   7.044   6.706   6.471  0.1710  0.1342  0.0462
   84MOL   C31336999   7.148   6.677   6.356 -0.7490 -0.2435  1.4530
   84MOL   C31437000   7.149   6.779   6.237 -0.8206 -0.2067  0.6926
   84MOL   C31537001   7.163   6.918   6.285  0.9186  0.3816 -0.1503
   84MOL   C31637002   7.061   6.949   6.399  0.2125  0.5989  0.5020
   84MOL   C31737003   6.834   6.861   6.625  0.0463 -0.7107  0.0345
   84MOL   H31837004   7.013   6.994   6.650  0.5556 -0.1186  0.0794
   84MOL   H31937005   7.169   6.853   6.563  0.6569  0.2167 -0.5431
   84MOL   H32037006   7.056   6.641   6.558 -1.0600  0.7323  0.6793
   84MOL   H32137007   6.943   6.696   6.429  0.1570 -2.7467  0.6429
   84MOL   H32237008   7.140   6.578   6.311  0.4426  0.2501  0.1190
   84MOL   H32337009   7.250   6.682   6.394 -0.1260  2.2270 -0.3909
   84MOL   H32437010   7.232   6.758   6.170  0.2185 -0.1894  1.9561
   84MOL   H32537011   7.052   6.773   6.188 -1.2214 -0.2215  1.4824
   84MOL   H32637012   7.265   6.942   6.315  0.6150  1.4951 -0.0007
   84MOL   H32737013   7.147   6.977   6.195  1.7738  3.2607  1.5280
   84MOL   H32837014   6.961   6.937   6.357  0.4191  1.8769 -0.4060
   84MOL   H32937015   7.075   7.054   6.426 -0.7139  0.4929  1.4136
   84MOL   H33037016   6.828   6.755   6.600  1.0415 -0.9092  0.5841
   84MOL   H33137017   6.809   6.901   6.527 -1.3609 -1.4302  0.0894
   84MOL   C33237018   6.727   6.894   6.733 -0.6678  0.2438 -0.0879
   84MOL   C33337019   6.592   6.818   6.709  0.0471 -0.2856  0.4552
   84MOL   C33437020   6.608   6.660   6.730  0.0152 -0.3245  0.4386
   84MOL   C33537021   6.479   6.584   6.693 -0.4678 -0.1309  0.0744
   84MOL   C33637022   6.420   6.623   6.553 -0.9200  0.6110 -0.2290
   84MOL   C33737023   6.394   6.775   6.553  0.6460  0.1161 -0.5537
   84MOL   C33837024   6.528   6.851   6.572  0.9225 -0.4761 -0.5897
   84MOL   C33937025   6.707   7.050   6.761 -0.4674  0.6734 -0.1363
   84MOL   H34037026   6.756   6.849   6.827  1.9095  1.2424 -0.3818
   84MOL   H34137027   6.531   6.845   6.794  0.4334  3.6056 -0.4207
   84MOL   H34237028   6.690   6.623   6.668 -1.2390 -0.2104 -1.3455
   84MOL   H34337029   6.641   6.641   6.832  0.2691 -2.7469 -0.0750
   84MOL   H34437030   6.502   6.478   6.694 -3.7018 -0.8959  1.2528
   84MOL   H34537031   6.408   6.597   6.775  1.1092  0.3868  1.3945
   84MOL   H34637032   6.477   6.587   6.468 -0.3487 -0.5054  0.6101
   84MOL   H34737033   6.327   6.573   6.528 -0.3177 -0.3953 -0.4693
   84MOL   H34837034   6.321   6.807   6.627  0.0996 -0.0709 -1.0136
   84MOL   H34937035   6.352   6.814   6.460  0.2964  1.5641  0.1982
   84MOL   H35037036   6.501   6.956   6.563  1.0911 -0.3872 -0.0554
   84MOL   H35137037   6.599   6.822   6.495  0.9154  0.2030 -0.8543
   84MOL   H35237038   6.684   7.067   6.656 -0.1646  0.0273 -0.3113
   84MOL   H35337039   6.805   7.097   6.770  0.1287 -0.4213 -0.8239
   84MOL   C35437040   6.596   7.097   6.864 -0.2759 -0.2573 -0.2980
   84MOL   C35537041   6.591   7.258   6.869 -0.1340  0.0952 -0.2900
   84MOL   C35637042   6.560   7.324   6.729  0.3606 -0.1865  0.1112
   84MOL   C35737043   6.547   7.481   6.741  0.5841  0.1395 -0.1920
   84MOL   C35837044   6.656   7.553   6.819 -0.3958  0.1274  0.4954
   84MOL   C35937045   6.695   7.469   6.949  0.5596  0.2390 -0.4215
   84MOL   C36037046   6.713   7.320   6.926  0.1051 -0.2033  0.0375
   84MOL   C36137047   6.608   7.043   7.011  0.0703  0.0903  0.6647
   84MOL   H36237048   6.506   7.067   6.810  0.5228 -1.6120 -0.8967
   84MOL   H36337049   6.515   7.294   6.938  0.6391  2.9122 -0.8449
   84MOL   H36437050   6.469   7.276   6.691 -0.0962 -0.1328  1.1259
   84MOL   H36537051   6.629   7.304   6.647  1.0893  0.0974  0.6609
   84MOL   H36637052   6.526   7.528   6.645  2.1326 -1.3933 -1.3007
   84MOL   H36737053   6.455   7.490   6.800 -0.0808 -0.3518 -1.1472
   84MOL   H36837054   6.749   7.552   6.762 -0.8423 -0.5517 -0.2369
   84MOL   H36937055   6.643   7.658   6.846 -0.5221  0.2264  0.0472
   84MOL   H37037056   6.793   7.502   6.981  1.0581 -2.3976  0.9258
   84MOL   H37137057   6.635   7.478   7.039  0.4118  0.3866 -0.5345
   84MOL   H37237058   6.743   7.283   7.024  0.5825 -0.8469 -0.3446
   84MOL   H37337059   6.791   7.292   6.855 -1.1333 -1.1131 -0.9776
   84MOL   H37437060   6.687   7.095   7.065 -0.9289  1.8633  0.4660
   84MOL   H37537061   6.643   6.940   7.016  0.4807  0.2194  0.3927
   84MOL   C37637062   6.477   7.040   7.097  0.2967 -0.3260 -0.2062
   84MOL   C37737063   6.362   6.953   7.037 -0.0522  0.6024 -0.5865
   84MOL   C37837064   6.226   6.988   7.097  0.2413 -0.0143 -0.2198
   84MOL   C37937065   6.113   6.902   7.031 -0.7223 -0.0614 -0.4153
   84MOL   C38037066   6.140   6.751   7.040  0.3549  0.4470  0.2485
   84MOL   C38137067   6.277   6.713   6.983 -0.1322 -0.0409  0.5043
   84MOL   C38237068   6.380   6.800   7.049 -0.0079 -0.2061 -0.5956
   84MOL   C38337069   6.499   7.009   7.244  0.4539  0.2728  0.7303
   84MOL   H38437070   6.452   7.146   7.092 -1.9556 -0.7986  0.2821
   84MOL   H38537071   6.365   6.980   6.931 -0.5033 -0.2324 -0.8156
   84MOL   H38637072   6.222   6.966   7.203  0.8825 -2.3393 -0.6504
   84MOL   H38737073   6.210   7.094   7.079  3.8707  0.5285 -0.5616
   84MOL   H38837074   6.106   6.928   6.925 -1.2863 -0.1260 -0.3976
   84MOL   H38937075   6.016   6.936   7.069  0.1866 -0.3286  2.2178
   84MOL   H39037076   6.135   6.716   7.143  0.2861 -1.6001 -0.4403
   84MOL   H39137077   6.057   6.700   6.992  0.4078 -0.2234  0.8658
   84MOL   H39237078   6.286   6.605   6.993  0.2200  0.1283  2.2188
   84MOL   H39337079   6.280   6.721   6.874  0.9208 -1.2569  0.4315
   84MOL   H39437080   6.385   6.764   7.152 -0.1495 -0.3218 -0.6284
   84MOL   H39537081   6.483   6.785   7.019  0.4173  3.9437 -1.4364
   84MOL   H39637082   6.522   6.903   7.257 -1.7477 -0.1785  1.1691
   84MOL   H39737083   6.401   7.026   7.288  0.4532 -1.0667  1.2837
   84MOL   C39837084   6.588   7.105   7.334  0.0334  0.2234  0.6254
   84MOL   C39937085   6.551   7.261   7.315  0.7441 -0.3718 -0.4647
   84MOL   C40037086   6.405   7.288   7.357 -0.2399  0.0593 -0.3542
   84MOL   C40137087   6.386   7.434   7.333 -0.2432  0.4323 -0.1611
   84MOL   C40237088   6.470   7.521   7.430 -0.4368 -0.0109  0.7283
   84MOL   C40337089   6.621   7.510   7.387 -0.3623  0.0297 -0.1385
   84MOL   C40437090   6.653   7.354   7.384 -0.2334 -0.5072 -0.1872
   84MOL   C40537091   6.583   7.051   7.483 -0.4625 -0.1736 -0.2046
   84MOL   H40637092   6.692   7.102   7.304  0.4873 -1.5521  2.2761
   84MOL   H40737093   6.559   7.297   7.212 -0.5921 -2.2659 -1.2549
   84MOL   H40837094   6.392   7.270   7.464  1.0093 -1.0042 -0.3636
   84MOL   H40937095   6.325   7.233   7.307 -0.5979 -0.7864  1.1139
   84MOL   H41037096   6.283   7.458   7.357  0.3775  3.3386 -0.1730
   84MOL   H41137097   6.392   7.437   7.224  0.8570  1.6630 -0.0935
   84MOL   H41237098   6.462   7.488   7.533  0.1154 -0.9416  0.4787
   84MOL   H41337099   6.443   7.626   7.423 -0.4751 -0.1342 -1.2023
   84MOL   H41437100   6.647   7.559   7.294  0.3762 -1.7008 -0.8670
   84MOL   H41537101   6.690   7.556   7.457  1.1267  1.0218 -2.2139
   84MOL   H41637102   6.755   7.333   7.351 -0.7513 -1.5249 -1.1840
   84MOL   H41737103   6.663   7.334   7.491  0.2544  0.5574 -0.0320
   84MOL   H41837104   6.592   7.137   7.548  1.5427 -1.3274  1.0994
   84MOL   H41937105   6.481   7.017   7.500 -0.1596 -1.9929 -1.8165
   84MOL   C42037106   6.681   6.947   7.534  0.2346 -0.0295 -0.3097
   84MOL   C42137107   6.623   6.874   7.658  0.2342  0.4907  0.0770
   84MOL   C42237108   6.612   6.970   0.010 -0.1831  0.2931 -0.2189
   84MOL   C42337109   6.555   6.895   0.128 -0.4102  0.3820 -0.4068
   84MOL   C42437110   6.640   6.767   0.164  0.3047 -0.6208  0.1730
   84MOL   C42537111   6.646   6.675   0.051 -0.4816  0.3476  0.9612
   84MOL   C42637112   6.703   6.743   7.698 -0.7793  0.2546  0.5047
   84MOL   C42737113   6.829   6.998   7.567  0.3598  0.4268 -0.1512
   84MOL   H42837114   6.688   6.874   7.453 -0.8552 -0.3703 -0.1092
   84MOL   H42937115   6.518   6.851   7.638  0.6510 -1.5576  0.0709
   84MOL   H43037116   6.712   6.997   0.043 -0.0418 -1.0226  0.4852
   84MOL   H43137117   6.553   7.058   7.756 -0.6239  0.2674  0.6582
   84MOL   H43237118   6.543   6.958   0.216 -1.7231  0.0672 -0.3483
   84MOL   H43337119   6.452   6.862   0.114  0.4389 -1.7863 -1.9026
   84MOL   H43437120   6.596   6.718   0.251 -0.2928 -1.4837 -0.6102
   84MOL   H43537121   6.744   6.796   0.178  0.2705 -0.3820 -0.0705
   84MOL   H43637122   6.546   6.641   0.024 -0.1331  0.6240 -0.7665
   84MOL   H43737123   6.705   6.586   0.075  0.4341  0.8390  0.5621
   84MOL   H43837124   6.805   6.769   7.727 -1.3530  2.0489  0.9741
   84MOL   H43937125   6.696   6.676   7.613  2.6568  1.0960 -0.5033
   84MOL   H44037126   6.899   6.917   7.588  0.6032  0.8750  0.8158
   84MOL   H44137127   6.864   7.058   7.483  0.2739  1.3806  0.4785
   84MOL   H44237128   6.833   7.067   7.652 -1.4401 -1.4809  1.5360
   85MOL     C137129   6.195   7.633   7.753  0.4731  0.2795 -0.3937
   85MOL     C237130   6.064   7.563   7.702  0.3942 -0.3525  0.5822
   85MOL     C337131   6.098   7.508   7.561 -0.2937 -0.4463  0.3910
   85MOL     C437132   5.993   7.428   7.489 -0.1165  0.2755  0.0170
   85MOL     C537133   5.867   7.511   7.486 -0.4721 -0.7415  0.6223
   85MOL     C637134   5.823   7.574   7.614  0.5494 -0.9252 -1.0445
   85MOL     C737135   5.939   7.656   7.687  0.1971  0.3567 -0.1064
   85MOL     C837136   6.197   7.684   0.124  0.0404  0.2217 -0.1176
   85MOL     H937137   6.275   7.560   7.744  0.9691  0.5189  1.6952
   85MOL    H1037138   6.057   7.479   7.771 -0.3110  0.5573  1.6458
   85MOL    H1137139   6.127   7.591   7.496  1.4828 -0.2552  1.3836
   85MOL    H1237140   6.192   7.454   7.573  0.0540  0.1925  0.5886
   85MOL    H1337141   5.987   7.331   7.537 -1.5283  0.5738  0.4716
   85MOL    H1437142   6.034   7.399   7.392  0.2726  0.2424  0.1901
   85MOL    H1537143   5.792   7.440   7.452 -0.7743  0.7163 -1.8855
   85MOL    H1637144   5.891   7.580   7.405 -2.5261  0.8262  1.3141
   85MOL    H1737145   5.737   7.638   7.596  1.4380  1.2790  2.1792
   85MOL    H1837146   5.784   7.501   7.685 -0.8018 -0.3033 -1.1270
   85MOL    H1937147   5.903   7.698   0.009  0.8510  1.7679 -0.4707
   85MOL    H2037148   5.953   7.741   7.620 -0.4527  0.8065  0.3158
   85MOL    H2137149   6.168   7.602   0.190 -1.5196  0.5985 -0.3040
   85MOL    H2237150   6.121   7.757   0.152  1.2690  1.3831  0.2077
   85MOL    H2337151   6.220   7.712   7.682  0.1398  0.4997 -0.2678
   85MOL    C2437152   6.325   7.741   0.177  0.1083 -0.4124 -0.2528
   85MOL    C2537153   6.307   0.064   0.291 -0.4358 -0.3440  0.0680
   85MOL    C2637154   6.227   0.006   0.411 -0.2531  0.5179  0.2864
   85MOL    C2737155   6.234   0.091   0.539  0.5564 -0.4875  0.1687
   85MOL    C2837156   6.194   0.236   0.505  0.7280 -0.2045 -0.2187
   85MOL    C2937157   6.266   0.295   0.386  0.0433 -0.5374  0.9792
   85MOL    C3037158   6.252   0.204   0.257  0.0450 -0.4442  0.0618
   85MOL    C3137159   6.439   7.641   0.191 -0.1092 -0.1683  0.0244
   85MOL    H3237160   6.356   0.030   0.092 -4.1714  0.4819 -1.2599
   85MOL    H3337161   6.404   0.086   0.336 -0.7055  1.1880 -0.0733
   85MOL    H3437162   6.265   7.684   0.451 -1.2895 -0.2115 -0.4430
   85MOL    H3537163   6.121   7.769   0.389 -0.0570  1.2023 -0.9925
   85MOL    H3637164   6.162   0.046   0.606  1.0181 -0.3161  0.7928
   85MOL    H3737165   6.336   0.088   0.578  0.2080 -3.2341  0.9133
   85MOL    H3837166   6.211   0.300   0.592  0.8063 -0.3008 -0.1634
   85MOL    H3937167   6.085   0.231   0.496  0.7349 -0.6748 -0.0073
   85MOL    H4037168   6.210   0.386   0.367  1.8002  0.2687 -0.4853
   85MOL    H4137169   6.373   0.314   0.396  0.0674  0.2832 -0.6505
   85MOL    H4237170   6.146   0.191   0.233  0.3366  1.4177 -2.4713
   85MOL    H4337171   6.288   0.261   0.171 -1.6147  0.9076  0.2211
   85MOL    H4437172   6.428   7.581   0.101 -0.1848  1.3383 -0.9963
   85MOL    H4537173   6.411   7.586   0.281  0.3462 -0.1013  0.2104
   85MOL    C4637174   6.582   7.700   0.178  0.1482  0.8141  0.7389
   85MOL    C4737175   6.609   0.016   0.053 -0.0554  0.4127 -0.0268
   85MOL    C4837176   6.562   7.726   7.688  0.1381 -0.5005  0.1047
   85MOL    C4937177   6.572   0.071   7.582 -0.5297  0.0139 -0.2748
   85MOL    C5037178   6.713   0.117   7.560 -0.1160  0.6752  0.6477
   85MOL    C5137179   6.764   0.175   7.694  0.1928  0.0496  0.5343
   85MOL    C5237180   6.756   0.063   0.035 -0.1641 -0.9668 -0.1214
   85MOL    C5337181   6.685   7.582   0.188 -1.1148 -0.1086  0.1979
   85MOL    H5437182   6.610   7.761   0.263  0.6436  0.2599  0.9849
   85MOL    H5537183   6.550   0.105   0.072 -1.6591 -0.2110 -1.9627
   85MOL    H5637184   6.621   7.642   7.652 -1.7950 -1.9641  0.2128
   85MOL    H5737185   6.457   7.694   7.689  0.0168 -0.1348 -0.7569
   85MOL    H5837186   6.502   0.149   7.614 -1.5306 -1.6765  1.7825
   85MOL    H5937187   6.527   0.044   7.486  2.9862 -2.1602 -1.3813
   85MOL    H6037188   6.780   0.034   7.538 -0.6837 -0.4815  3.1602
   85MOL    H6137189   6.728   0.187   7.477  1.7538  1.6920  1.8103
   85MOL    H6237190   6.696   0.252   7.729 -0.9528 -1.3237  1.3848
   85MOL    H6337191   6.867   0.211   7.689 -0.2422  0.9634 -2.7739
   85MOL    H6437192   6.825   7.756   0.007 -2.3509 -2.1852 -2.1779
   85MOL    H6537193   6.808   0.096   0.125  0.1878 -0.0145 -0.6661
   85MOL    H6637194   6.784   7.627   0.180 -0.4066 -1.6862 -0.2105
   85MOL    H6737195   6.680   7.514   0.103 -0.2894  1.6871 -1.3081
   85MOL    C6837196   6.687   7.492   0.312  0.5959  0.7401 -0.1339
   85MOL    C6937197   6.812   7.397   0.301 -0.1903 -0.1025 -0.0177
   85MOL    C7037198   6.801   7.285   0.191 -0.3465  0.2971 -0.0014
   85MOL    C7137199   6.930   7.204   0.182 -0.1619  0.1794 -0.5207
   85MOL    C7237200   7.059   7.280   0.171  0.2696 -1.0696  0.2021
   85MOL    C7337201   7.069   7.376   0.287  0.1962  0.1264  1.2046
   85MOL    C7437202   6.955   7.467   0.294 -0.1250 -0.0365  0.3403
   85MOL    C7537203   6.681   7.572   0.442 -0.1469 -0.0071 -0.1062
   85MOL    H7637204   6.603   7.422   0.311  1.0234  0.2316 -1.2809
   85MOL    H7737205   6.820   7.336   0.390 -0.3651  1.4388  1.0629
   85MOL    H7837206   6.785   7.339   0.097 -2.1379  1.9780  1.2268
   85MOL    H7937207   6.711   7.224   0.201 -0.7541  1.1406  1.7039
   85MOL    H8037208   6.949   7.138   0.266 -0.3895 -0.7883 -1.2198
   85MOL    H8137209   6.915   7.150   0.088 -1.9675 -0.6458  0.2190
   85MOL    H8237210   7.054   7.335   0.077  1.2450 -1.8922 -0.3433
   85MOL    H8337211   7.133   7.200   0.169  0.6402 -0.7677  1.4911
   85MOL    H8437212   7.151   7.446   0.277  1.8879 -1.3120  4.3926
   85MOL    H8537213   7.093   7.321   0.378  0.8447 -0.6773  0.5667
   85MOL    H8637214   6.960   7.535   0.209  0.6046  0.6187  0.9015
   85MOL    H8737215   6.956   7.531   0.382 -0.3937  0.3705  0.0497
   85MOL    H8837216   6.762   7.644   0.429 -0.6786  0.4154 -1.1824
   85MOL    H8937217   6.583   7.618   0.453 -0.3417  0.3020 -2.7477
   85MOL    C9037218   6.716   7.496   0.573  0.3236  0.2244 -0.2360
   85MOL    C9137219   6.759   7.594   0.684 -0.0671  0.1928 -0.4843
   85MOL    C9237220   6.911   7.626   0.666  0.3737  0.2910  0.1986
   85MOL    C9337221   6.958   7.713   0.779  0.2243 -0.9050  0.4996
   85MOL    C9437222   6.876   0.065   0.799  0.1028 -0.4203  0.4950
   85MOL    C9537223   6.726   0.033   0.827  0.3037 -0.2586 -0.2847
   85MOL    C9637224   6.669   7.713   0.715  0.4824  0.0648  0.2885
   85MOL    C9737225   6.592   7.415   0.621  0.0118  0.1806 -0.2202
   85MOL    H9837226   6.810   7.444   0.554  0.0075 -0.2407 -0.5277
   85MOL    H9937227   6.765   7.535   0.776  3.1783  0.8863 -0.2098
   85MOL   H10037228   6.926   7.682   0.574 -2.5440  1.4710  0.3705
   85MOL   H10137229   6.975   7.539   0.653  0.1630  0.2394 -0.5119
   85MOL   H10237230   7.064   7.736   0.762  0.0993 -0.0431  0.8391
   85MOL   H10337231   6.946   7.653   0.869 -1.2917 -0.4529  0.5999
   85MOL   H10437232   6.893   0.129   0.713  1.4615 -0.6142  0.6045
   85MOL   H10537233   6.922   0.123   0.879 -0.9007  0.4642  0.4494
   85MOL   H10637234   6.724   7.744   0.917  2.7067  0.5373  0.3412
   85MOL   H10737235   6.663   0.122   0.838 -0.0600 -0.6885  1.2152
   85MOL   H10837236   6.565   7.689   0.737  0.7676 -2.4492 -0.9628
   85MOL   H10937237   6.663   0.004   0.626 -1.0744 -0.7845 -0.2204
   85MOL   H11037238   6.516   7.485   0.658 -0.9343 -0.6856 -0.4885
   85MOL   H11137239   6.535   7.374   0.537  1.8949  0.4734 -1.6514
   85MOL   C11237240   6.613   7.293   0.717  0.5134 -0.4487  0.1228
   85MOL   C11337241   6.666   7.168   0.634  0.0377 -1.1480 -0.0928
   85MOL   C11437242   6.564   7.075   0.558  0.2997 -0.2020 -0.3636
   85MOL   C11537243   6.643   6.957   0.486 -0.3555 -1.1526 -0.7324
   85MOL   C11637244   6.735   6.882   0.585 -0.5270  0.0493  0.3459
   85MOL   C11737245   6.838   6.975   0.651  0.0404 -0.0473  0.2866
   85MOL   C11837246   6.768   7.084   0.721  0.3354  0.3375  0.2385
   85MOL   C11937247   6.488   7.264   0.800  0.8054 -0.1613 -0.1854
   85MOL   H12037248   6.694   7.318   0.786 -1.6096  2.1347  1.7404
   85MOL   H12137249   6.723   7.216   0.555  1.0567  0.6917  1.7271
   85MOL   H12237250   6.494   7.123   0.489 -1.2140  0.0249  1.2911
   85MOL   H12337251   6.489   7.027   0.622  0.9703 -0.2934  0.3605
   85MOL   H12437252   6.573   6.886   0.442 -1.5595 -0.2942 -0.2374
   85MOL   H12537253   6.701   6.995   0.402 -0.2369 -2.4224 -1.2344
   85MOL   H12637254   6.673   6.826   0.655 -3.7599  4.9345  1.5989
   85MOL   H12737255   6.793   6.802   0.538  0.2703  0.4604  0.6131
   85MOL   H12837256   6.907   6.916   0.712 -2.8880 -5.2265 -1.1137
   85MOL   H12937257   6.914   7.027   0.592 -0.0393 -1.3184 -0.9804
   85MOL   H13037258   6.843   7.154   0.759 -1.4256  1.3132  1.9854
   85MOL   H13137259   6.712   7.044   0.804 -0.4674  1.1006  0.0760
   85MOL   H13237260   6.489   7.159   0.830 -3.1643  0.2474  1.5770
   85MOL   H13337261   6.404   7.270   0.732  0.0629 -0.5557  0.6948
   85MOL   C13437262   6.483   7.359   0.920  0.0974  0.1915 -0.0259
   85MOL   C13537263   6.578   7.317   1.038 -0.1154 -0.1122  0.0918
   85MOL   C13637264   6.547   7.177   1.099 -0.2785  0.3860  0.1154
   85MOL   C13737265   6.645   7.147   1.218 -0.0862  0.4096 -0.4154
   85MOL   C13837266   6.658   7.262   1.320  0.3670 -0.1802 -0.1374
   85MOL   C13937267   6.686   7.399   1.255 -0.1143 -0.2074  0.3640
   85MOL   C14037268   6.577   7.430   1.144 -0.6671  0.4584  0.7482
   85MOL   C14137269   6.337   7.375   0.970  0.0580 -0.3605  0.3615
   85MOL   H14237270   6.519   7.455   0.883 -2.4078  1.2992  0.3494
   85MOL   H14337271   6.680   7.309   1.000 -0.8994  0.4691 -2.2208
   85MOL   H14437272   6.446   7.196   1.133  0.5963  2.1257  1.8901
   85MOL   H14537273   6.547   7.098   1.024 -0.3337  1.9001 -1.5288
   85MOL   H14637274   6.745   7.130   1.178  0.5264  0.9215  0.8839
   85MOL   H14737275   6.605   7.059   1.269  0.1007 -0.4219 -1.6758
   85MOL   H14837276   6.570   7.262   1.383 -0.2143 -4.6245 -0.8253
   85MOL   H14937277   6.741   7.240   1.388 -0.3389 -2.8991 -0.1028
   85MOL   H15037278   6.782   7.393   1.203  0.6205 -1.5210  1.7976
   85MOL   H15137279   6.685   7.482   1.326 -1.7011 -1.1441  1.4756
   85MOL   H15237280   6.480   7.445   1.192 -1.5674 -0.4909 -0.7242
   85MOL   H15337281   6.589   7.531   1.102 -0.0398  0.3901  0.7595
   85MOL   H15437282   6.329   7.388   1.078 -0.0682  0.4871  0.2545
   85MOL   H15537283   6.285   7.281   0.953 -1.5959  0.3743  1.1543
   85MOL   C15637284   6.260   7.486   0.900 -0.2820  0.1735 -0.0202
   85MOL   C15737285   6.308   7.628   0.943 -0.6647  0.1074  2.0098
   85MOL   C15837286   6.259   7.735   0.842 -0.3094  0.5031 -0.5829
   85MOL   C15937287   6.313   0.101   0.874  0.4870 -0.0827  0.6083
   85MOL   C16037288   6.270   0.143   1.020  0.0441 -0.4790  0.3384
   85MOL   C16137289   6.333   0.045   1.116 -0.9216 -0.0577  0.2219
   85MOL   C16237290   6.273   7.678   1.086  0.0738 -0.2161 -0.0178
   85MOL   C16337291   6.113   7.467   0.936 -0.1186  1.1163 -0.0577
   85MOL   H16437292   6.263   7.477   0.792 -1.3524 -0.1532 -0.0355
   85MOL   H16537293   6.417   7.626   0.940 -0.7341 -0.9340 -1.0851
   85MOL   H16637294   6.292   7.696   0.745  1.0361  0.5596 -0.1630
   85MOL   H16737295   6.150   7.741   0.837 -0.2990  0.2672 -1.1900
   85MOL   H16837296   6.422   0.097   0.869  0.3201 -2.7968 -1.6695
   85MOL   H16937297   6.279   0.181   0.809  1.7981 -0.4650 -0.5671
   85MOL   H17037298   6.161   0.144   1.026  0.0013 -3.9278  1.0631
   85MOL   H17137299   6.292   0.249   1.028 -1.1446 -0.3258  1.8060
   85MOL   H17237300   6.303   0.069   1.218 -0.1344 -0.1267  0.4722
   85MOL   H17337301   6.442   0.041   1.107 -0.6821  1.9855  2.0046
   85MOL   H17437302   6.303   7.607   1.162  1.0656  0.0555 -0.1578
   85MOL   H17537303   6.165   7.680   1.100 -0.0908 -1.7318 -0.8890
   85MOL   H17637304   6.062   7.563   0.931 -2.2813  0.0208  0.2621
   85MOL   H17737305   6.127   7.438   1.040 -3.0546  1.5362  0.5064
   85MOL   C17837306   6.026   7.373   0.850 -0.4320 -0.7319  0.4544
   85MOL   C17937307   5.911   7.311   0.926  0.4068  0.7790 -0.0257
   85MOL   C18037308   5.781   7.394   0.957 -0.7846 -0.6551  0.0564
   85MOL   C18137309   5.667   7.302   1.018  0.0376  0.3219 -0.1995
   85MOL   C18237310   5.719   7.231   1.146 -0.3932  0.4663 -0.5933
   85MOL   C18337311   5.838   7.145   1.105 -0.8874  0.4930  0.2216
   85MOL   C18437312   5.952   7.232   1.047 -0.2134  0.2280 -0.6847
   85MOL   C18537313   5.984   7.435   0.711 -0.1796 -0.4737 -0.0365
   85MOL   H18637314   6.106   7.301   0.829  2.1896  1.8188  1.3520
   85MOL   H18737315   5.876   7.237   0.854  1.3789 -0.7334  1.0193
   85MOL   H18837316   5.799   7.456   1.044 -0.8864  0.5095 -0.7440
   85MOL   H18937317   5.757   7.468   0.880 -0.5684 -0.3753  0.2583
   85MOL   H19037318   5.638   7.217   0.957 -1.0094 -0.5803  1.5096
   85MOL   H19137319   5.571   7.352   1.024 -1.8372 -3.1430  0.0454
   85MOL   H19237320   5.739   7.297   1.231 -1.6914 -1.9756  1.6741
   85MOL   H19337321   5.638   7.167   1.180 -0.4052  1.4905  1.4333
   85MOL   H19437322   5.811   7.072   1.028  1.5889  0.1327 -0.3692
   85MOL   H19537323   5.864   7.085   1.192 -0.2732  0.3664 -0.0417
   85MOL   H19637324   5.968   7.306   1.125  2.5051 -2.0240  0.9828
   85MOL   H19737325   6.039   7.168   1.040  1.1727  2.0416 -0.3408
   85MOL   H19837326   5.906   7.506   0.740 -1.7654 -1.5085 -1.7468
   85MOL   H19937327   6.060   7.503   0.674  2.6548 -1.9408  2.8191
   85MOL   C20037328   5.961   7.341   0.594  0.2531  0.2838 -0.1890
   85MOL   C20137329   5.878   7.390   0.474  0.1983  0.4901  0.2534
   85MOL   C20237330   5.732   7.397   0.527 -0.3717  0.1324  0.1568
   85MOL   C20337331   5.634   7.451   0.423 -0.2778 -0.1162  0.2068
   85MOL   C20437332   5.683   7.588   0.390 -0.0989  0.0078  0.3226
   85MOL   C20537333   5.812   7.584   0.315  0.1231 -0.3349 -0.1317
   85MOL   C20637334   5.918   7.528   0.410  0.1210 -0.8117  0.9438
   85MOL   C20737335   6.101   7.298   0.541  0.0468  0.0336  0.4144
   85MOL   H20837336   5.916   7.250   0.633 -1.0462  1.3703  0.8760
   85MOL   H20937337   5.878   7.323   0.388  0.9995  1.7378 -0.7372
   85MOL   H21037338   5.715   7.469   0.607 -0.1439  2.0099 -1.4448
   85MOL   H21137339   5.693   7.302   0.564 -1.8317  0.9982  0.8628
   85MOL   H21237340   5.627   7.396   0.328  1.2487  1.1873 -0.6779
   85MOL   H21337341   5.536   7.454   0.470 -0.3048 -1.3410  0.2388
   85MOL   H21437342   5.616   7.636   0.318  0.1293 -0.9972 -0.5706
   85MOL   H21537343   5.691   7.659   0.473 -0.9616  3.3782 -2.3590
   85MOL   H21637344   5.797   7.525   0.224  1.8265 -0.4806 -0.3357
   85MOL   H21737345   5.838   7.681   0.273 -1.3764  0.1765  0.0756
   85MOL   H21837346   6.017   7.515   0.367 -0.5636 -3.0974 -0.0236
   85MOL   H21937347   5.914   7.596   0.495 -1.7710  1.7729 -1.1459
   85MOL   H22037348   6.146   7.381   0.486  1.8665  0.3541  2.3411
   85MOL   H22137349   6.177   7.276   0.616  1.5477  1.7310 -0.5394
   85MOL   C22237350   6.100   7.175   0.442 -0.6282  0.9419  0.6801
   85MOL   C22337351   6.160   7.220   0.304  0.2485 -0.1169  0.4018
   85MOL   C22437352   6.102   7.128   0.192 -0.3462 -0.3396 -0.0193
   85MOL   C22537353   6.140   7.186   0.057  0.5042  0.4248 -0.5037
   85MOL   C22637354   6.293   7.196   0.046  0.5010 -0.3412 -0.4861
   85MOL   C22737355   6.352   7.289   0.156  0.4607 -0.1575 -0.1881
   85MOL   C22837356   6.317   7.234   0.301  0.7318  0.0632 -0.0681
   85MOL   C22937357   6.168   7.048   0.508  0.2292 -0.1942  2.1215
   85MOL   H23037358   5.998   7.141   0.426 -1.1890  2.1424  1.6087
   85MOL   H23137359   6.126   7.320   0.279  1.4823  0.7399  2.0701
   85MOL   H23237360   6.137   7.026   0.211  1.3614  0.3414  0.6130
   85MOL   H23337361   5.994   7.121   0.190 -0.3344 -0.6576  0.5128
   85MOL   H23437362   6.091   7.281   0.037 -2.5280 -0.4755  2.1927
   85MOL   H23537363   6.088   7.117   7.763 -1.6312  1.2214  0.3206
   85MOL   H23637364   6.339   7.097   0.046  1.0448 -0.0866 -0.6374
   85MOL   H23737365   6.326   7.249   7.730  2.3756  0.9304  0.9494
   85MOL   H23837366   6.303   7.381   0.127  0.7808 -0.1101 -0.5823
   85MOL   H23937367   6.460   7.301   0.151  0.5899 -0.6572  1.1522
   85MOL   H24037368   6.360   7.134   0.312  0.4882 -0.1289 -0.8218
   85MOL   H24137369   6.356   7.303   0.376  1.1273 -0.2705  0.0392
   85MOL   H24237370   6.263   7.096   0.531 -0.4188  2.5214 -0.6355
   85MOL   H24337371   6.196   6.976   0.431  0.6333 -1.6788  3.6162
   85MOL   C24437372   6.083   6.984   0.623 -0.2555  0.1565  0.0667
   85MOL   C24537373   6.159   6.914   0.729 -0.6208 -0.7793 -0.7982
   85MOL   C24637374   6.207   7.009   0.839  0.4717 -0.3928 -0.1125
   85MOL   C24737375   6.269   6.937   0.958  0.8266 -0.1002  0.4101
   85MOL   C24837376   6.387   6.856   0.896 -0.2616  0.8325  0.4856
   85MOL   C24937377   6.336   6.755   0.796  0.7791  0.4876 -0.0185
   85MOL   C25037378   6.269   6.819   0.678 -0.5741  0.0742 -0.0481
   85MOL   C25137379   5.977   6.889   0.552  0.2595  0.5344  0.2703
   85MOL   H25237380   6.029   7.065   0.672  1.2012  0.8202  0.5740
   85MOL   H25337381   6.082   6.863   0.787 -0.3048  0.1133  0.4255
   85MOL   H25437382   6.126   7.072   0.876  0.4100 -1.0101  0.8175
   85MOL   H25537383   6.285   7.076   0.803  0.4569  0.2716  1.0916
   85MOL   H25637384   6.304   7.012   1.029  0.8256  1.4659 -1.2300
   85MOL   H25737385   6.194   6.875   1.007  0.1084 -1.2486 -2.0646
   85MOL   H25837386   6.460   6.928   0.859 -0.8683 -0.6415 -3.8310
   85MOL   H25937387   6.432   6.797   0.977 -0.6466 -0.4516 -0.2137
   85MOL   H26037388   6.265   6.682   0.834  0.3027  1.1687  0.3983
   85MOL   H26137389   6.420   6.696   0.758  1.0055  1.2589 -0.7348
   85MOL   H26237390   6.348   6.851   0.610 -1.2015  0.9918 -0.3511
   85MOL   H26337391   6.224   6.736   0.623 -0.0727  0.5339 -1.1732
   85MOL   H26437392   6.028   6.803   0.507  2.7477  0.7466  2.5453
   85MOL   H26537393   5.931   6.950   0.476 -0.3489  2.0245  1.8093
   85MOL   C26637394   5.858   6.842   0.640  0.2155 -0.2820  0.0216
   85MOL   C26737395   5.718   6.853   0.563 -0.5509 -0.0399  0.1824
   85MOL   C26837396   5.724   6.790   0.418 -0.0175  0.7433  0.9291
   85MOL   C26937397   5.596   6.805   0.342 -0.4388 -0.1128 -0.9850
   85MOL   C27037398   5.568   6.950   0.330  0.3351  0.4233  0.4092
   85MOL   C27137399   5.548   7.010   0.469 -0.9017 -0.8444 -0.2082
   85MOL   C27237400   5.679   6.999   0.550 -0.2855 -0.7580 -0.0147
   85MOL   C27337401   5.867   6.694   0.689  0.1499  0.4473 -0.7201
   85MOL   H27437402   5.859   6.906   0.728  2.0449 -2.2366  1.4895
   85MOL   H27537403   5.638   6.804   0.617 -1.3775 -1.0422 -1.9133
   85MOL   H27637404   5.804   6.836   0.361  0.4386  0.4106  1.2968
   85MOL   H27737405   5.741   6.683   0.427  0.3691  0.6666 -0.6946
   85MOL   H27837406   5.509   6.761   0.390  0.5198  1.0842  1.9769
   85MOL   H27937407   5.600   6.769   0.239 -1.8462  3.2551 -2.3107
   85MOL   H28037408   5.649   7.004   0.282 -0.0636  3.2556  2.8081
   85MOL   H28137409   5.481   6.958   0.265  1.3798  1.4365 -0.8588
   85MOL   H28237410   5.457   6.962   0.506 -0.0426  0.0595  3.3049
   85MOL   H28337411   5.524   7.116   0.465 -1.0263 -0.8988 -0.8483
   85MOL   H28437412   5.661   7.044   0.648  1.9289  0.7562 -0.2561
   85MOL   H28537413   5.751   7.065   0.502 -2.4931  0.6704 -1.4500
   85MOL   H28637414   5.972   6.698   0.719  0.2656  1.4305 -1.2269
   85MOL   H28737415   5.863   6.620   0.610 -2.5854  0.2506 -0.4281
   85MOL   C28837416   5.771   6.657   0.802 -0.5648  0.0291  0.0316
   85MOL   C28937417   5.825   6.684   0.945  0.1412 -0.1402  0.2329
   85MOL   C29037418   5.718   6.714   1.055  0.7189  0.0470  0.2564
   85MOL   C29137419   5.778   6.765   1.184  0.2017 -0.1988 -0.3493
   85MOL   C29237420   5.887   6.665   1.242  0.1144  0.1386  0.1606
   85MOL   C29337421   5.995   6.634   1.134 -0.0087  0.0104  0.1844
   85MOL   C29437422   5.929   6.586   1.003 -0.4071 -0.6012 -0.0632
   85MOL   C29537423   5.718   6.519   0.778 -0.1829  0.4992  0.0880
   85MOL   H29637424   5.690   6.728   0.791 -1.9963 -1.4460  0.7762
   85MOL   H29737425   5.887   6.773   0.938 -1.5517  1.0399 -0.2665
   85MOL   H29837426   5.653   6.791   1.012 -0.6913  0.4327  2.9934
   85MOL   H29937427   5.662   6.625   1.082 -1.4464  1.5803  0.9769
   85MOL   H30037428   5.839   6.855   1.178 -0.3626  0.5692  4.2470
   85MOL   H30137429   5.705   6.784   1.262  1.9457 -0.3906  1.3798
   85MOL   H30237430   5.827   6.579   1.270 -0.0230  0.2683  0.2688
   85MOL   H30337431   5.932   6.712   1.329  1.0861  0.9980 -0.7803
   85MOL   H30437432   6.055   6.558   1.184 -1.4628 -1.6465 -0.5429
   85MOL   H30537433   6.058   6.722   1.125 -0.0317  0.0975  0.8018
   85MOL   H30637434   5.889   6.486   1.020 -1.4733 -0.0678  0.6393
   85MOL   H30737435   6.006   6.566   0.929 -0.4966 -2.1242  0.2448
   85MOL   H30837436   5.681   6.511   0.676  3.4451 -4.7704 -1.0478
   85MOL   H30937437   5.798   6.445   0.783  0.2340  0.8179 -1.5978
   85MOL   C31037438   5.592   6.472   0.851 -0.0325  1.0552 -0.2266
   85MOL   C31137439   5.472   6.567   0.844 -0.4539 -0.8057  0.4455
   85MOL   C31237440   5.416   6.586   0.699  0.9435  1.1002  0.1576
   85MOL   C31337441   5.309   6.693   0.691  0.7436 -0.0662 -0.3153
   85MOL   C31437442   5.196   6.663   0.778  0.4976  0.2674  0.7437
   85MOL   C31537443   5.239   6.630   0.919 -0.4149  0.0279  0.6292
   85MOL   C31637444   5.354   6.520   0.934 -0.4563  0.8935  0.0803
   85MOL   C31737445   5.552   6.322   0.811  0.2580  0.2024  0.0127
   85MOL   H31837446   5.621   6.472   0.956  2.0083 -0.3543 -0.7623
   85MOL   H31937447   5.504   6.666   0.878  0.8210 -0.9784 -0.2002
   85MOL   H32037448   5.492   6.618   0.628  0.5596 -0.0900 -0.8026
   85MOL   H32137449   5.391   6.485   0.669 -1.0766  1.5465  0.2637
   85MOL   H32237450   5.271   6.692   0.589 -3.4476  1.1098  1.1372
   85MOL   H32337451   5.354   6.785   0.728 -0.1510  0.1011  0.3564
   85MOL   H32437452   5.113   6.733   0.765  0.4189  0.5123  2.5405
   85MOL   H32537453   5.145   6.576   0.735 -1.3711  0.3074  2.7790
   85MOL   H32637454   5.283   6.714   0.974 -1.1139 -0.0152  1.2557
   85MOL   H32737455   5.146   6.609   0.971 -1.5745  0.9523 -1.0326
   85MOL   H32837456   5.313   6.425   0.901  1.9988 -0.0362 -0.3793
   85MOL   H32937457   5.384   6.520   1.039 -1.3007 -0.8614  0.3378
   85MOL   H33037458   5.558   6.325   0.702 -1.2164 -0.5043 -0.1027
   85MOL   H33137459   5.449   6.290   0.827  0.0296  0.8358 -0.1551
   85MOL   C33237460   5.640   6.212   0.867 -0.5474 -0.3318 -0.5145
   85MOL   C33337461   5.680   6.109   0.757 -0.9385  0.6005  0.1232
   85MOL   C33437462   5.753   6.165   0.637 -0.4474 -1.2926 -0.3456
   85MOL   C33537463   5.808   6.052   0.554 -0.6505 -0.0287 -0.3427
   85MOL   C33637464   5.694   5.970   0.499 -0.0240  0.1591 -0.7089
   85MOL   C33737465   5.621   5.908   0.615 -0.7585  0.5342  0.2354
   85MOL   C33837466   5.566   6.015   0.707 -0.1233 -0.2792  0.4704
   85MOL   C33937467   5.586   6.146   0.998  0.5685 -0.2063  0.4005
   85MOL   H34037468   5.735   6.261   0.887 -0.7232 -0.4396  0.6226
   85MOL   H34137469   5.747   6.048   0.818 -2.0185 -3.7170 -2.7841
   85MOL   H34237470   5.696   6.241   0.584 -1.2739 -0.4868  1.6341
   85MOL   H34337471   5.840   6.218   0.676  0.0458 -1.4098 -1.2773
   85MOL   H34437472   5.855   6.107   0.473 -0.1093 -0.9308 -0.6389
   85MOL   H34537473   5.874   5.997   0.620  0.6553  0.2371 -1.4160
   85MOL   H34637474   5.631   6.035   0.438 -1.7810  0.1279  1.0311
   85MOL   H34737475   5.729   5.892   0.431 -1.5413 -2.2516  1.2128
   85MOL   H34837476   5.682   5.834   0.665  0.0443  1.0126 -0.0252
   85MOL   H34937477   5.536   5.854   0.573 -0.3232 -0.4349  0.6078
   85MOL   H35037478   5.508   5.972   0.788 -0.1071  2.6907  2.1446
   85MOL   H35137479   5.487   6.065   0.651 -0.0873 -1.6910 -0.8754
   85MOL   H35237480   5.604   6.039   0.994  0.9880 -0.0965 -0.6711
   85MOL   H35337481   5.478   6.153   0.984  0.9058  1.5052 -1.5067
   85MOL   C35437482   5.632   6.196   1.136  0.4306 -0.3496  0.2766
   85MOL   C35537483   5.783   6.184   1.158 -0.3422  0.6762  0.2562
   85MOL   C35637484   5.838   6.041   1.153  0.0020 -0.3146  0.2291
   85MOL   C35737485   5.989   6.043   1.176  0.1262 -0.9081  0.5644
   85MOL   C35837486   6.041   6.119   1.300 -0.1133 -0.1974 -0.1607
   85MOL   C35937487   5.988   6.261   1.297  0.0829  0.1719 -0.1817
   85MOL   C36037488   5.831   6.259   1.281  0.1491 -0.2065 -0.6143
   85MOL   C36137489   5.535   6.129   1.235 -0.2870 -0.6344  1.0188
   85MOL   H36237490   5.607   6.301   1.125 -0.1585 -0.5131  0.0501
   85MOL   H36337491   5.830   6.226   1.069  0.9965  1.4613  1.3051
   85MOL   H36437492   5.828   5.995   1.055  0.7529 -0.9424  0.4389
   85MOL   H36537493   5.789   5.976   1.225  1.6084 -1.0024  0.7192
   85MOL   H36637494   6.023   5.939   1.174  2.5531 -0.1473  0.9745
   85MOL   H36737495   6.037   6.097   1.095 -1.7872  0.9012  0.5966
   85MOL   H36837496   6.006   6.064   1.388  0.6907 -0.0507  0.2570
   85MOL   H36937497   6.150   6.117   1.305 -0.2051 -0.9635  2.2959
   85MOL   H37037498   6.014   6.322   1.384  0.6923 -0.0071 -0.2385
   85MOL   H37137499   6.036   6.315   1.216  0.9132 -1.1911 -0.6165
   85MOL   H37237500   5.792   6.362   1.277 -0.2492 -0.3525 -0.5425
   85MOL   H37337501   5.788   6.216   1.371  2.1888  0.9379  0.9346
   85MOL   H37437502   5.598   6.092   1.316  1.0378 -1.5900 -0.4180
   85MOL   H37537503   5.488   6.041   1.191 -1.0398  0.2482  0.0484
   85MOL   C37637504   5.415   6.221   1.288  0.1842  0.3357  0.3050
   85MOL   C37737505   5.277   6.148   1.302  0.0040 -0.0397 -0.0506
   85MOL   C37837506   5.300   6.036   1.405 -0.0222  0.3530  0.6512
   85MOL   C37937507   5.159   5.968   1.426 -0.5358  0.8166  0.4888
   85MOL   C38037508   5.102   5.906   1.294 -0.9049 -0.3254 -0.1700
   85MOL   C38137509   5.090   6.017   1.189  0.2799 -0.2485  0.4456
   85MOL   C38237510   5.222   6.095   1.172  1.5971  0.0559 -0.3087
   85MOL   C38337511   5.472   6.310   1.408 -0.3568 -0.2753  0.2219
   85MOL   H38437512   5.394   6.287   1.203 -0.2146 -0.0661  0.0858
   85MOL   H38537513   5.201   6.209   1.351 -0.5022 -1.2481  0.6664
   85MOL   H38637514   5.356   5.950   1.368  0.2106  0.5951  0.4380
   85MOL   H38737515   5.346   6.057   1.501  1.1275  0.1270  0.1654
   85MOL   H38837516   5.094   6.046   1.467 -0.0543  1.6920 -0.4158
   85MOL   H38937517   5.171   5.893   1.504  3.4197 -0.6377 -1.3926
   85MOL   H39037518   5.169   5.823   1.271  0.1331  0.9918 -1.9402
   85MOL   H39137519   5.004   5.862   1.315 -1.0532  0.8287  1.6395
   85MOL   H39237520   5.055   5.976   1.094  0.3265 -2.7721  1.4736
   85MOL   H39337521   5.016   6.081   1.238 -0.0691  0.0256 -0.4228
   85MOL   H39437522   5.291   6.029   1.119  0.4796  0.6356 -2.5698
   85MOL   H39537523   5.203   6.185   1.113 -0.2347  0.0896  0.3158
   85MOL   H39637524   5.570   6.348   1.381 -0.6340  0.6796  0.5632
   85MOL   H39737525   5.500   6.240   1.487 -1.4509 -0.9355  0.0413
   85MOL   C39837526   5.386   6.424   1.461  1.0973 -0.0899 -0.9389
   85MOL   C39937527   5.377   6.448   1.616  0.4355  0.5265  0.3653
   85MOL   C40037528   5.301   6.340   1.681 -0.4586  0.4289  0.4877
   85MOL   C40137529   5.266   6.373   1.826 -0.0041 -1.2006  0.5436
   85MOL   C40237530   5.393   6.402   1.915  0.2140  0.3443 -0.3587
   85MOL   C40337531   5.470   6.513   1.849  0.3713 -0.4967 -0.3370
   85MOL   C40437532   5.502   6.473   1.703 -1.2779 -0.0642  0.0115
   85MOL   C40537533   5.428   6.552   1.383  0.5669 -0.2730 -0.2209
   85MOL   H40637534   5.285   6.404   1.427  0.0296  1.3655  1.2915
   85MOL   H40737535   5.305   6.527   1.636 -0.2250  0.0249 -0.0111
   85MOL   H40837536   5.354   6.247   1.657 -0.1478  0.6088  0.4708
   85MOL   H40937537   5.203   6.326   1.635  0.6194 -2.1332 -1.1469
   85MOL   H41037538   5.204   6.299   1.876 -2.9042 -0.4148 -1.7287
   85MOL   H41137539   5.198   6.459   1.825  0.3704 -0.8967  1.0625
   85MOL   H41237540   5.452   6.311   1.927 -0.4420 -0.2970 -1.8355
   85MOL   H41337541   5.372   6.435   2.017 -1.9140  4.6982 -2.0929
   85MOL   H41437542   5.417   6.608   1.857  2.1462  0.5487 -0.5217
   85MOL   H41537543   5.562   6.533   1.904  0.0671  0.0275 -0.0126
   85MOL   H41637544   5.553   6.559   1.659  0.4674 -1.1727 -0.1240
   85MOL   H41737545   5.569   6.389   1.687  0.1011  0.9583  0.3034
   85MOL   H41837546   5.532   6.568   1.413 -0.1290 -0.0803  2.1954
   85MOL   H41937547   5.438   6.522   1.279 -3.0157  1.4952 -1.1383
   85MOL   C42037548   5.340   6.679   1.403 -0.3347  0.0296  0.1071
   85MOL   C42137549   5.183   6.649   1.395 -0.3146 -0.1247 -0.1257
   85MOL   C42237550   5.138   6.623   1.256 -0.2688 -0.1114 -0.0030
   85MOL   C42337551   4.993   6.562   1.249  0.2269 -0.7277 -0.3392
   85MOL   C42437552   4.892   6.654   1.308 -0.4046 -1.0090 -0.3263
   85MOL   C42537553   4.935   6.704   1.452 -0.2430 -0.1744  0.3316
   85MOL   C42637554   5.089   6.754   1.453 -0.1463  0.0123  0.2896
   85MOL   C42737555   5.378   6.790   1.307 -0.3686 -0.0877 -0.2818
   85MOL   H42837556   5.361   6.712   1.505  0.5805 -1.5470  0.4531
   85MOL   H42937557   5.158   6.561   1.454 -0.2383 -0.4594 -0.5879
   85MOL   H43037558   5.143   6.716   1.200  1.7174  0.1546  0.5765
   85MOL   H43137559   5.210   6.551   1.216 -1.0305 -0.7229 -0.2756
   85MOL   H43237560   4.960   6.538   1.148 -1.8246  0.2852  0.0581
   85MOL   H43337561   4.998   6.467   1.303  0.1454  0.1695  1.2831
   85MOL   H43437562   4.792   6.616   1.324 -0.2014 -0.8317  1.5159
   85MOL   H43537563   4.872   6.735   1.237  2.1141  0.3032  0.3922
   85MOL   H43637564   4.923   6.626   1.527 -0.3667  0.5263  1.0503
   85MOL   H43737565   4.870   6.788   1.476  1.3638  0.6980  1.7363
   85MOL   H43837566   5.094   6.854   1.410 -1.5528 -1.1111 -2.6095
   85MOL   H43937567   5.131   6.752   1.554 -0.5201 -0.0697  0.4441
   85MOL   H44037568   5.372   6.761   1.202 -0.5319  0.0708 -0.3165
   85MOL   H44137569   5.315   6.877   1.325  1.5360  1.0121  1.3227
   85MOL   H44237570   5.483   6.813   1.323 -0.7452 -0.5323  3.3727
   86MOL     C137571   1.359   2.192   1.865  0.5486  0.7512 -0.2215
   86MOL     C237572   1.447   2.301   1.800 -0.2379  0.5468  0.7406
   86MOL     C337573   1.563   2.363   1.884  0.5005 -0.1300 -0.7220
   86MOL     C437574   1.628   2.481   1.807 -0.9238  0.0693 -0.3320
   86MOL     C537575   1.529   2.595   1.762 -0.1980  0.3835 -0.4825
   86MOL     C637576   1.421   2.532   1.672 -0.0376  0.0149  0.0578
   86MOL     C737577   1.355   2.413   1.745 -0.5688 -0.1071  0.1685
   86MOL     C837578   1.424   2.055   1.846  0.2524 -0.3440 -0.2366
   86MOL     H937579   1.344   2.220   1.969  0.6494  1.3276 -0.3614
   86MOL    H1037580   1.492   2.252   1.713  1.1429  3.0287  0.0128
   86MOL    H1137581   1.520   2.403   1.976 -1.0990 -1.2926 -0.9369
   86MOL    H1237582   1.645   2.296   1.907  0.4192 -0.5043 -1.4862
   86MOL    H1337583   1.684   2.447   1.719 -0.1371  0.2172  0.1085
   86MOL    H1437584   1.707   2.527   1.867 -0.0407  0.7763 -1.9866
   86MOL    H1537585   1.587   2.668   1.706  2.4734 -0.5308  0.9773
   86MOL    H1637586   1.486   2.655   1.842  1.0770 -1.5310  1.7003
   86MOL    H1737587   1.348   2.605   1.636 -1.7472 -1.5637  0.3091
   86MOL    H1837588   1.467   2.499   1.579  1.0252 -0.2462  0.6670
   86MOL    H1937589   1.278   2.367   1.682  2.2900 -2.1434 -1.9687
   86MOL    H2037590   1.294   2.449   1.828  0.3304  1.8028  0.0296
   86MOL    H2137591   1.530   2.056   1.870 -0.0423  0.3142  1.0703
   86MOL    H2237592   1.422   2.030   1.739 -0.8819  1.0350 -0.5416
   86MOL    H2337593   1.259   2.197   1.822  0.7565  1.6425 -0.6121
   86MOL    C2437594   1.360   1.946   1.938  0.1068 -0.3128 -0.0045
   86MOL    C2537595   1.395   1.958   2.092  0.3182 -0.2037  0.2124
   86MOL    C2637596   1.522   2.032   2.121 -0.0080 -0.3568  0.5466
   86MOL    C2737597   1.542   2.045   2.276 -0.2835  0.1760 -0.3380
   86MOL    C2837598   1.535   1.913   2.351  0.2288  0.1848  0.7174
   86MOL    C2937599   1.408   1.838   2.319 -0.0774 -0.2390 -0.0480
   86MOL    C3037600   1.390   1.823   2.167  0.2661  0.1486 -0.1035
   86MOL    C3137601   1.206   1.909   1.913 -1.1211 -0.1000 -0.0215
   86MOL    H3237602   1.426   1.864   1.911  1.1296  0.9333 -1.3833
   86MOL    H3337603   1.320   2.015   2.146 -0.4335 -1.7859  0.8676
   86MOL    H3437604   1.514   2.134   2.084  0.4498 -0.2395  0.7671
   86MOL    H3537605   1.616   1.994   2.081  0.2821  0.5460  0.3608
   86MOL    H3637606   1.638   2.094   2.296 -0.2825  0.2031 -0.4076
   86MOL    H3737607   1.463   2.107   2.317  0.8517  1.4409 -0.0222
   86MOL    H3837608   1.560   1.927   2.456 -1.9609 -1.0002  1.4230
   86MOL    H3937609   1.622   1.858   2.314  0.2787  1.0655 -0.4914
   86MOL    H4037610   1.407   1.747   2.380  1.5456 -0.5764 -0.4955
   86MOL    H4137611   1.321   1.893   2.355 -1.5920 -3.2724  1.0748
   86MOL    H4237612   1.467   1.765   2.115 -0.7137 -1.0153 -0.2807
   86MOL    H4337613   1.305   1.760   2.141 -0.9119  1.1488  1.2329
   86MOL    H4437614   1.152   2.003   1.922 -0.2083  0.4712 -0.4516
   86MOL    H4537615   1.162   1.835   1.979  1.1220 -1.5926 -0.1278
   86MOL    C4637616   1.165   1.853   1.773  0.3629 -0.1626 -0.0571
   86MOL    C4737617   1.002   1.866   1.747  0.4144  0.0811 -0.1751
   86MOL    C4837618   0.916   1.746   1.805  0.0686 -0.1347  0.0603
   86MOL    C4937619   0.780   1.738   1.750  0.0883 -0.7027  0.0939
   86MOL    C5037620   0.771   1.777   1.598  0.1866  0.0973  0.1863
   86MOL    C5137621   0.838   1.910   1.568  0.8276 -0.3404 -0.2472
   86MOL    C5237622   0.984   1.897   1.602 -0.9538  0.0232 -0.1056
   86MOL    C5337623   1.228   1.711   1.744  0.6065  0.1171 -0.3908
   86MOL    H5437624   1.215   1.923   1.706 -1.2514  0.9055 -0.1701
   86MOL    H5537625   0.967   1.958   1.795  0.5439 -0.0888  0.2444
   86MOL    H5637626   0.969   1.656   1.773 -2.0569 -1.8105  1.0903
   86MOL    H5737627   0.933   1.742   1.913 -0.0717 -1.1908  0.0472
   86MOL    H5837628   0.720   1.814   1.800  0.3978 -1.6792  1.9771
   86MOL    H5937629   0.736   1.641   1.773 -1.5310 -0.1989 -0.8077
   86MOL    H6037630   0.805   1.700   1.529 -2.0890  0.6702 -1.6163
   86MOL    H6137631   0.667   1.786   1.567  0.6562 -1.2311 -1.8226
   86MOL    H6237632   0.792   1.992   1.623  0.1758 -0.4377 -0.6328
   86MOL    H6337633   0.831   1.939   1.463  0.0398  0.9734  0.1531
   86MOL    H6437634   1.035   1.818   1.547 -1.0022 -0.6394  0.7763
   86MOL    H6537635   1.034   1.989   1.573 -2.8739  0.9924 -0.4055
   86MOL    H6637636   1.168   1.658   1.670 -1.3742 -0.7095  1.7495
   86MOL    H6737637   1.198   1.646   1.826  0.5192  0.6231 -0.0192
   86MOL    C6837638   1.374   1.690   1.698 -0.6940  0.2554 -0.3261
   86MOL    C6937639   1.438   1.596   1.802  0.1236 -0.1620  0.2381
   86MOL    C7037640   1.401   1.446   1.804 -0.1321  0.0037  0.8823
   86MOL    C7137641   1.472   1.378   1.925 -0.0207  0.3906 -0.4798
   86MOL    C7237642   1.620   1.402   1.921 -0.9038 -0.0379 -0.1356
   86MOL    C7337643   1.652   1.551   1.921 -0.5987  0.5138  0.4625
   86MOL    C7437644   1.592   1.609   1.792 -0.4857  0.8065  0.0698
   86MOL    C7537645   1.391   1.637   1.548 -0.1912  0.6703  0.5569
   86MOL    H7637646   1.425   1.786   1.708 -0.8677  0.3393 -0.2543
   86MOL    H7737647   1.410   1.633   1.901  1.3432 -0.0009  0.5394
   86MOL    H7837648   1.436   1.392   1.716  2.0607  3.3452 -0.4099
   86MOL    H7937649   1.293   1.437   1.815 -0.4048  3.1339  1.1793
   86MOL    H8037650   1.434   1.413   2.021 -2.4722 -1.0332 -0.8768
   86MOL    H8137651   1.440   1.274   1.914  0.5659  0.2619 -0.9482
   86MOL    H8237652   1.666   1.356   1.833 -1.4642 -0.1971 -0.3478
   86MOL    H8337653   1.665   1.353   2.008  1.5146 -0.5356 -1.6188
   86MOL    H8437654   1.758   1.569   1.938 -0.8706  1.8632  0.7793
   86MOL    H8537655   1.604   1.613   1.996 -1.5836 -1.2255  1.3128
   86MOL    H8637656   1.621   1.550   1.705 -1.0291  2.1337 -1.0340
   86MOL    H8737657   1.634   1.707   1.770  0.5601  0.4759  0.5416
   86MOL    H8837658   1.497   1.624   1.526 -0.3116  1.5184 -0.5886
   86MOL    H8937659   1.335   1.544   1.545  2.0762 -0.7161 -1.9423
   86MOL    C9037660   1.350   1.733   1.438 -0.4391  0.2596  0.0036
   86MOL    C9137661   1.408   1.867   1.459  0.6167 -0.6877  0.2203
   86MOL    C9237662   1.560   1.884   1.452  0.7423  0.3886  0.2271
   86MOL    C9337663   1.605   2.021   1.502 -0.2602  0.0816 -0.5260
   86MOL    C9437664   1.537   2.135   1.446 -0.1427 -0.5264  0.9471
   86MOL    C9537665   1.384   2.122   1.435 -0.3478  0.1498  0.0870
   86MOL    C9637666   1.340   1.982   1.384  0.0379  0.1875  0.7228
   86MOL    C9737667   1.371   1.675   1.300 -0.6773  0.3586  0.3611
   86MOL    H9837668   1.242   1.744   1.444 -0.6612 -2.5726  2.0810
   86MOL    H9937669   1.384   1.908   1.557  1.8895  2.1661 -0.5977
   86MOL   H10037670   1.603   1.867   1.354  2.4828 -1.5654  1.2794
   86MOL   H10137671   1.613   1.803   1.503 -0.0564 -0.8432 -0.8777
   86MOL   H10237672   1.713   2.032   1.496 -0.4491  1.7023 -1.2501
   86MOL   H10337673   1.586   2.032   1.609  0.6493 -0.7530 -0.2698
   86MOL   H10437674   1.563   2.144   1.340  1.8627  0.1262  1.4749
   86MOL   H10537675   1.558   2.235   1.485  3.2449 -0.5491 -0.6388
   86MOL   H10637676   1.352   2.131   1.539  1.3020  0.3088  0.5891
   86MOL   H10737677   1.342   2.212   1.391  0.7158  1.7541  2.2607
   86MOL   H10837678   1.232   1.971   1.399  0.1934 -0.0856  1.6421
   86MOL   H10937679   1.367   1.976   1.278  0.0625 -0.5024  0.7705
   86MOL   H11037680   1.364   1.756   1.228 -1.1730  2.2200  2.4518
   86MOL   H11137681   1.478   1.659   1.299 -1.0762 -2.6769 -1.5098
   86MOL   C11237682   1.309   1.536   1.250 -0.2547  0.0079  0.7761
   86MOL   C11337683   1.365   1.490   1.111  0.2793 -0.4217 -0.8951
   86MOL   C11437684   1.519   1.463   1.115  0.7272 -0.6168 -0.2376
   86MOL   C11537685   1.559   1.397   0.982 -0.0316  0.3159 -0.0863
   86MOL   C11637686   1.529   1.497   0.867  0.3580  1.0448 -0.0655
   86MOL   C11737687   1.385   1.539   0.856 -0.0716  0.0627 -0.0492
   86MOL   C11837688   1.339   1.595   0.993 -0.2212 -0.5878  0.2221
   86MOL   C11937689   1.151   1.549   1.247  0.7331  0.3052  0.5391
   86MOL   H12037690   1.340   1.459   1.320  1.5160  0.0370  0.0577
   86MOL   H12137691   1.318   1.398   1.078  0.4354 -0.8448  0.0349
   86MOL   H12237692   1.559   1.420   1.207  0.1309  2.6478  1.6336
   86MOL   H12337693   1.571   1.559   1.111 -0.4802  0.0246 -0.9311
   86MOL   H12437694   1.665   1.377   0.997 -0.1819 -0.4031  0.0416
   86MOL   H12537695   1.524   1.297   0.957  0.4782  0.2158 -0.4031
   86MOL   H12637696   1.588   1.588   0.873  0.0148  1.3042 -0.5307
   86MOL   H12737697   1.575   1.464   0.774  0.1262  0.1331  0.1395
   86MOL   H12837698   1.366   1.621   0.786  0.0040  1.7860  1.9295
   86MOL   H12937699   1.311   1.470   0.816  0.5260 -0.1913 -0.7519
   86MOL   H13037700   1.231   1.612   0.990 -0.4197 -1.9452 -1.5318
   86MOL   H13137701   1.384   1.692   1.015 -2.1587  0.2791  0.4606
   86MOL   H13237702   1.121   1.559   1.143  1.4458 -1.1604  0.1893
   86MOL   H13337703   1.105   1.630   1.304  0.2964 -0.9610  2.0418
   86MOL   C13437704   1.057   1.431   1.283  0.3960 -0.0277  0.8331
   86MOL   C13537705   0.927   1.426   1.208 -0.2944  0.1974 -0.1843
   86MOL   C13637706   0.936   1.385   1.062  1.0834 -0.1994 -0.3436
   86MOL   C13737707   0.794   1.390   0.999  0.0022  0.2744  0.2723
   86MOL   C13837708   0.725   1.528   1.015 -0.2051 -0.8082 -0.8549
   86MOL   C13937709   0.713   1.543   1.167  0.5647  0.3977  0.3602
   86MOL   C14037710   0.846   1.554   1.237  0.5690  0.1624  0.0972
   86MOL   C14137711   1.049   1.414   1.434 -0.1197 -0.0450  0.6095
   86MOL   H14237712   1.113   1.341   1.257 -1.0700 -0.8521  0.4825
   86MOL   H14337713   0.879   1.345   1.262  0.9176 -0.3197  0.1351
   86MOL   H14437714   1.006   1.455   1.017  2.0310 -0.2594  0.9910
   86MOL   H14537715   0.988   1.290   1.048  0.5315 -0.5594 -0.0165
   86MOL   H14637716   0.737   1.307   1.042  0.7629  0.3976  1.5330
   86MOL   H14737717   0.817   1.367   0.895  1.3128  3.6079 -0.2294
   86MOL   H14837718   0.776   1.608   0.962 -1.8995  0.4674 -0.5805
   86MOL   H14937719   0.625   1.527   0.974  0.5850  0.1471 -2.8417
   86MOL   H15037720   0.635   1.477   1.204  0.1960  0.1355 -0.8452
   86MOL   H15137721   0.656   1.636   1.176  0.0236  0.3625 -2.1315
   86MOL   H15237722   0.892   1.635   1.180 -2.2229  2.1914  0.5775
   86MOL   H15337723   0.823   1.581   1.340  2.9644 -2.0684  1.2600
   86MOL   H15437724   0.964   1.480   1.455 -1.2567 -0.9293 -1.0944
   86MOL   H15537725   1.129   1.471   1.481  1.6311  0.6600 -3.0050
   86MOL   C15637726   1.026   1.271   1.491 -0.2358  0.7569  0.5793
   86MOL   C15737727   0.935   1.272   1.621  0.0708  0.6063  0.6596
   86MOL   C15837728   0.861   1.133   1.655 -0.4218 -0.2641 -0.0147
   86MOL   C15937729   0.752   1.161   1.762 -0.0940  0.0761 -0.2438
   86MOL   C16037730   0.814   1.227   1.888  0.2767  0.2368  0.5486
   86MOL   C16137731   0.891   1.347   1.847 -0.2628  0.4071 -0.0201
   86MOL   C16237732   1.000   1.331   1.748 -0.1586 -0.9534  0.5241
   86MOL   C16337733   1.170   1.211   1.529  0.2797  0.7253  0.7517
   86MOL   H16437734   0.978   1.219   1.408 -1.0779  1.1288  0.8283
   86MOL   H16537735   0.852   1.341   1.605 -0.5697 -0.3711 -0.2546
   86MOL   H16637736   0.822   1.087   1.565 -0.4362 -1.5675  0.6569
   86MOL   H16737737   0.939   1.072   1.700 -0.4426  0.6724  1.2980
   86MOL   H16837738   0.684   1.235   1.720  0.0139 -0.4573 -1.3966
   86MOL   H16937739   0.685   1.078   1.784 -0.8854  0.4639 -1.1590
   86MOL   H17037740   0.882   1.154   1.933  1.1534  0.8173  0.1769
   86MOL   H17137741   0.738   1.257   1.960 -0.5768  0.8481 -0.6064
   86MOL   H17237742   0.927   1.388   1.941 -0.5452 -0.3501  0.4205
   86MOL   H17337743   0.815   1.412   1.805 -0.8678 -1.0483 -1.2357
   86MOL   H17437744   1.042   1.428   1.724 -0.7294 -0.6692  0.6586
   86MOL   H17537745   1.072   1.264   1.796 -0.9883 -0.8985  1.8732
   86MOL   H17637746   1.164   1.149   1.618 -0.6675 -0.6155 -0.2151
   86MOL   H17737747   1.243   1.285   1.564  0.7377  1.0624 -0.8307
   86MOL   C17837748   1.235   1.113   1.426 -0.1353 -0.3517  0.3623
   86MOL   C17937749   1.387   1.094   1.449  0.2371  0.3962  0.2333
   86MOL   C18037750   1.421   1.026   1.587  0.1376 -0.5887  0.2245
   86MOL   C18137751   1.574   0.990   1.592 -0.3876 -0.0987  0.2824
   86MOL   C18237752   1.660   1.120   1.572 -0.2588  0.0257  0.1574
   86MOL   C18337753   1.618   1.194   1.438 -0.0762 -0.7167  0.2698
   86MOL   C18437754   1.471   1.223   1.423  0.8878  0.2862  0.6163
   86MOL   C18537755   1.150   0.984   1.411  0.7019 -0.1453  0.6358
   86MOL   H18637756   1.242   1.167   1.331  2.5944 -1.6755 -0.2509
   86MOL   H18737757   1.428   1.024   1.377 -0.5489 -0.4643  0.6065
   86MOL   H18837758   1.399   1.101   1.662  0.7506  0.6885 -0.8359
   86MOL   H18937759   1.353   0.946   1.612  1.8182 -1.9105  0.6369
   86MOL   H19037760   1.600   0.917   1.516  1.4203  0.6131  0.1915
   86MOL   H19137761   1.590   0.956   1.695 -2.4713 -0.5732  0.4684
   86MOL   H19237762   1.640   1.185   1.657  0.3571  0.6742 -0.1867
   86MOL   H19337763   1.767   1.102   1.569 -0.0028  1.5554 -0.2546
   86MOL   H19437764   1.643   1.135   1.349  1.6094 -0.0477  0.2743
   86MOL   H19537765   1.678   1.285   1.437  1.9170 -1.9716  0.8223
   86MOL   H19637766   1.443   1.299   1.495  1.3279  0.5684  0.4951
   86MOL   H19737767   1.462   1.268   1.324 -1.1943 -1.5685 -0.0763
   86MOL   H19837768   1.117   0.943   1.507 -0.7423  0.2089  0.2966
   86MOL   H19937769   1.055   1.004   1.362 -0.3630 -3.8093  1.0350
   86MOL   C20037770   1.214   0.852   1.351 -0.5982  0.4945 -0.2034
   86MOL   C20137771   1.118   0.735   1.362  0.4570 -0.3892  0.3895
   86MOL   C20237772   1.094   0.685   1.506  0.2556 -0.3222 -0.0635
   86MOL   C20337773   1.024   0.547   1.511  0.4848 -0.2985 -0.0176
   86MOL   C20437774   0.894   0.545   1.430 -0.6424 -0.3488 -0.1128
   86MOL   C20537775   0.905   0.607   1.292  0.4344 -0.6685 -0.0299
   86MOL   C20637776   0.978   0.748   1.293 -0.3201  1.2483  0.3598
   86MOL   C20737777   1.272   0.881   1.211  0.5337  0.1244  1.1599
   86MOL   H20837778   1.294   0.827   1.420  0.7734  0.5964 -1.7423
   86MOL   H20937779   1.169   0.650   1.318 -0.2024 -1.6311  1.9307
   86MOL   H21037780   1.038   0.767   1.552  3.1813  2.5619 -1.4570
   86MOL   H21137781   1.191   0.687   1.555 -1.0594  0.9369  2.5587
   86MOL   H21237782   1.084   0.464   1.472  0.7545 -0.2571  0.3052
   86MOL   H21337783   1.000   0.521   1.614  0.6972 -0.7947 -0.0899
   86MOL   H21437784   0.870   0.439   1.418  1.5522 -0.8316 -0.4167
   86MOL   H21537785   0.813   0.594   1.484  0.6234  2.8092 -0.9464
   86MOL   H21637786   0.958   0.545   1.220  1.8360 -0.6481  0.9589
   86MOL   H21737787   0.808   0.611   1.244  0.3334 -0.0712  0.2126
   86MOL   H21837788   0.980   0.791   1.192 -1.0596  1.9456  0.6354
   86MOL   H21937789   0.918   0.820   1.349 -0.9843  1.1197 -0.1802
   86MOL   H22037790   1.188   0.863   1.143  0.7489  0.5717  0.7733
   86MOL   H22137791   1.295   0.986   1.195  0.1937  0.0325  0.0036
   86MOL   C22237792   1.381   0.790   1.158  0.6080  0.4797 -0.3725
   86MOL   C22337793   1.409   0.785   1.008 -0.6241 -0.3262  0.1570
   86MOL   C22437794   1.480   0.910   0.949  0.5415  0.7880  0.9168
   86MOL   C22537795   1.504   0.894   0.797 -0.2665 -0.4130 -0.3742
   86MOL   C22637796   1.383   0.859   0.711 -0.4386 -0.2765  0.0593
   86MOL   C22737797   1.304   0.743   0.771  0.7723  0.8614 -0.4663
   86MOL   C22837798   1.285   0.759   0.927 -0.0155  0.3178  0.5955
   86MOL   C22937799   1.517   0.804   1.239 -0.2725 -0.3950  0.2718
   86MOL   H23037800   1.330   0.695   1.178  2.1214 -0.4987 -1.0245
   86MOL   H23137801   1.471   0.696   0.994 -1.1905 -0.3918 -2.0989
   86MOL   H23237802   1.415   0.997   0.955  1.2715  1.6963 -3.2474
   86MOL   H23337803   1.571   0.931   1.005  0.3878  2.1625  0.6703
   86MOL   H23437804   1.586   0.824   0.784  0.9642  1.0653 -0.6868
   86MOL   H23537805   1.542   0.990   0.762 -1.5065  0.2245 -0.0212
   86MOL   H23637806   1.331   0.955   0.703  0.9145  0.4688  0.0686
   86MOL   H23737807   1.422   0.831   0.614 -0.6147 -0.5279  0.0619
   86MOL   H23837808   1.364   0.658   0.738  1.4500  1.0305  0.3345
   86MOL   H23937809   1.203   0.733   0.730  0.0265 -0.3441  1.6320
   86MOL   H24037810   1.216   0.843   0.928  0.8159  1.0480 -0.8179
   86MOL   H24137811   1.227   0.680   0.975 -1.5447  2.5516  2.5298
   86MOL   H24237812   1.489   0.811   1.344  0.7956 -0.7273  0.5763
   86MOL   H24337813   1.557   0.902   1.212 -0.1277  0.1430  2.3584
   86MOL   C24437814   1.630   0.700   1.215 -0.6678  0.2716  0.0458
   86MOL   C24537815   1.576   0.549   1.239  1.0884  0.0859 -0.1811
   86MOL   C24637816   1.537   0.517   1.383  0.1965 -0.4275 -0.4369
   86MOL   C24737817   1.491   0.374   1.412 -1.3705 -0.0258 -0.0330
   86MOL   C24837818   1.604   0.282   1.361 -0.5212  0.3509 -0.3842
   86MOL   C24937819   1.632   0.310   1.224  0.2871  0.4103 -0.0478
   86MOL   C25037820   1.686   0.456   1.205  0.2758  0.1868 -0.3869
   86MOL   C25137821   1.757   0.750   1.282 -0.0066 -0.0079  0.0104
   86MOL   H25237822   1.644   0.710   1.107  0.5059  2.1075  0.3618
   86MOL   H25337823   1.486   0.525   1.181 -0.1081  0.5597  1.4342
   86MOL   H25437824   1.460   0.588   1.411  2.0285  1.3496  0.2084
   86MOL   H25537825   1.625   0.544   1.442  0.2340 -0.0191 -0.6804
   86MOL   H25637826   1.474   0.343   1.515  1.2041  0.0840  0.4762
   86MOL   H25737827   1.400   0.351   1.358 -0.6835 -0.2610 -1.1080
   86MOL   H25837828   1.689   0.295   1.427  0.9032  0.0208 -2.1108
   86MOL   H25937829   1.562   0.182   1.364 -0.2084  0.1838 -1.3006
   86MOL   H26037830   1.548   0.284   1.160 -0.9382  0.0871  1.6353
   86MOL   H26137831   1.708   0.245   1.182  0.1555 -1.1056  1.9727
   86MOL   H26237832   1.777   0.481   1.259  0.8738 -0.8820 -0.8968
   86MOL   H26337833   1.717   0.461   1.100  0.5747  1.6880 -0.2430
   86MOL   H26437834   1.777   0.695   1.373  0.1628  1.6870  1.0265
   86MOL   H26537835   1.737   0.851   1.320 -3.4715  0.1173 -1.9206
   86MOL   C26637836   1.892   0.762   1.203 -0.2591 -0.5478  0.5333
   86MOL   C26737837   1.897   0.871   1.091 -0.5627  0.0121  0.2463
   86MOL   C26837838   1.840   1.009   1.115 -0.5768 -0.6757  0.3419
   86MOL   C26937839   1.889   1.098   1.007 -0.1920  0.0820  0.3130
   86MOL   C27037840   1.857   1.053   0.861 -0.0250  0.2514 -0.3040
   86MOL   C27137841   1.892   0.909   0.838  0.1999 -0.0834 -0.3142
   86MOL   C27237842   1.852   0.817   0.951  0.0831 -0.3537  0.1661
   86MOL   C27337843   2.013   0.775   1.303 -0.3417  0.1528  0.0998
   86MOL   H27437844   1.895   0.665   1.151 -1.3032  0.0092 -0.5833
   86MOL   H27537845   2.006   0.877   1.084 -0.6063  0.9495  0.3628
   86MOL   H27637846   1.731   1.011   1.126 -0.6229 -0.8403 -0.0462
   86MOL   H27737847   1.876   1.055   1.206 -2.6821  0.9953  0.3710
   86MOL   H27837848   1.997   1.101   1.015 -0.0272  2.1712 -1.9823
   86MOL   H27937849   1.866   1.202   1.032 -0.3398  0.6676 -2.1128
   86MOL   H28037850   1.763   1.094   0.824 -1.2876 -1.3240  1.1100
   86MOL   H28137851   1.930   1.110   0.803 -1.0331  1.9599  0.0518
   86MOL   H28237852   2.000   0.912   0.826  0.3741 -1.2477  0.8784
   86MOL   H28337853   1.849   0.866   0.748 -0.1953  0.7981 -0.5472
   86MOL   H28437854   1.902   0.722   0.932 -0.4090 -0.3123 -1.3841
   86MOL   H28537855   1.746   0.795   0.948  0.1487 -0.7959  0.9185
   86MOL   H28637856   1.977   0.740   1.400 -1.3359  0.2861 -0.2193
   86MOL   H28737857   2.045   0.875   1.330 -2.2741  1.2497 -1.5984
   86MOL   C28837858   2.124   0.667   1.275 -0.1494  0.3186  0.1110
   86MOL   C28937859   2.232   0.666   1.394  0.0742 -1.5592 -0.7763
   86MOL   C29037860   2.301   0.806   1.412  0.0424  0.2127 -0.3497
   86MOL   C29137861   2.406   0.802   1.517 -1.1794 -0.0615  0.1387
   86MOL   C29237862   2.364   0.733   1.650  0.9844  0.5098  0.2446
   86MOL   C29337863   2.313   0.586   1.625  0.1937 -0.6187  0.0983
   86MOL   C29437864   2.191   0.597   1.528 -0.4425 -0.3453 -0.3888
   86MOL   C29537865   2.194   0.680   1.141  0.0608  0.1114 -1.0236
   86MOL   H29637866   2.080   0.567   1.275 -3.2989  1.6475  0.5730
   86MOL   H29737867   2.315   0.600   1.369  2.6566  0.8991  0.9374
   86MOL   H29837868   2.343   0.847   1.320  0.9819 -3.1592 -1.5071
   86MOL   H29937869   2.232   0.880   1.452  0.7439 -0.2950  1.8324
   86MOL   H30037870   2.481   0.735   1.474 -0.4085  0.3618  0.8196
   86MOL   H30137871   2.458   0.896   1.531 -1.3322  0.1895 -0.8911
   86MOL   H30237872   2.291   0.793   1.704  0.3362 -1.2777  1.3842
   86MOL   H30337873   2.440   0.725   1.728 -1.0979  0.8309  2.3655
   86MOL   H30437874   2.272   0.537   1.713 -1.8107 -0.6622 -0.8494
   86MOL   H30537875   2.396   0.527   1.587  1.6771 -0.3492  2.7786
   86MOL   H30637876   2.112   0.655   1.575  0.1043 -0.1220  0.2601
   86MOL   H30737877   2.146   0.498   1.520 -0.8492 -0.1913 -0.0331
   86MOL   H30837878   2.117   0.709   1.068 -0.3806 -2.1479 -1.5094
   86MOL   H30937879   2.267   0.760   1.151  1.2177 -1.2028  1.3996
   86MOL   C31037880   2.274   0.555   1.083  0.3848 -0.5656  0.6895
   86MOL   C31137881   2.210   0.415   1.122  0.0722  0.2202  0.3513
   86MOL   C31237882   2.073   0.399   1.056 -0.2581 -0.9400 -0.3571
   86MOL   C31337883   2.016   0.267   1.086  0.3393 -0.2656 -0.2713
   86MOL   C31437884   2.111   0.154   1.045  0.4974  0.4802  0.1271
   86MOL   C31537885   2.239   0.167   1.128  0.0974  0.1652  0.5923
   86MOL   C31637886   2.306   0.299   1.097  0.3863 -0.1416  0.7248
   86MOL   C31737887   2.315   0.567   0.936  0.3460 -0.1195 -0.1275
   86MOL   H31837888   2.361   0.567   1.149 -0.0597  0.7967  1.0481
   86MOL   H31937889   2.193   0.413   1.230  0.4679 -1.0270  0.4042
   86MOL   H32037890   1.995   0.466   1.091 -0.4283 -1.3752  0.1085
   86MOL   H32137891   2.077   0.409   0.948  0.2183  0.9000 -0.1796
   86MOL   H32237892   1.925   0.260   1.025  1.2013 -0.9509 -1.4901
   86MOL   H32337893   1.977   0.258   1.188  3.3237 -1.2979  0.8177
   86MOL   H32437894   2.074   0.054   1.066  0.2879 -0.1410 -2.9781
   86MOL   H32537895   2.124   0.159   0.937  1.0449  0.8003  0.2055
   86MOL   H32637896   2.213   0.157   1.234  3.5020 -0.5066  1.4535
   86MOL   H32737897   2.309   0.090   1.094 -1.5755 -1.2006  0.1501
   86MOL   H32837898   2.338   0.288   0.993  1.4251  1.1408  0.8918
   86MOL   H32937899   2.404   0.312   1.142  1.1506  0.3414 -1.0153
   86MOL   H33037900   2.224   0.590   0.881  0.0566 -1.3350 -0.1735
   86MOL   H33137901   2.378   0.487   0.897  0.8218  0.5432 -0.7247
   86MOL   C33237902   2.401   0.679   0.900 -0.0448 -0.1124 -0.1121
   86MOL   C33337903   2.408   0.695   0.745 -0.0942  0.8607  0.4464
   86MOL   C33437904   2.287   0.794   0.703  0.3221 -0.1366  0.0714
   86MOL   C33537905   2.287   0.824   0.552 -0.0064  0.5264  0.1325
   86MOL   C33637906   2.273   0.697   0.473 -0.2185 -0.1077  0.7213
   86MOL   C33737907   2.399   0.609   0.505  0.1608 -0.5489 -0.6948
   86MOL   C33837908   2.400   0.569   0.656 -0.2983 -0.2663  0.4630
   86MOL   C33937909   2.543   0.659   0.958  0.1570  0.3940  0.2723
   86MOL   H34037910   2.361   0.775   0.935 -0.7267 -0.6823  0.6757
   86MOL   H34137911   2.500   0.743   0.713  0.1183  0.8340  1.0117
   86MOL   H34237912   2.191   0.753   0.737 -0.4154  1.9187  0.5225
   86MOL   H34337913   2.295   0.889   0.755 -2.6257  0.3019 -0.2098
   86MOL   H34437914   2.196   0.881   0.534  0.5462  0.8256 -1.7572
   86MOL   H34537915   2.377   0.878   0.524  0.6214 -0.1274  0.8757
   86MOL   H34637916   2.183   0.644   0.505 -0.6509  1.1832  1.6665
   86MOL   H34737917   2.271   0.716   0.366 -0.5119  1.8682  1.0542
   86MOL   H34837918   2.483   0.676   0.488 -0.9572  1.0363 -0.0759
   86MOL   H34937919   2.414   0.524   0.438 -0.0941 -0.0169 -1.4371
   86MOL   H35037920   2.480   0.498   0.679 -0.7132 -0.3850  1.5503
   86MOL   H35137921   2.321   0.498   0.680 -0.0142 -1.0186 -0.7408
   86MOL   H35237922   2.585   0.572   0.908 -2.3028 -0.9469  0.4243
   86MOL   H35337923   2.535   0.628   1.062 -1.0000 -3.1544 -0.8030
   86MOL   C35437924   2.632   0.783   0.958 -0.2146  0.1627  0.1938
   86MOL   C35537925   2.784   0.744   0.964  0.8085  0.5020  0.2945
   86MOL   C35637926   2.854   0.748   0.825 -0.0154  0.2506 -0.2383
   86MOL   C35737927   3.002   0.750   0.837 -0.7237  0.2402  0.3291
   86MOL   C35837928   3.046   0.631   0.924  0.1285  0.3804  0.3324
   86MOL   C35937929   2.967   0.622   1.058 -0.1964 -0.1435  0.2556
   86MOL   C36037930   2.817   0.622   1.051  0.0284  0.0759 -1.1089
   86MOL   C36137931   2.586   0.867   1.082 -0.6665  0.5519  0.0912
   86MOL   H36237932   2.623   0.850   0.872  0.5214 -0.0829 -0.0735
   86MOL   H36337933   2.831   0.828   1.016  1.2598  0.3112  0.2022
   86MOL   H36437934   2.814   0.828   0.763 -0.0920  1.6053  1.5073
   86MOL   H36537935   2.831   0.661   0.764 -1.1195  0.6544 -0.4101
   86MOL   H36637936   3.045   0.739   0.737  0.0148 -0.9423  0.7679
   86MOL   H36737937   3.050   0.839   0.879  0.9195 -1.0164  1.1873
   86MOL   H36837938   3.023   0.537   0.872  0.2135 -1.2768  3.1863
   86MOL   H36937939   3.153   0.638   0.943  0.1676 -0.5215  0.4927
   86MOL   H37037940   2.994   0.537   1.121 -0.4056 -0.8100 -0.5397
   86MOL   H37137941   3.001   0.702   1.123  1.3955 -1.2646  0.8435
   86MOL   H37237942   2.775   0.632   1.151 -0.7695 -2.4458 -1.1527
   86MOL   H37337943   2.777   0.529   1.010 -0.6053 -0.6013  1.0091
   86MOL   H37437944   2.600   0.811   1.175  1.6152  0.4434 -0.2959
   86MOL   H37537945   2.478   0.881   1.077 -1.0309 -1.9987  0.1594
   86MOL   C37637946   2.643   1.008   1.101  0.6787  0.4614 -0.2034
   86MOL   C37737947   2.559   1.125   1.038  0.2430  0.4368  0.2908
   86MOL   C37837948   2.418   1.160   1.100  0.0925  0.0986 -0.4281
   86MOL   C37937949   2.360   1.274   1.016 -0.2060 -0.7063 -0.3033
   86MOL   C38037950   2.377   1.259   0.862  0.1013 -0.1298  0.4664
   86MOL   C38137951   2.516   1.229   0.811  0.2198 -0.0069  0.0876
   86MOL   C38237952   2.566   1.105   0.887  0.9617 -0.0890 -0.0803
   86MOL   C38337953   2.655   1.040   1.250 -0.8674  0.7104 -0.3255
   86MOL   H38437954   2.740   1.009   1.051 -0.2875 -0.6518 -2.1655
   86MOL   H38537955   2.616   1.217   1.051  1.0371 -0.3900  3.1278
   86MOL   H38637956   2.343   1.080   1.101 -0.6862  0.8129 -1.1241
   86MOL   H38737957   2.434   1.183   1.206 -0.5935  0.1020 -0.3265
   86MOL   H38837958   2.403   1.369   1.046 -0.4488 -0.5103 -0.5689
   86MOL   H38937959   2.256   1.281   1.049 -0.3452 -1.0606 -0.6557
   86MOL   H39037960   2.313   1.172   0.843  0.7086 -0.3070 -0.8040
   86MOL   H39137961   2.333   1.343   0.808 -0.9902 -1.8659 -1.4503
   86MOL   H39237962   2.498   1.214   0.705  1.2268 -0.8890  0.0293
   86MOL   H39337963   2.584   1.314   0.822 -1.0057  0.9942  0.0546
   86MOL   H39437964   2.506   1.019   0.857 -0.6645  1.0587 -0.2018
   86MOL   H39537965   2.670   1.092   0.857  0.8863 -0.7766 -0.0431
   86MOL   H39637966   2.575   1.019   1.322  1.1628 -2.4520  1.1120
   86MOL   H39737967   2.670   1.147   1.264  2.4465  0.1340  0.9105
   86MOL   C39837968   2.791   0.980   1.306  0.2191  0.3586 -0.0242
   86MOL   C39937969   2.916   1.076   1.296  0.4839 -0.0868  1.1929
   86MOL   C40037970   2.954   1.111   1.153 -0.3262 -0.4219  0.5510
   86MOL   C40137971   3.088   1.191   1.142 -0.3432  0.3666 -0.0809
   86MOL   C40237972   3.093   1.314   1.233 -0.1018 -0.4062 -0.2092
   86MOL   C40337973   3.040   1.280   1.371 -0.1613  0.1341  0.0157
   86MOL   C40437974   2.902   1.209   1.371 -0.5804 -0.3106 -0.5547
   86MOL   C40537975   2.770   0.933   1.451  0.2421  0.4998  0.2597
   86MOL   H40637976   2.815   0.893   1.246 -0.0916  0.7926 -0.7853
   86MOL   H40737977   2.997   1.018   1.340 -0.4190 -1.1122  1.5449
   86MOL   H40837978   2.870   1.171   1.118 -0.5048 -0.1402  1.4609
   86MOL   H40937979   2.956   1.027   1.083 -3.0716  0.1694 -0.2907
   86MOL   H41037980   3.109   1.223   1.040 -3.0526  0.6733 -0.5700
   86MOL   H41137981   3.168   1.128   1.180 -1.8040 -1.1020  0.6286
   86MOL   H41237982   3.023   1.390   1.196  1.2216 -0.0493 -2.0796
   86MOL   H41337983   3.185   1.372   1.240 -0.6378  0.8329 -2.7263
   86MOL   H41437984   3.108   1.218   1.429  1.4728  1.2721 -0.6272
   86MOL   H41537985   3.021   1.375   1.423 -0.4682  0.8638 -1.4030
   86MOL   H41637986   2.864   1.200   1.473  0.7980  1.8094  0.1680
   86MOL   H41737987   2.824   1.271   1.326 -0.1073 -0.8531 -2.1740
   86MOL   H41837988   2.850   0.975   1.512  0.7935  0.8324 -0.6700
   86MOL   H41937989   2.682   0.979   1.496 -0.0444  0.4992 -0.2866
   86MOL   C42037990   2.784   0.786   1.476 -0.1396  0.1892 -0.0147
   86MOL   C42137991   2.757   0.748   1.628 -0.1008  0.0201  0.2351
   86MOL   C42237992   2.874   0.778   1.733 -0.5149  0.0211  0.3215
   86MOL   C42337993   2.821   0.748   1.880 -0.3888 -0.6714  0.1576
   86MOL   C42437994   2.797   0.594   1.891  0.1278 -0.2266  0.0525
   86MOL   C42537995   2.691   0.554   1.790  0.0901 -1.2018 -0.6471
   86MOL   C42637996   2.719   0.595   1.642 -0.0108 -0.4014  0.8632
   86MOL   C42737997   2.913   0.721   1.431 -0.5025 -0.4341 -0.3897
   86MOL   H42837998   2.702   0.738   1.423  1.0497 -3.1605  1.0719
   86MOL   H42937999   2.669   0.808   1.650 -1.1104 -1.1085 -0.6675
   86MOL   H43038000   2.969   0.725   1.721 -0.1949  0.4677  0.8148
   86MOL   H43138001   2.898   0.884   1.720  0.1722 -0.2467 -0.7096
   86MOL   H43238002   2.893   0.781   1.955  0.7620 -2.1503 -0.2841
   86MOL   H43338003   2.731   0.806   1.903 -0.7694 -1.7345  1.3847
   86MOL   H43438004   2.758   0.565   1.989 -2.1181 -2.1036 -1.3360
   86MOL   H43538005   2.882   0.534   1.860  0.7230 -0.7229  2.4984
   86MOL   H43638006   2.592   0.585   1.823 -0.2304 -2.6669 -0.2428
   86MOL   H43738007   2.681   0.446   1.790  1.5840 -1.3538  1.5509
   86MOL   H43838008   2.801   0.533   1.604 -2.4550 -1.7815 -2.3937
   86MOL   H43938009   2.632   0.571   1.581  1.3012  0.9913 -1.6883
   86MOL   H44038010   2.923   0.748   1.325 -1.0142  0.4578 -0.2107
   86MOL   H44138011   2.996   0.742   1.498 -1.3485  0.7219  0.2987
   86MOL   H44238012   2.901   0.612   1.425 -4.0750 -0.1392  0.4340
   87MOL     C138013   7.416   2.958   5.899  0.2793  0.7662  0.3015
   87MOL     C238014   7.400   3.067   5.787  0.0814  0.2625 -0.4965
   87MOL     C338015   7.450   3.022   5.644 -0.9617  0.0970  0.4668
   87MOL     C438016   7.422   3.134   5.542  0.4602 -0.1014 -0.2529
   87MOL     C538017   7.494   3.262   5.577 -0.1140 -0.3559 -0.2485
   87MOL     C638018   7.449   3.304   5.718  0.4722 -0.0238 -0.3553
   87MOL     C738019   7.478   3.198   5.820  0.1078 -0.0775  0.0542
   87MOL     C838020   7.555   2.893   5.920 -0.2892  0.1210  0.0061
   87MOL     H938021   7.378   3.009   5.987  2.0490  2.7519 -0.0301
   87MOL    H1038022   7.293   3.085   5.777 -0.6505 -1.4589  3.3740
   87MOL    H1138023   7.556   2.996   5.638 -1.7521 -3.0880 -0.9479
   87MOL    H1238024   7.400   2.931   5.611  0.3489 -0.4462 -0.0926
   87MOL    H1338025   7.313   3.146   5.537  0.4222 -1.1387 -3.1465
   87MOL    H1438026   7.439   3.093   5.442  1.9737 -0.1231  0.0008
   87MOL    H1538027   7.466   3.331   5.497  0.0144  0.9387  0.8195
   87MOL    H1638028   7.603   3.260   5.567 -0.1356  0.2939 -0.6671
   87MOL    H1738029   7.504   3.395   5.745  1.2214 -0.1770 -1.3451
   87MOL    H1838030   7.346   3.337   5.728  0.2265 -0.6627 -0.7542
   87MOL    H1938031   7.459   3.239   5.919  1.1780 -0.0545  0.2521
   87MOL    H2038032   7.584   3.174   5.831 -0.5558 -4.2908 -1.9642
   87MOL    H2138033   7.625   2.976   5.930 -0.5004  0.2609  0.3405
   87MOL    H2238034   7.579   2.848   5.824  0.6918 -1.0133  0.7728
   87MOL    H2338035   7.350   2.876   5.870  0.8176  0.4988 -0.1624
   87MOL    C2438036   7.579   2.793   6.040  0.9626  0.1881  0.2913
   87MOL    C2538037   7.718   2.720   6.018 -0.1853 -0.2548  0.2626
   87MOL    C2638038   0.062   2.804   5.977 -0.4358 -0.1643 -0.3165
   87MOL    C2738039   0.190   2.721   5.947 -0.3270 -0.6167 -0.6258
   87MOL    C2838040   0.171   2.604   5.854  0.0120  0.8941  0.3859
   87MOL    C2938041   0.064   2.512   5.898 -0.1068  0.1963 -0.1962
   87MOL    C3038042   7.702   2.587   5.937 -0.3837  0.2877  0.2922
   87MOL    C3138043   7.558   2.858   6.176  0.1607  0.1082 -0.7158
   87MOL    H3238044   7.499   2.721   6.022  2.0508 -0.7842 -0.7743
   87MOL    H3338045   7.751   2.676   6.112  0.2463 -1.6517 -0.5323
   87MOL    H3438046   0.085   2.875   6.056 -0.0035  0.1103 -0.6929
   87MOL    H3538047   0.042   2.864   5.889  1.9925 -0.3631 -1.0504
   87MOL    H3638048   0.261   2.790   5.903 -1.3784 -1.0450 -3.0988
   87MOL    H3738049   0.234   2.674   6.035  0.9148  1.3614 -0.1608
   87MOL    H3838050   0.265   2.550   5.847 -0.3025  0.5008 -0.7882
   87MOL    H3938051   0.139   2.635   5.755  2.6231 -2.5634 -1.6050
   87MOL    H4038052   0.044   2.431   5.829 -1.2359  0.6430 -0.4110
   87MOL    H4138053   0.108   2.468   5.987 -0.7466 -1.0748 -0.5066
   87MOL    H4238054   7.644   2.624   5.852  0.1168  1.1402  0.3190
   87MOL    H4338055   7.643   2.514   5.993 -1.5561  0.8433 -0.2002
   87MOL    H4438056   7.467   2.917   6.165  0.0021  0.1772  0.8898
   87MOL    H4538057   7.636   2.933   6.192 -0.0759 -0.0920  1.5627
   87MOL    C4638058   7.543   2.763   6.292 -0.6242 -0.6801  0.4382
   87MOL    C4738059   7.398   2.696   6.319 -0.2062  0.2070 -0.0949
   87MOL    C4838060   7.352   2.587   6.212  0.2238  0.0047  0.0713
   87MOL    C4938061   7.221   2.522   6.260 -0.0387 -0.1851  0.6420
   87MOL    C5038062   7.115   2.634   6.270  0.1617 -0.4658  0.2186
   87MOL    C5138063   7.157   2.736   6.382  0.5364  0.3379  0.1001
   87MOL    C5238064   7.287   2.802   6.342 -1.0834 -0.4498  0.6878
   87MOL    C5338065   7.597   2.831   6.424 -0.2437  0.3213 -0.1878
   87MOL    H5438066   7.610   2.681   6.268 -0.2416 -0.6738  1.4682
   87MOL    H5538067   7.398   2.641   6.413  0.8696 -3.0035 -1.8890
   87MOL    H5638068   7.327   2.640   6.121  2.5419  0.9140 -0.0910
   87MOL    H5738069   7.431   2.512   6.208  0.3549  0.0883  0.8514
   87MOL    H5838070   7.239   2.463   6.350  1.8046 -0.3259  0.2065
   87MOL    H5938071   7.178   2.456   6.184 -0.8994  0.6446  0.4089
   87MOL    H6038072   7.106   2.686   6.174  0.0677 -1.5295 -0.3596
   87MOL    H6138073   7.012   2.599   6.277  0.4363 -1.4503 -0.5079
   87MOL    H6238074   7.158   2.699   6.484 -0.9607  0.8897  0.3281
   87MOL    H6338075   7.078   2.811   6.381 -1.0796 -1.3396 -1.1616
   87MOL    H6438076   7.265   2.858   6.251 -1.2931 -1.1117  0.3304
   87MOL    H6538077   7.313   2.881   6.412 -1.1945  0.7106 -0.5449
   87MOL    H6638078   7.518   2.873   6.487 -0.1751  1.1197 -0.6271
   87MOL    H6738079   7.670   2.905   6.391  0.3887 -0.1060  0.2589
   87MOL    C6838080   7.664   2.727   6.522 -0.3534 -0.0831  0.3027
   87MOL    C6938081   0.042   2.727   6.503  0.2162 -0.2116  0.4869
   87MOL    C7038082   0.091   2.670   6.369  0.0367 -0.0494  0.7927
   87MOL    C7138083   0.236   2.621   6.377 -0.3217  0.0706 -0.4936
   87MOL    C7238084   0.329   2.735   6.417 -0.3576 -0.2570  0.3467
   87MOL    C7338085   0.277   2.815   6.538 -0.7145  0.5641  0.3778
   87MOL    C7438086   0.127   2.848   6.522 -0.5441  0.0184 -0.0929
   87MOL    C7538087   7.626   2.757   6.670  0.0438 -0.6929 -0.3044
   87MOL    H7638088   7.628   2.626   6.503  1.7459 -0.9949  0.9896
   87MOL    H7738089   0.071   2.641   6.564  1.9207 -0.2675 -0.3815
   87MOL    H7838090   0.083   2.747   6.292 -2.7041 -0.4825  0.5891
   87MOL    H7938091   0.035   2.580   6.345 -0.8935  0.8842 -0.6283
   87MOL    H8038092   0.249   2.528   6.433  0.5426  0.1743 -0.5130
   87MOL    H8138093   0.277   2.598   6.279  0.4419  0.5635 -0.2945
   87MOL    H8238094   0.346   2.804   6.334 -0.7162  0.3165  0.7430
   87MOL    H8338095   0.432   2.706   6.437 -0.4151 -1.1442 -0.6027
   87MOL    H8438096   0.332   2.903   6.571  0.9600 -0.7388  1.1733
   87MOL    H8538097   0.292   2.741   6.617 -1.6175  1.1812  1.1454
   87MOL    H8638098   0.115   2.919   6.440  0.4350  2.4736  1.8327
   87MOL    H8738099   0.090   2.907   6.606  0.6400  1.3144 -0.4666
   87MOL    H8838100   7.678   2.849   6.696  0.1329 -0.8942  0.2411
   87MOL    H8938101   7.517   2.760   6.670  0.0628  0.2642 -0.2616
   87MOL    C9038102   7.672   2.650   6.780 -0.3324  0.0529  0.5278
   87MOL    C9138103   7.656   2.715   6.921 -0.5781  0.2852 -0.2837
   87MOL    C9238104   0.004   2.807   6.964 -0.4322  1.0648 -0.4676
   87MOL    C9338105   7.763   2.864   7.113 -0.6339  0.4025  0.2528
   87MOL    C9438106   7.621   2.922   7.134  0.1813 -0.6331 -0.1633
   87MOL    C9538107   7.504   2.831   7.087  0.0165 -1.0920  0.5856
   87MOL    C9638108   7.515   2.773   6.950 -0.7984 -1.0388 -0.1840
   87MOL    C9738109   7.603   2.514   6.779  0.0440  0.1821  0.5619
   87MOL    H9838110   0.007   2.636   6.766 -0.7910 -0.7253 -2.4138
   87MOL    H9938111   7.659   2.631   6.990 -2.3011 -0.4332 -1.0521
   87MOL   H10038112   0.011   2.893   6.897  0.2408  0.1797 -1.5536
   87MOL   H10138113   0.097   2.751   6.964 -0.1509  1.3694  3.6079
   87MOL   H10238114   0.071   2.933   7.141  1.5523 -1.0906 -2.1208
   87MOL   H10338115   7.770   2.775   7.176  0.4579  0.0226 -0.3957
   87MOL   H10438116   7.618   3.012   7.073 -1.9809  0.8402  2.0195
   87MOL   H10538117   7.595   2.951   7.236 -0.1442 -2.4457  0.2867
   87MOL   H10638118   7.522   2.737   7.139  0.8607 -0.9135  0.6272
   87MOL   H10738119   7.404   2.868   7.111  0.2136 -0.6755  0.7790
   87MOL   H10838120   7.427   2.720   6.913 -1.8894 -0.2347  1.1637
   87MOL   H10938121   7.521   2.865   6.892  0.6574 -1.4316 -0.6816
   87MOL   H11038122   7.576   2.487   6.881  1.4432  1.5675  1.3245
   87MOL   H11138123   7.512   2.525   6.721  0.6118  2.0626 -0.0169
   87MOL   C11238124   7.689   2.403   6.720 -0.3622  0.1559 -0.0398
   87MOL   C11338125   7.606   2.287   6.648  0.3089 -0.1172  0.2046
   87MOL   C11438126   7.537   2.345   6.521  0.7691 -0.0440  0.3267
   87MOL   C11538127   7.453   2.235   6.449  0.1437 -0.1463  0.8607
   87MOL   C11638128   7.352   2.179   6.549 -0.2347  0.3391  0.2404
   87MOL   C11738129   7.422   2.104   6.666  0.0372  0.4790  0.2803
   87MOL   C11838130   7.511   2.212   6.739  0.2372  0.2372 -1.0698
   87MOL   C11938131   0.029   2.353   6.820 -0.7427  0.2153  0.1308
   87MOL   H12038132   7.740   2.461   6.643  1.2235  0.2500  1.0516
   87MOL   H12138133   7.667   2.208   6.604 -2.0917 -1.2055 -1.2503
   87MOL   H12238134   7.607   2.399   6.458 -0.9580  2.0709  0.1475
   87MOL   H12338135   7.466   2.426   6.544  2.4996  0.9373  2.4220
   87MOL   H12438136   7.398   2.266   6.360 -0.8102 -2.0156  0.7810
   87MOL   H12538137   7.516   2.159   6.404 -0.6631 -1.8024  2.4850
   87MOL   H12638138   7.303   2.267   6.590  1.7563  1.7661 -0.3954
   87MOL   H12738139   7.278   2.120   6.494  1.6285 -1.2613 -0.6197
   87MOL   H12838140   7.358   2.061   6.743 -0.8348 -0.7177 -1.0936
   87MOL   H12938141   7.480   2.024   6.620 -0.5875  1.2550 -1.9184
   87MOL   H13038142   7.567   2.168   6.821 -0.9481  2.3451  0.9257
   87MOL   H13138143   7.442   2.288   6.775 -0.0681  0.6004 -2.4097
   87MOL   H13238144   7.767   2.260   6.863  2.6956 -0.8005  0.8308
   87MOL   H13338145   0.034   2.417   6.908 -2.7315 -0.6507  0.8790
   87MOL   C13438146   0.168   2.335   6.762  0.0244 -0.2309 -0.7076
   87MOL   C13538147   0.183   2.248   6.640 -0.6467  0.8279 -0.6360
   87MOL   C13638148   0.149   2.098   6.670 -0.1108  0.7622  0.5699
   87MOL   C13738149   0.162   2.008   6.545  0.3817 -0.4755 -0.2509
   87MOL   C13838150   0.285   2.038   6.480  0.6694  1.0478 -0.8727
   87MOL   C13938151   0.314   2.178   6.443  0.3130 -0.4472 -0.1278
   87MOL   C14038152   0.316   2.260   6.570 -0.0833  0.0326 -0.8516
   87MOL   C14138153   0.279   2.308   6.878  0.0137 -0.0177  0.2399
   87MOL   H14238154   0.200   2.436   6.736 -0.6948  0.7279  2.0057
   87MOL   H14338155   0.107   2.287   6.573 -0.6888 -1.1467 -1.7643
   87MOL   H14438156   0.222   2.056   6.740 -1.8078 -0.5726  1.5681
   87MOL   H14538157   0.054   2.090   6.723 -1.5289  1.7197 -1.7701
   87MOL   H14638158   0.083   2.034   6.474 -0.4469  1.1201  1.2329
   87MOL   H14738159   0.151   1.904   6.577 -0.6301  0.4202  2.4870
   87MOL   H14838160   0.365   2.016   6.551  0.7380 -0.3308 -1.3685
   87MOL   H14938161   0.303   1.962   6.405  0.2713 -0.8691  0.9313
   87MOL   H15038162   0.238   2.197   6.366  2.0080  0.7447 -1.5485
   87MOL   H15138163   0.412   2.179   6.395  0.8074  0.0782  0.8876
   87MOL   H15238164   0.401   2.227   6.630 -0.7411  0.2995  0.2307
   87MOL   H15338165   0.343   2.363   6.550 -0.1024  0.4063  0.9475
   87MOL   H15438166   0.374   2.272   6.837  2.3337  0.6473  4.7021
   87MOL   H15538167   0.250   2.227   6.945  1.5686 -0.5745  0.2707
   87MOL   C15638168   0.301   2.427   6.981  0.0801 -0.6481 -0.0800
   87MOL   C15738169   0.371   2.555   6.919 -0.1203 -0.4221  0.2502
   87MOL   C15838170   0.383   2.669   7.020  0.0253 -0.5974  0.1337
   87MOL   C15938171   0.439   2.794   6.942  0.0717 -0.1155 -0.0192
   87MOL   C16038172   0.568   2.764   6.864 -0.3043 -0.1504 -0.1586
   87MOL   C16138173   0.561   2.638   6.777  0.1813 -0.7683 -0.4812
   87MOL   C16238174   0.507   2.526   6.849 -0.2099  0.1571  0.5413
   87MOL   C16338175   0.382   2.371   7.100 -0.4107 -0.8917  0.0569
   87MOL   H16438176   0.207   2.458   7.027  0.2470 -0.9305  0.4523
   87MOL   H16538177   0.302   2.584   6.839  1.2112 -0.3445 -0.9020
   87MOL   H16638178   0.285   2.694   7.061 -0.1272  0.1744 -0.6908
   87MOL   H16738179   0.446   2.639   7.103 -1.8777 -1.8932  1.1605
   87MOL   H16838180   0.370   2.828   6.865  3.1676  2.7010 -1.6353
   87MOL   H16938181   0.446   2.881   7.007 -2.1613  0.5841 -0.6496
   87MOL   H17038182   0.654   2.753   6.931 -1.6263 -2.2986  1.2401
   87MOL   H17138183   0.583   2.858   6.811 -1.7693  0.7808  1.0152
   87MOL   H17238184   0.664   2.614   6.749  0.6330  0.0489  0.4468
   87MOL   H17338185   0.505   2.662   6.687  0.4272 -1.5620 -0.8501
   87MOL   H17438186   0.501   2.441   6.782 -3.0980  1.5907 -1.0890
   87MOL   H17538187   0.578   2.502   6.929 -0.6477  0.3030  0.9805
   87MOL   H17638188   0.448   2.444   7.146 -1.2042 -0.5218  0.6181
   87MOL   H17738189   0.454   2.299   7.062  1.1230  0.4236  0.4217
   87MOL   C17838190   0.283   2.317   7.203 -0.2931  0.7463  0.0522
   87MOL   C17938191   0.344   2.191   7.286  0.2009 -0.1120  0.3308
   87MOL   C18038192   0.452   2.236   7.381  0.6054 -0.2577  0.2615
   87MOL   C18138193   0.512   2.124   7.472 -0.2020  0.0407  0.7680
   87MOL   C18238194   0.553   2.000   7.384 -0.1602 -0.4312 -0.0111
   87MOL   C18338195   0.440   1.960   7.287 -0.1496  0.1951 -0.3205
   87MOL   C18438196   0.389   2.072   7.193  0.2545 -0.7458 -0.4503
   87MOL   C18538197   0.225   2.433   7.285  0.1547  0.4462 -0.4160
   87MOL   H18638198   0.208   2.270   7.139  0.9729 -0.1891 -0.7569
   87MOL   H18738199   0.263   2.146   7.343 -1.3444  0.6030 -1.2339
   87MOL   H18838200   0.535   2.280   7.325 -1.1860 -1.6434 -3.6738
   87MOL   H18938201   0.411   2.309   7.451  0.3260  1.0922 -1.2700
   87MOL   H19038202   0.439   2.083   7.542 -1.1995  0.0573 -0.2500
   87MOL   H19138203   0.598   2.169   7.520  1.5941 -3.2666  0.7525
   87MOL   H19238204   0.645   2.019   7.327  1.0763 -3.2124  0.9747
   87MOL   H19338205   0.566   1.910   7.443  1.0068 -1.5127 -1.8586
   87MOL   H19438206   0.359   1.921   7.350  1.5541 -1.6619  0.7818
   87MOL   H19538207   0.478   1.877   7.228 -1.2773 -0.9874  0.5812
   87MOL   H19638208   0.470   2.112   7.132 -0.8116 -1.5434 -2.3978
   87MOL   H19738209   0.307   2.042   7.128 -1.4358  3.1440 -0.2619
   87MOL   H19838210   0.303   2.463   7.355 -1.5148  0.5762  1.4131
   87MOL   H19938211   0.226   2.525   7.227 -1.1250  0.4129 -0.4973
   87MOL   C20038212   0.099   2.404   7.358 -0.3646  0.1174  0.5318
   87MOL   C20138213   0.065   2.463   7.492  0.0041  0.2207 -0.5909
   87MOL   C20238214   0.153   2.401   7.604 -0.2186 -0.1360  0.1364
   87MOL   C20338215   0.109   2.455   7.744 -0.3752  0.0809 -0.1454
   87MOL   C20438216   0.109   2.610   7.753  0.0782  0.2208  0.0043
   87MOL   C20538217   0.029   2.663   7.635 -0.4824 -0.1353  0.4577
   87MOL   C20638218   0.074   2.615   7.499  0.0828  0.1807  0.0687
   87MOL   C20738219   7.748   2.398   7.262  0.1568 -0.5258 -0.6236
   87MOL   H20838220   0.111   2.297   7.377  0.8581 -0.2957 -2.3938
   87MOL   H20938221   7.736   2.426   7.512  0.1803  0.2020  0.3053
   87MOL   H21038222   0.257   2.420   7.579 -1.2640  1.2550 -3.4416
   87MOL   H21138223   0.131   2.294   7.613 -2.2310  0.1989 -0.5218
   87MOL   H21238224   0.006   2.424   7.763 -0.2299  0.9746  2.2492
   87MOL   H21338225   0.171   2.413   0.051  0.1415 -0.5656 -0.8873
   87MOL   H21438226   0.055   2.649   0.067  0.6755  1.7556 -0.2816
   87MOL   H21538227   0.207   2.657   7.762  0.1537  0.0532  0.0395
   87MOL   H21638228   7.700   2.624   7.643 -0.7420  0.2522 -0.8103
   87MOL   H21738229   0.023   2.772   7.631 -4.0362 -0.1767  2.1361
   87MOL   H21838230   0.015   2.656   7.417  0.7264  1.1601  0.0957
   87MOL   H21938231   0.177   2.648   7.490  0.0746  0.1754 -0.0472
   87MOL   H22038232   7.684   2.485   7.281 -1.2110 -1.6648  0.1607
   87MOL   H22138233   7.767   2.408   7.155 -3.1073  1.2232 -1.1319
   87MOL   C22238234   7.664   2.270   7.284 -0.3107 -0.1975  0.5134
   87MOL   C22338235   7.514   2.292   7.259  0.0003 -0.3190  0.3140
   87MOL   C22438236   7.485   2.340   7.110 -0.6193  0.7505  0.2365
   87MOL   C22538237   7.338   2.367   7.085  0.2335  0.2664  0.3122
   87MOL   C22638238   7.278   2.465   7.184  0.2490  0.1961  0.5260
   87MOL   C22738239   7.304   2.416   7.333 -0.1159 -0.0639 -0.0572
   87MOL   C22838240   7.447   2.388   7.365  0.1966  0.4110  0.2957
   87MOL   C22938241   7.721   2.149   7.213  0.2145 -0.2256 -0.4103
   87MOL   H23038242   7.668   2.239   7.389  0.0954 -2.4552 -0.1535
   87MOL   H23138243   7.462   2.196   7.266 -0.9324  0.1474 -0.0316
   87MOL   H23238244   7.551   2.426   7.102 -0.3476  0.5283  0.0905
   87MOL   H23338245   7.514   2.261   7.042 -2.0244 -1.0038  1.6321
   87MOL   H23438246   7.279   2.275   7.088 -1.2211  1.2015  0.9839
   87MOL   H23538247   7.314   2.413   6.989 -0.9151 -2.5091 -0.7892
   87MOL   H23638248   7.331   2.554   7.152 -1.5398  0.6412 -1.2586
   87MOL   H23738249   7.171   2.474   7.162  0.0436 -1.3139  0.8075
   87MOL   H23838250   7.244   2.326   7.347 -0.7377 -0.0900 -2.6869
   87MOL   H23938251   7.265   2.496   7.395  1.8254  0.0383  1.0683
   87MOL   H24038252   7.498   2.483   7.382 -1.2914  1.1891  0.4838
   87MOL   H24138253   7.452   2.338   7.462  0.9179  0.3211  0.2135
   87MOL   H24238254   0.052   2.141   7.249  0.1553  2.0274  0.3655
   87MOL   H24338255   7.728   2.174   7.107  3.3311  0.3104 -0.1439
   87MOL   C24438256   7.662   2.010   7.237  0.1117 -0.0973  0.7324
   87MOL   C24538257   7.657   1.950   7.381 -0.3748  0.3513 -0.6617
   87MOL   C24638258   7.546   1.994   7.469  0.1457 -0.2612  0.1717
   87MOL   C24738259   7.538   1.918   7.609 -0.4386  0.1781  0.1429
   87MOL   C24838260   7.671   1.930   7.685 -0.0946 -0.8984 -0.4081
   87MOL   C24938261   0.012   1.882   7.598 -0.4639  0.3332  0.1183
   87MOL   C25038262   0.018   1.956   7.462  0.2725 -0.0607  0.2313
   87MOL   C25138263   7.750   1.928   7.138  0.3994 -1.0547 -0.0905
   87MOL   H25238264   7.567   2.016   7.184  0.6121  1.6028 -0.0152
   87MOL   H25338265   7.647   1.842   7.378  1.8145  0.0575  1.2185
   87MOL   H25438266   7.455   1.961   7.419  0.8337 -0.4528 -0.9774
   87MOL   H25538267   7.556   2.100   7.493 -0.5982 -0.0194 -0.5417
   87MOL   H25638268   7.449   1.951   7.663  0.2057 -0.7240  1.7937
   87MOL   H25738269   7.505   1.815   7.601 -0.2166  0.0851  0.4194
   87MOL   H25838270   7.685   2.032   7.721 -1.1894 -1.5600  2.0384
   87MOL   H25938271   7.681   1.878   0.008 -1.3138 -1.7275 -0.7124
   87MOL   H26038272   0.007   1.774   7.582 -1.0675  0.3702  0.0129
   87MOL   H26138273   0.111   1.897   7.640 -1.3180  2.5955  1.4503
   87MOL   H26238274   0.043   2.061   7.480 -1.5249  0.4524 -0.2440
   87MOL   H26338275   0.112   1.927   7.414  2.0645  1.8858  2.4240
   87MOL   H26438276   0.079   1.914   7.177 -0.3770 -1.9990  1.6161
   87MOL   H26538277   7.760   1.974   7.039  0.6874  1.0038  0.8743
   87MOL   C26638278   7.709   1.771   7.125  0.1721 -0.1470  0.1430
   87MOL   C26738279   7.564   1.742   7.067  0.1599  0.6687  0.0666
   87MOL   C26838280   7.532   1.597   7.077  0.7419  0.2415 -0.3571
   87MOL   C26938281   7.387   1.569   7.043  0.0737 -0.0538 -0.4024
   87MOL   C27038282   7.359   1.608   6.901 -0.6399  0.5525  0.0646
   87MOL   C27138283   7.395   1.751   6.873 -0.3476 -0.2632  0.1325
   87MOL   C27238284   7.539   1.795   6.923  0.4021  0.4807  0.5691
   87MOL   C27338285   0.053   1.696   7.048  0.2314 -0.3838 -0.0981
   87MOL   H27438286   7.710   1.718   7.220 -0.1862 -1.9521 -0.8466
   87MOL   H27538287   7.490   1.796   7.126 -0.3946 -0.8258  0.7729
   87MOL   H27638288   7.589   1.526   7.017 -0.5107  0.6686 -2.1175
   87MOL   H27738289   7.554   1.571   7.180  0.5007 -1.6061 -0.7498
   87MOL   H27838290   7.328   1.615   7.122 -1.7840  0.7402 -2.2035
   87MOL   H27938291   7.368   1.463   7.060 -1.4979  0.2514 -0.1758
   87MOL   H28038292   7.415   1.551   6.827  0.1552 -0.3064  1.3164
   87MOL   H28138293   7.251   1.589   6.899 -0.9697  2.2470  0.3270
   87MOL   H28238294   7.330   1.817   6.931 -0.8684  0.2868 -1.0537
   87MOL   H28338295   7.374   1.771   6.767  1.1052 -0.1077 -0.1404
   87MOL   H28438296   7.550   1.902   6.903 -1.9033  0.8100  0.9696
   87MOL   H28538297   7.616   1.755   6.858  0.3631  0.1473  0.7279
   87MOL   H28638298   0.140   1.762   7.048  0.8577 -1.2081 -0.7266
   87MOL   H28738299   0.021   1.691   6.944  0.0969  1.3647 -0.1659
   87MOL   C28838300   0.104   1.565   7.106  1.1821  1.0410  0.8056
   87MOL   C28938301   0.164   1.568   7.246  0.6144  0.4644 -0.0965
   87MOL   C29038302   0.179   1.432   7.326 -0.1188  0.1527 -0.2483
   87MOL   C29138303   0.221   1.445   7.470 -0.4174  0.9806  0.5585
   87MOL   C29238304   0.358   1.508   7.484  0.6778 -0.2479 -0.1234
   87MOL   C29338305   0.349   1.642   7.401 -0.0452 -0.0757 -0.2635
   87MOL   C29438306   0.303   1.634   7.252  0.2420 -0.3396  0.3774
   87MOL   C29538307   0.196   1.509   6.996 -0.3765 -0.2953 -0.2707
   87MOL   H29638308   0.021   1.496   7.116  0.7207  1.3922 -0.4382
   87MOL   H29738309   0.097   1.617   7.316 -1.0503 -2.8874  0.7539
   87MOL   H29838310   0.082   1.384   7.331 -0.6301  0.8446 -2.8813
   87MOL   H29938311   0.247   1.375   7.263  1.2678  0.8156  0.6163
   87MOL   H30038312   0.149   1.503   7.528 -2.6018 -1.3869  0.2933
   87MOL   H30138313   0.229   1.344   7.511 -1.4195  0.4265 -0.5987
   87MOL   H30238314   0.439   1.444   7.448  1.7989  1.5572 -0.9207
   87MOL   H30338315   0.370   1.539   7.588  0.2432 -0.9060  0.1267
   87MOL   H30438316   0.447   1.688   7.406  0.6218 -1.4083 -0.8741
   87MOL   H30538317   0.286   1.711   7.457  0.3430 -1.1225  1.5104
   87MOL   H30638318   0.379   1.590   7.187 -0.5946  1.6332 -2.0440
   87MOL   H30738319   0.298   1.735   7.211 -0.6783 -0.0840  1.1037
   87MOL   H30838320   0.265   1.587   6.963 -0.7033  1.4718  3.0730
   87MOL   H30938321   0.269   1.443   7.043  1.3985  1.6448 -0.1912
   87MOL   C31038322   0.127   1.411   6.899  0.1436  0.2465 -0.3953
   87MOL   C31138323   0.175   1.419   6.752  0.2440 -0.0239 -0.1345
   87MOL   C31238324   0.152   1.558   6.685 -0.0813  0.0939  0.0587
   87MOL   C31338325   0.167   1.560   6.537  0.0044 -0.2384  0.0411
   87MOL   C31438326   0.310   1.506   6.498  0.6787  0.2672 -0.0390
   87MOL   C31538327   0.345   1.376   6.563  0.1903  0.4822 -0.0761
   87MOL   C31638328   0.323   1.372   6.721 -0.6730 -0.7494 -0.7465
   87MOL   C31738329   0.126   1.261   6.962  0.6143 -0.2461 -0.3972
   87MOL   H31838330   0.021   1.438   6.896 -0.1585 -0.9092 -0.5189
   87MOL   H31938331   0.116   1.346   6.697 -0.7249  0.6126  0.0520
   87MOL   H32038332   0.053   1.595   6.710  0.4383 -0.0193  2.3914
   87MOL   H32138333   0.223   1.630   6.726 -0.1116  0.0602  0.1697
   87MOL   H32238334   0.138   1.658   6.498 -0.7170 -0.5155 -0.1415
   87MOL   H32338335   0.101   1.482   6.498 -0.2012 -0.2974  0.5048
   87MOL   H32438336   0.316   1.506   6.389  2.8295  1.4792  0.0482
   87MOL   H32538337   0.385   1.582   6.520  1.1991  0.2032 -1.5247
   87MOL   H32638338   0.292   1.298   6.508  0.4471  1.1241 -1.2416
   87MOL   H32738339   0.450   1.351   6.547  0.5522 -0.0770  2.8361
   87MOL   H32838340   0.388   1.427   6.789 -0.1030 -1.6950 -0.5204
   87MOL   H32938341   0.344   1.268   6.745  0.4018 -0.1744  0.8938
   87MOL   H33038342   0.088   1.258   7.065  0.6098 -2.1127 -0.4274
   87MOL   H33138343   0.230   1.231   6.950  1.0874  1.2621 -0.1924
   87MOL   C33238344   0.034   1.158   6.896 -0.5508 -0.6770 -0.2855
   87MOL   C33338345   7.652   1.184   6.918  0.6074 -0.0835 -0.5100
   87MOL   C33438346   7.614   1.136   7.062  0.4093 -0.3421  0.9360
   87MOL   C33538347   7.474   1.189   7.089 -0.0691  0.3457  0.3913
   87MOL   C33638348   7.371   1.141   6.981  0.4698 -0.1507 -0.5931
   87MOL   C33738349   7.420   1.162   6.840 -0.3988 -0.2747  0.3436
   87MOL   C33838350   7.566   1.128   6.810 -0.1700 -0.2525 -0.3608
   87MOL   C33938351   0.083   1.015   6.925  0.2421  0.2911  0.5255
   87MOL   H34038352   0.055   1.163   6.789 -3.2979 -1.1661 -0.8914
   87MOL   H34138353   7.631   1.290   6.903  1.6205  0.0889 -0.7082
   87MOL   H34238354   7.609   1.027   7.061 -1.3050 -0.3039  3.0913
   87MOL   H34338355   7.691   1.168   7.133  1.8920  0.4697 -0.9670
   87MOL   H34438356   7.450   1.149   7.187  0.7253  2.0289  1.3054
   87MOL   H34538357   7.477   1.298   7.099 -0.7053  0.1674  2.7293
   87MOL   H34638358   7.357   1.035   7.000 -2.4115  0.4786  1.1761
   87MOL   H34738359   7.272   1.186   6.988  0.3793 -0.2644 -1.1912
   87MOL   H34838360   7.397   1.268   6.825  1.4180 -0.1346 -1.7157
   87MOL   H34938361   7.357   1.117   6.763  1.6458 -0.7217 -1.1060
   87MOL   H35038362   7.593   1.171   6.714  2.4702 -1.3521 -0.1671
   87MOL   H35138363   7.579   1.020   6.804  2.1486 -0.1124  1.3591
   87MOL   H35238364   7.772   0.952   6.892 -0.4433  1.5291 -0.1491
   87MOL   H35338365   0.088   1.008   7.034 -0.4619  1.9058  0.6754
   87MOL   C35438366   0.217   0.971   6.854 -0.9235 -0.0613 -0.8484
   87MOL   C35538367   0.222   0.971   6.698  0.5232  0.2121  0.2730
   87MOL   C35638368   0.113   0.891   6.634 -0.3842  0.1548  0.5912
   87MOL   C35738369   0.116   0.930   6.480  0.3145  0.7725 -0.5818
   87MOL   C35838370   0.243   0.888   6.415  0.0131  0.1122  0.1251
   87MOL   C35938371   0.367   0.956   6.479 -0.4273  0.4853 -0.0606
   87MOL   C36038372   0.359   0.943   6.628  0.3571  0.7626  0.7289
   87MOL   C36138373   0.245   0.821   6.908  0.1803 -0.4484  0.5344
   87MOL   H36238374   0.290   1.040   6.896 -1.4096 -0.7106  1.1204
   87MOL   H36338375   0.203   1.076   6.677 -1.5149 -0.2341 -0.2375
   87MOL   H36438376   0.024   0.932   6.682 -0.9971 -1.5104  0.8938
   87MOL   H36538377   0.116   0.787   6.667  1.1057  1.1149  3.6564
   87MOL   H36638378   0.034   0.887   6.423  1.2596 -1.7784 -0.0847
   87MOL   H36738379   0.096   1.037   6.486  0.0374  0.7131 -0.4778
   87MOL   H36838380   0.250   0.780   6.430 -0.0200  0.3094  1.6896
   87MOL   H36938381   0.242   0.915   6.310  0.5956 -1.2799 -0.2614
   87MOL   H37038382   0.465   0.928   6.441 -0.1999 -0.7397  1.4061
   87MOL   H37138383   0.360   1.058   6.441 -4.3182 -0.8339 -3.2278
   87MOL   H37238384   0.433   1.012   6.668  1.4687 -0.6971  1.2177
   87MOL   H37338385   0.395   0.841   6.645 -2.1672 -0.4447 -0.7749
   87MOL   H37438386   0.316   0.772   6.841 -1.8170 -0.8224 -1.3830
   87MOL   H37538387   0.155   0.762   6.893 -0.4436  0.6229  0.0198
   87MOL   C37638388   0.312   0.808   7.050 -0.3673  0.3819  0.5176
   87MOL   C37738389   0.251   0.696   7.145  0.5763 -0.1551  0.6024
   87MOL   C37838390   0.283   0.550   7.109  0.3193 -0.2327 -0.4043
   87MOL   C37938391   0.226   0.457   7.214  0.4219 -0.1600  0.5807
   87MOL   C38038392   0.074   0.474   7.224  0.2042 -0.3581  0.2687
   87MOL   C38138393   0.040   0.617   7.269 -0.0991  0.1405  0.6343
   87MOL   C38238394   0.106   0.719   7.173  0.6262 -0.2137 -0.0388
   87MOL   C38338395   0.469   0.786   7.048  0.1180 -0.2194  0.0715
   87MOL   H38438396   0.288   0.896   7.109  1.9306  0.6387  1.0977
   87MOL   H38538397   0.289   0.713   7.246  0.3625  2.1952  0.3028
   87MOL   H38638398   0.245   0.528   7.009 -0.4003 -0.5153 -0.0720
   87MOL   H38738399   0.390   0.531   7.114  0.1677 -1.2019 -0.7689
   87MOL   H38838400   0.270   0.488   7.309  2.7336 -0.1248 -0.4476
   87MOL   H38938401   0.250   0.356   7.180  1.1317 -0.1933  1.1682
   87MOL   H39038402   0.022   0.443   7.133 -0.8913 -2.6216  1.6148
   87MOL   H39138403   0.040   0.410   7.306  0.3396  0.7425  1.2051
   87MOL   H39238404   7.707   0.640   7.285 -0.3783  0.5805 -1.6875
   87MOL   H39338405   0.093   0.637   7.363  1.7969  1.1286 -0.6107
   87MOL   H39438406   0.053   0.700   7.080 -0.1896  0.3775  0.2971
   87MOL   H39538407   0.085   0.823   7.199  1.8139  0.1599 -0.5842
   87MOL   H39638408   0.489   0.693   6.996 -0.3320  0.8300 -2.0553
   87MOL   H39738409   0.504   0.775   7.151  0.4337 -0.7984 -0.1005
   87MOL   C39838410   0.544   0.899   6.982 -0.1804 -0.4561 -0.4942
   87MOL   C39938411   0.523   1.034   7.055 -0.3590 -0.1816  0.5659
   87MOL   C40038412   0.574   1.044   7.204  0.1355 -0.2942  0.1030
   87MOL   C40138413   0.554   1.183   7.266 -0.3755  0.2000  0.0126
   87MOL   C40238414   0.607   1.299   7.186  0.5035  0.2091 -0.4682
   87MOL   C40338415   0.545   1.287   7.045  0.2976  0.0861 -0.9908
   87MOL   C40438416   0.580   1.156   6.972  0.8130  0.0621  0.0951
   87MOL   C40538417   0.695   0.855   6.967  0.4115 -0.5233 -0.2397
   87MOL   H40638418   0.510   0.908   6.879  0.9920 -2.0932 -1.0620
   87MOL   H40738419   0.417   1.061   7.052 -0.7247 -1.6837 -3.2660
   87MOL   H40838420   0.680   1.018   7.210  0.4052  0.5368 -1.0507
   87MOL   H40938421   0.519   0.972   7.265  1.1602 -0.6377  0.6440
   87MOL   H41038422   0.590   1.176   7.368 -2.2051 -0.2651  0.6493
   87MOL   H41138423   0.447   1.206   7.271 -0.6756 -1.6419  2.9327
   87MOL   H41238424   0.715   1.290   7.181  0.4687 -0.8343  0.4346
   87MOL   H41338425   0.578   1.385   7.245 -2.6597 -1.5287  0.6703
   87MOL   H41438426   0.437   1.305   7.051  0.6812  2.6166 -1.0099
   87MOL   H41538427   0.573   1.372   6.982  0.7543  1.7804  1.4173
   87MOL   H41638428   0.542   1.159   6.870  0.6388  0.0971  0.1607
   87MOL   H41738429   0.689   1.147   6.964  0.6658  0.1827 -2.5302
   87MOL   H41838430   0.764   0.938   6.952  3.3043 -2.3793  2.0673
   87MOL   H41938431   0.726   0.810   7.062  0.7027 -0.2246 -0.1909
   87MOL   C42038432   0.734   0.762   6.850  0.2111  0.2787 -0.1034
   87MOL   C42138433   0.846   0.657   6.874  0.0962 -0.8957 -0.3868
   87MOL   C42238434   0.959   0.716   6.954  0.0173  0.3384  0.6895
   87MOL   C42338435   1.075   0.620   6.984 -0.1112 -0.0588  0.2142
   87MOL   C42438436   1.141   0.569   6.852 -0.0744 -0.7527 -0.3423
   87MOL   C42538437   1.030   0.507   6.771 -0.3930 -0.8269 -0.6671
   87MOL   C42638438   0.917   0.611   6.741 -0.1150 -0.0370  0.2589
   87MOL   C42738439   0.743   0.837   6.720  0.5471 -0.1870  0.0341
   87MOL   H42838440   0.643   0.701   6.850  0.4027 -0.0181  0.7586
   87MOL   H42938441   0.815   0.571   6.933 -1.7805 -0.5245 -0.7820
   87MOL   H43038442   0.996   0.804   6.900  0.7231 -0.8666 -0.8138
   87MOL   H43138443   0.933   0.758   7.051  0.8746  0.9460  0.6659
   87MOL   H43238444   1.145   0.686   7.036 -2.6455  0.3920  3.2158
   87MOL   H43338445   1.047   0.541   7.054  0.9932 -0.9834 -0.3865
   87MOL   H43438446   1.219   0.495   6.874  2.0148  1.2672 -0.7599
   87MOL   H43538447   1.204   0.641   6.799 -2.2601  0.4055 -1.4514
   87MOL   H43638448   0.985   0.423   6.824 -0.4034 -1.3304 -1.4660
   87MOL   H43738449   1.068   0.475   6.674 -0.3058 -0.4511 -0.7607
   87MOL   H43838450   0.955   0.700   6.691  0.5883 -1.3566 -1.6392
   87MOL   H43938451   0.852   0.560   6.670  0.7295  0.0223 -0.5779
   87MOL   H44038452   0.662   0.907   6.701 -0.0921 -0.6501  1.0105
   87MOL   H44138453   0.834   0.897   6.710 -0.7418  1.8606  0.3621
   87MOL   H44238454   0.741   0.769   6.635  0.7292 -0.6153  0.3689
   88MOL     C138455   5.429   0.557   2.305 -0.3336 -0.4766 -0.1729
   88MOL     C238456   5.370   0.702   2.322  0.4664 -0.5928  0.8596
   88MOL     C338457   5.375   0.779   2.190  0.4083 -0.3784 -0.2028
   88MOL     C438458   5.301   0.918   2.208 -0.3321  0.1072  0.0891
   88MOL     C538459   5.360   1.006   2.312 -0.4516  0.0866  0.0476
   88MOL     C638460   5.362   0.930   2.450  0.0135  0.2668  0.2119
   88MOL     C738461   5.428   0.789   2.431  0.6757 -0.1286 -0.0980
   88MOL     C838462   5.381   0.461   2.422 -0.8120 -0.2867  0.4107
   88MOL     H938463   5.415   0.515   2.205  0.4128 -3.3561  0.8742
   88MOL    H1038464   5.262   0.700   2.336  0.6604 -0.4263  2.3972
   88MOL    H1138465   5.479   0.789   2.157  0.2585  1.8747 -0.0663
   88MOL    H1238466   5.323   0.725   2.110 -1.0079  0.4896  0.1044
   88MOL    H1338467   5.195   0.907   2.234 -0.0116 -0.3236  1.2262
   88MOL    H1438468   5.308   0.966   2.110  0.4099 -1.0543 -0.4333
   88MOL    H1538469   5.312   1.103   2.301  1.5920  0.9719 -1.3506
   88MOL    H1638470   5.465   1.018   2.284 -0.4729  1.6775  0.6411
   88MOL    H1738471   5.411   0.972   2.538  0.3128 -1.0188  0.6726
   88MOL    H1838472   5.254   0.920   2.465 -0.3649  1.1233 -1.8514
   88MOL    H1938473   5.419   0.739   2.527 -0.6863 -1.7453 -1.0096
   88MOL    H2038474   5.533   0.798   2.405  0.6091 -1.0041 -0.6986
   88MOL    H2138475   5.430   0.492   2.514 -1.8926  1.4940  0.4189
   88MOL    H2238476   5.429   0.366   2.397 -0.2293  0.1606 -0.1908
   88MOL    H2338477   5.537   0.565   2.318 -0.7920 -0.7931  4.5800
   88MOL    C2438478   5.234   0.440   2.450  0.3684  0.1561  0.0818
   88MOL    C2538479   5.143   0.426   2.325 -0.1117  0.1276  0.1408
   88MOL    C2638480   4.996   0.437   2.365  0.4484 -0.2619  0.0903
   88MOL    C2738481   4.898   0.439   2.249 -0.3097  0.3215  0.9952
   88MOL    C2838482   4.926   0.309   2.168 -0.4792 -0.5049 -0.1235
   88MOL    C2938483   5.072   0.294   2.111 -0.6243  0.2444 -0.2055
   88MOL    C3038484   5.159   0.298   2.240 -0.8236 -0.1630  0.4538
   88MOL    C3138485   5.212   0.321   2.548 -0.2448  0.1202  0.1056
   88MOL    H3238486   5.188   0.519   2.508  1.8538  1.0819  0.0133
   88MOL    H3338487   5.164   0.519   2.272 -0.6814 -0.0851 -0.4600
   88MOL    H3438488   4.972   0.529   2.419 -3.4642 -1.9370  1.3790
   88MOL    H3538489   4.959   0.361   2.434 -0.3906  0.1386  0.0922
   88MOL    H3638490   4.796   0.445   2.285 -0.3077 -0.4386  1.1444
   88MOL    H3738491   4.913   0.523   2.181 -4.1029 -0.4175 -0.8455
   88MOL    H3838492   4.854   0.311   2.086  0.2691  2.9279 -0.7657
   88MOL    H3938493   4.902   0.222   2.230 -3.8808 -0.3403 -1.0691
   88MOL    H4038494   5.075   0.200   2.057  0.0436 -0.1857  0.5712
   88MOL    H4138495   5.095   0.369   2.035 -1.0917 -0.3958 -0.9815
   88MOL    H4238496   5.140   0.212   2.304 -0.9342 -0.2994  0.2390
   88MOL    H4338497   5.265   0.289   2.217 -0.5872 -0.0312  1.4929
   88MOL    H4438498   5.264   0.236   2.503  1.6314  1.4813 -0.3601
   88MOL    H4538499   5.105   0.301   2.559 -0.8012  2.8476 -0.0840
   88MOL    C4638500   5.269   0.332   2.697  0.6785 -0.0349  0.1149
   88MOL    C4738501   5.311   0.199   2.761 -0.1576 -0.3776 -0.0350
   88MOL    C4838502   5.436   0.128   2.698  0.3889 -0.4937  0.5266
   88MOL    C4938503   5.476   7.766   2.767 -0.1111  0.5548  0.1585
   88MOL    C5038504   5.350   7.680   2.763 -0.5565 -0.5342  0.6700
   88MOL    C5138505   5.237   7.742   2.840  0.1803  0.5686 -0.1716
   88MOL    C5238506   5.194   0.100   2.767 -0.9151 -0.6680 -0.2870
   88MOL    C5338507   5.159   0.416   2.780  0.3641  0.5492  0.6583
   88MOL    H5438508   5.361   0.389   2.685 -0.2458  1.7197  1.1219
   88MOL    H5538509   5.343   0.222   2.863 -0.0567  0.6074 -0.2813
   88MOL    H5638510   5.416   0.107   2.593  2.4100  0.7477 -0.1370
   88MOL    H5738511   5.522   0.195   2.692  1.2873 -1.6801 -0.1066
   88MOL    H5838512   5.503   0.009   2.871 -1.0591  1.5157  0.2702
   88MOL    H5938513   5.562   7.727   2.713 -1.2168 -2.1758  0.2754
   88MOL    H6038514   5.306   7.666   2.665  1.7240  1.5529 -0.7309
   88MOL    H6138515   5.376   7.586   2.811 -0.8730 -0.1975  1.5163
   88MOL    H6238516   5.261   7.764   2.944 -2.0853 -1.5147  0.8294
   88MOL    H6338517   5.159   7.667   2.831  0.5854  0.1367 -0.1694
   88MOL    H6438518   5.163   0.078   2.665 -0.8096  2.2012 -0.9906
   88MOL    H6538519   5.104   0.129   2.822 -0.8619  0.3432 -0.7240
   88MOL    H6638520   5.074   0.350   2.799 -0.8033  1.7499 -0.3132
   88MOL    H6738521   5.121   0.489   2.709  0.0970 -0.7864 -0.5782
   88MOL    C6838522   5.201   0.472   2.918 -0.1555 -0.2792 -0.5956
   88MOL    C6938523   5.249   0.620   2.920  0.1017 -0.2766  0.7933
   88MOL    C7038524   5.288   0.669   3.067 -0.2405  0.2138 -0.0103
   88MOL    C7138525   5.344   0.807   3.067  0.7813 -0.3484 -0.1931
   88MOL    C7238526   5.465   0.825   2.969 -0.1969  0.5415 -0.1577
   88MOL    C7338527   5.413   0.786   2.827 -0.4646  0.0909 -0.0849
   88MOL    C7438528   5.370   0.638   2.831 -0.0090  0.5373 -0.4246
   88MOL    C7538529   5.096   0.438   3.025 -0.2352 -0.0486 -0.2906
   88MOL    H7638530   5.289   0.416   2.949  0.6228  1.7729  1.0596
   88MOL    H7738531   5.167   0.681   2.882 -0.5125 -1.0554  0.8454
   88MOL    H7838532   5.367   0.605   3.107 -1.1932  0.2873  2.0642
   88MOL    H7938533   5.197   0.655   3.125 -1.1180 -0.3250 -1.4796
   88MOL    H8038534   5.270   0.880   3.034  3.1379  0.9267 -2.8183
   88MOL    H8138535   5.378   0.847   3.163  0.5474  0.5026 -0.4520
   88MOL    H8238536   5.539   0.750   2.997 -0.9344 -0.6425 -1.3100
   88MOL    H8338537   5.517   0.921   2.964 -0.3271  0.5690 -1.1529
   88MOL    H8438538   5.490   0.814   2.755 -1.1889  1.3724 -0.3737
   88MOL    H8538539   5.323   0.843   2.803  0.0109  0.6768 -0.5126
   88MOL    H8638540   5.453   0.577   2.868 -1.4743 -1.6617 -0.6969
   88MOL    H8738541   5.348   0.599   2.732 -2.7448 -0.5011  0.5490
   88MOL    H8838542   5.088   0.330   3.018  2.7913 -0.3271 -0.1346
   88MOL    H8938543   5.135   0.460   3.125 -0.7995 -2.3168  0.4590
   88MOL    C9038544   4.957   0.514   3.038  0.3463 -0.6429  0.1510
   88MOL    C9138545   4.876   0.553   2.906 -0.0816 -0.7816 -0.5351
   88MOL    C9238546   4.794   0.433   2.850 -0.0286  0.3778 -0.2145
   88MOL    C9338547   4.724   0.466   2.712 -0.0745 -0.2943  0.3833
   88MOL    C9438548   4.632   0.589   2.725 -0.4354 -0.0438 -0.1808
   88MOL    C9538549   4.696   0.714   2.788 -0.3198 -0.9858 -0.7695
   88MOL    C9638550   4.770   0.664   2.923 -0.2401  1.3838  0.5698
   88MOL    C9738551   4.862   0.452   3.149 -0.1631 -0.0021 -0.7731
   88MOL    H9838552   4.988   0.613   3.072 -2.1118  0.5390 -0.8282
   88MOL    H9938553   4.953   0.589   2.838 -1.0720  1.4209 -0.5452
   88MOL   H10038554   4.716   0.402   2.920  1.7793 -0.8884  1.2942
   88MOL   H10138555   4.867   0.357   2.823 -0.1558 -0.0824  0.7076
   88MOL   H10238556   4.667   0.378   2.680  1.9338 -1.2225 -0.7546
   88MOL   H10338557   4.804   0.481   2.640  0.0552  0.1853  0.6239
   88MOL   H10438558   4.556   0.550   2.793 -0.7907 -1.3236 -1.2799
   88MOL   H10538559   4.567   0.612   2.640 -0.5275  0.5902  0.0651
   88MOL   H10638560   4.767   0.755   2.716  2.5718 -1.7796  1.5411
   88MOL   H10738561   4.630   0.794   2.820  1.3401 -0.5369  1.7136
   88MOL   H10838562   4.824   0.745   2.972  0.8876  0.9996 -0.0117
   88MOL   H10938563   4.684   0.637   2.984 -0.8480 -1.2712 -1.3953
   88MOL   H11038564   4.760   0.472   3.115  0.2141 -0.9900 -2.5520
   88MOL   H11138565   4.872   0.344   3.139  1.0493  0.1307 -1.1568
   88MOL   C11238566   4.872   0.489   3.300 -0.8242  0.0911 -0.2461
   88MOL   C11338567   4.774   0.410   3.398 -0.2555 -0.5772 -0.7098
   88MOL   C11438568   4.828   0.262   3.403 -0.0441 -0.0317  0.4759
   88MOL   C11538569   4.746   0.171   3.498  0.3778  0.8991  0.3325
   88MOL   C11638570   4.597   0.168   3.451  0.3925  0.2940 -0.1007
   88MOL   C11738571   4.545   0.312   3.445  0.3868  0.1744  0.1790
   88MOL   C11838572   4.632   0.405   3.353 -0.3275 -0.6057  0.3150
   88MOL   C11938573   4.854   0.642   3.317  0.2671 -0.7659  1.0732
   88MOL   H12038574   4.972   0.465   3.337 -1.4121  1.4102  2.3347
   88MOL   H12138575   4.779   0.454   3.497 -0.3155  1.7007 -1.6800
   88MOL   H12238576   4.929   0.264   3.444  0.2760  0.6725 -0.3142
   88MOL   H12338577   4.849   0.203   3.314 -1.8159  0.5826 -0.3765
   88MOL   H12438578   4.787   0.070   3.500  0.7202  0.7975 -4.8284
   88MOL   H12538579   4.750   0.211   3.599  0.5549  0.4660  0.4970
   88MOL   H12638580   4.596   0.125   3.351  2.6375  0.3695 -0.1888
   88MOL   H12738581   4.541   0.107   3.521 -1.9803  2.3321 -0.1310
   88MOL   H12838582   4.441   0.314   3.411 -0.4247  0.2594  2.5608
   88MOL   H12938583   4.553   0.351   3.547  1.8453 -1.6012  0.7552
   88MOL   H13038584   4.588   0.505   3.362 -2.0280 -1.3161  0.1288
   88MOL   H13138585   4.620   0.358   3.256 -0.8781 -0.3731  0.2692
   88MOL   H13238586   4.751   0.674   3.306  0.5019 -0.0165  1.0833
   88MOL   H13338587   4.892   0.704   3.237 -0.8568  1.9123  2.5560
   88MOL   C13438588   4.917   0.718   3.434 -0.0574  0.5282  0.1230
   88MOL   C13538589   4.871   0.868   3.453 -0.4134  0.3917  0.1037
   88MOL   C13638590   4.899   0.974   3.343 -0.1959 -0.2383 -0.2635
   88MOL   C13738591   4.825   1.108   3.382 -0.5935  0.1288 -0.3038
   88MOL   C13838592   4.872   1.163   3.516  0.1928 -0.1269  0.3490
   88MOL   C13938593   4.859   1.051   3.625  0.3273  0.1478 -0.1996
   88MOL   C14038594   4.927   0.924   3.582 -0.1787  0.8915 -0.0446
   88MOL   C14138595   5.072   0.708   3.429  0.1806  0.5563  0.7995
   88MOL   H14238596   4.887   0.659   3.521  2.2385 -1.7617 -0.5800
   88MOL   H14338597   4.763   0.852   3.462 -0.2750 -2.2844 -2.2224
   88MOL   H14438598   5.003   1.005   3.336  0.0143 -0.9760 -0.4186
   88MOL   H14538599   4.871   0.941   3.243  0.9121  0.0701 -0.6823
   88MOL   H14638600   4.718   1.088   3.391 -0.3941 -0.2695  1.4656
   88MOL   H14738601   4.820   1.184   3.304  0.0669 -0.3976 -0.8632
   88MOL   H14838602   4.977   1.192   3.514  0.1440  0.0109 -1.0914
   88MOL   H14938603   4.817   1.251   3.548  2.4743  0.4029  2.9945
   88MOL   H15038604   4.756   1.029   3.652  0.0477 -0.7783 -1.9301
   88MOL   H15138605   4.916   1.088   3.710  0.3586 -0.9971  0.2924
   88MOL   H15238606   5.033   0.946   3.571 -0.0914  0.3346 -0.3697
   88MOL   H15338607   4.923   0.848   3.660 -3.0854  3.2322  2.1959
   88MOL   H15438608   5.108   0.807   3.401  2.0609 -0.2989  0.1248
   88MOL   H15538609   5.106   0.649   3.344  0.7733  0.6209  0.9860
   88MOL   C15638610   5.149   0.660   3.563  0.1177  0.4788 -0.1872
   88MOL   C15738611   5.299   0.695   3.551  0.3589 -0.6743 -0.6142
   88MOL   C15838612   5.375   0.653   3.424  0.7361  0.1942  0.0046
   88MOL   C15938613   5.528   0.683   3.427  0.0029  0.7874  0.7910
   88MOL   C16038614   5.550   0.833   3.450 -0.1748 -0.6078  0.4224
   88MOL   C16138615   5.477   0.886   3.579 -0.4473 -0.2472 -0.7808
   88MOL   C16238616   5.325   0.845   3.569 -0.1695  0.5460 -0.6747
   88MOL   C16338617   5.125   0.514   3.589  0.2188 -0.0608 -0.4737
   88MOL   H16438618   5.110   0.706   3.654 -0.4887 -1.2435  0.4531
   88MOL   H16538619   5.359   0.654   3.633  0.4802  3.3535  1.4095
   88MOL   H16638620   5.382   0.546   3.402  1.4689 -0.3272  2.5126
   88MOL   H16738621   5.334   0.706   3.338  1.5677 -0.5851 -0.8889
   88MOL   H16838622   5.572   0.638   3.516 -1.0202 -0.7207  0.5699
   88MOL   H16938623   5.575   0.644   3.337 -2.0262  0.6707 -0.2547
   88MOL   H17038624   5.500   0.879   3.364  0.2512 -0.9864 -0.0359
   88MOL   H17138625   5.653   0.866   3.464 -0.1167 -1.1024  1.1814
   88MOL   H17238626   5.489   0.994   3.576  0.5960 -0.3658 -1.2450
   88MOL   H17338627   5.529   0.840   3.662 -2.8472 -2.5512 -0.4792
   88MOL   H17438628   5.272   0.880   3.657  1.6577  2.0724 -0.1451
   88MOL   H17538629   5.279   0.896   3.484  2.1210  2.2539 -0.9599
   88MOL   H17638630   5.171   0.452   3.512 -0.8798  1.4435 -2.3790
   88MOL   H17738631   5.020   0.494   3.567 -0.1862 -0.4243  1.6260
   88MOL   C17838632   5.156   0.463   3.730 -0.2021 -0.4694  0.7437
   88MOL   C17938633   5.057   0.495   3.839  0.7304  0.3685  0.0618
   88MOL   C18038634   5.104   0.454   3.982  0.6819 -0.5118  0.2230
   88MOL   C18138635   4.993   0.485   4.086  0.5554 -0.3448  0.2568
   88MOL   C18238636   4.858   0.419   4.053  0.4219  1.0812 -0.1470
   88MOL   C18338637   4.811   0.481   3.918 -0.4819  0.1925 -0.1343
   88MOL   C18438638   4.913   0.447   3.807  0.1533  0.3329 -0.1431
   88MOL   C18538639   5.184   0.308   3.722 -0.0442  0.3044 -0.6910
   88MOL   H18638640   5.250   0.503   3.768 -0.5563  1.6023 -0.4799
   88MOL   H18738641   5.045   0.603   3.842 -0.4213  0.2688 -0.5820
   88MOL   H18838642   5.115   0.346   3.994 -1.6573 -0.8384 -0.2625
   88MOL   H18938643   5.200   0.494   4.013  1.0875 -0.6205 -0.8821
   88MOL   H19038644   4.990   0.594   4.077 -0.5504 -0.2956  1.1278
   88MOL   H19138645   5.029   0.459   4.186  0.2227 -2.4737 -0.1654
   88MOL   H19238646   4.881   0.314   4.043 -0.9495  0.5920  1.4661
   88MOL   H19338647   4.783   0.427   4.132  0.7714  1.1190  0.1809
   88MOL   H19438648   4.809   0.589   3.930  0.8620  0.2712 -0.4749
   88MOL   H19538649   4.711   0.455   3.885 -0.8304  0.1025  0.9496
   88MOL   H19638650   4.898   0.341   3.788  2.4238 -0.2355  1.1200
   88MOL   H19738651   4.882   0.498   3.715 -0.2541  2.2833  1.0427
   88MOL   H19838652   5.183   0.261   3.820 -0.8009 -0.3018 -0.9788
   88MOL   H19938653   5.100   0.258   3.673 -1.1455  0.2574  1.2057
   88MOL   C20038654   5.313   0.253   3.669 -0.3098  0.6158 -0.7491
   88MOL   C20138655   5.441   0.327   3.722 -0.3328 -0.3105 -0.0769
   88MOL   C20238656   5.471   0.303   3.867  0.2535  0.6726  0.4126
   88MOL   C20338657   5.601   0.375   3.916 -0.0623 -0.1140  0.3150
   88MOL   C20438658   5.728   0.352   3.824  0.5953  0.0907 -0.0594
   88MOL   C20538659   5.690   0.387   3.683  0.6589  0.0628 -0.0299
   88MOL   C20638660   5.567   0.308   3.632  0.0789 -0.5998  0.3143
   88MOL   C20738661   5.320   0.096   3.686  0.2913  0.1093 -0.0899
   88MOL   H20838662   5.308   0.280   3.564 -3.3757  2.2695 -0.2172
   88MOL   H20938663   5.419   0.434   3.723 -1.3386 -0.5115 -0.0688
   88MOL   H21038664   5.495   0.197   3.877  0.3919  0.5022 -1.4599
   88MOL   H21138665   5.385   0.324   3.930  0.7431  1.6350  0.7727
   88MOL   H21238666   5.575   0.480   3.927 -0.1518 -0.2770  1.6710
   88MOL   H21338667   5.627   0.343   4.017  0.3781 -0.6106  0.0508
   88MOL   H21438668   5.809   0.407   3.871  0.4968  1.5085 -1.5352
   88MOL   H21538669   5.752   0.246   3.832  0.8659  0.3816  4.5544
   88MOL   H21638670   5.679   0.494   3.697  0.6092  0.0402  0.1044
   88MOL   H21738671   5.768   0.364   3.611  0.7734  0.9214 -0.1857
   88MOL   H21838672   5.542   0.326   3.527 -1.5079 -1.2988  0.5496
   88MOL   H21938673   5.581   0.201   3.646  0.4226 -0.7521 -1.0395
   88MOL   H22038674   5.418   0.050   3.677  1.2569  2.1519 -0.4071
   88MOL   H22138675   5.287   0.076   3.788  1.2992 -0.0144  0.2146
   88MOL   C22238676   5.230   0.020   3.588 -0.6486 -0.3257  0.1323
   88MOL   C22338677   5.261   0.018   3.433 -0.1977 -0.5817  0.5319
   88MOL   C22438678   5.412   0.014   3.411  0.0693  0.1265 -0.1995
   88MOL   C22538679   5.444   0.005   3.260  0.2732  0.3512  1.2448
   88MOL   C22638680   5.388   0.127   3.177  0.1238 -0.2803 -0.0843
   88MOL   C22738681   5.231   0.132   3.203  0.5012  0.3440  0.2382
   88MOL   C22838682   5.192   0.131   3.355  0.3829 -0.2150  0.2565
   88MOL   C22938683   5.215   7.650   3.640 -0.2959  0.0081 -0.4271
   88MOL   H23038684   5.132   0.068   3.585 -0.3345  0.3410  0.4452
   88MOL   H23138685   5.211   7.705   3.386  0.3103 -0.8845  0.5302
   88MOL   H23238686   5.462   0.100   3.456  1.0861 -0.9287  0.7503
   88MOL   H23338687   5.452   7.695   3.457  1.5378  1.8299  2.0074
   88MOL   H23438688   5.401   7.682   3.230 -0.0283  0.7642  0.3446
   88MOL   H23538689   5.553   0.001   3.251  0.1932 -5.2419  0.8885
   88MOL   H23638690   5.440   0.208   3.228  0.4401 -1.2013  1.0669
   88MOL   H23738691   5.414   0.122   3.071 -1.3661 -1.1133 -0.4237
   88MOL   H23838692   5.178   0.052   3.153  2.6005  0.1064 -1.7011
   88MOL   H23938693   5.187   0.225   3.166  0.4833  0.3024  0.1572
   88MOL   H24038694   5.228   0.230   3.383  0.4749 -0.3192  0.5132
   88MOL   H24138695   5.085   0.132   3.372  0.3715  0.6705  0.1658
   88MOL   H24238696   5.263   7.642   3.738 -1.5103  4.5746  0.6565
   88MOL   H24338697   5.279   7.583   3.583 -1.1200 -3.5018  2.5655
   88MOL   C24438698   5.073   7.592   3.652  0.2119  0.8901  0.3893
   88MOL   C24538699   5.001   7.681   3.761  0.4415 -0.4783  0.7584
   88MOL   C24638700   5.049   7.681   3.905 -0.1266  0.1135 -0.6772
   88MOL   C24738701   4.977   0.016   3.990 -0.4625  0.8335 -0.3731
   88MOL   C24838702   4.823   7.771   3.983 -0.0557 -0.3519  0.3172
   88MOL   C24938703   4.766   7.752   3.843 -0.8132 -0.1631  0.2696
   88MOL   C25038704   4.849   7.651   3.763  0.5153 -0.1582  0.7316
   88MOL   C25138705   5.070   7.447   3.694 -0.5326  0.2737 -0.1246
   88MOL   H25238706   5.020   7.625   3.563 -2.0621 -1.2716  0.9016
   88MOL   H25338707   5.019   0.010   3.725  1.7834 -1.7738 -2.3980
   88MOL   H25438708   5.153   7.713   3.918 -0.5983  1.5514 -0.3263
   88MOL   H25538709   5.041   7.581   3.949 -0.3620  0.0354 -0.8976
   88MOL   H25638710   5.011   0.001   4.093 -1.5943 -0.6324 -0.1987
   88MOL   H25738711   5.009   0.114   3.954 -0.4638  0.2968 -1.8464
   88MOL   H25838712   4.789   7.687   4.043 -1.1726  0.8660  1.4218
   88MOL   H25938713   4.778   0.091   4.021 -3.3469 -0.8402 -2.2234
   88MOL   H26038714   4.789   0.070   3.785  2.5480 -0.1620  1.4595
   88MOL   H26138715   4.659   7.742   3.832 -0.8429  0.5029 -0.1036
   88MOL   H26238716   4.829   7.550   3.798 -0.6138  0.6037  2.3493
   88MOL   H26338717   4.816   7.653   3.659  2.7315  0.4281  0.0167
   88MOL   H26438718   4.965   7.419   3.705 -0.7187  0.6041 -0.9926
   88MOL   H26538719   5.120   7.424   3.788 -0.2903 -0.6387 -0.4674
   88MOL   C26638720   5.112   7.353   3.582 -0.3451  1.0146  0.0164
   88MOL   C26738721   5.098   7.206   3.629 -0.5853  0.3202 -0.0692
   88MOL   C26838722   4.966   7.148   3.681  1.0004  0.2911 -0.2406
   88MOL   C26938723   4.976   7.000   3.722  0.1558 -0.9136 -0.5687
   88MOL   C27038724   5.085   6.968   3.822  0.0949  0.0376 -0.0630
   88MOL   C27138725   5.220   7.023   3.769 -0.2409 -0.2550 -0.1890
   88MOL   C27238726   5.210   7.176   3.732  0.1588 -0.2954 -0.6894
   88MOL   C27338727   5.046   7.366   3.433 -0.1513  0.3663  0.1039
   88MOL   H27438728   5.219   7.370   3.569 -0.2546  0.8163  0.4830
   88MOL   H27538729   5.126   7.145   3.543  1.8751 -0.9514  1.5845
   88MOL   H27638730   4.935   7.219   3.757 -0.8866 -0.0194 -0.7062
   88MOL   H27738731   4.885   7.140   3.609 -1.8369 -2.7132  3.1101
   88MOL   H27838732   4.983   6.951   3.625  0.2476 -1.2334 -0.4013
   88MOL   H27938733   4.881   6.971   3.768 -0.9843  3.2283 -0.0782
   88MOL   H28038734   5.060   7.010   3.920 -1.1842 -1.3417  0.2280
   88MOL   H28138735   5.091   6.863   3.853  1.1807  0.1502  0.1504
   88MOL   H28238736   5.253   6.970   3.680 -0.1110  0.8793 -0.8240
   88MOL   H28338737   5.290   7.003   3.850  0.1816  0.2781 -0.4199
   88MOL   H28438738   5.312   7.197   3.697  0.6912 -0.2988  0.8189
   88MOL   H28538739   5.182   7.234   3.820 -0.6630  0.0770 -1.2020
   88MOL   H28638740   4.976   7.448   3.424 -1.2972 -0.3234  2.2012
   88MOL   H28738741   4.991   7.274   3.412 -1.1076  0.6579  1.2639
   88MOL   C28838742   5.151   7.372   3.321  0.2138  0.5306 -1.2107
   88MOL   C28938743   5.080   7.385   3.181  0.0124  0.3036  0.2748
   88MOL   C29038744   4.985   7.278   3.124 -0.2058 -0.0549 -0.8816
   88MOL   C29138745   4.917   7.315   2.987 -0.2372 -0.0679 -0.2934
   88MOL   C29238746   4.846   7.447   2.988  0.0124 -0.5529  0.3249
   88MOL   C29338747   4.955   7.548   3.028 -0.4478 -0.4020  0.2511
   88MOL   C29438748   5.003   7.518   3.174  0.1237 -0.0503 -0.0004
   88MOL   C29538749   5.250   7.247   3.328 -0.4883 -0.1921 -0.0065
   88MOL   H29638750   5.213   7.461   3.329  2.0600 -0.7333 -1.0826
   88MOL   H29738751   5.158   7.394   3.105 -1.1884 -0.9439 -1.1504
   88MOL   H29838752   5.051   7.192   3.118  1.0513  0.5977  2.6839
   88MOL   H29938753   4.902   7.253   3.190 -1.5677 -0.4942 -2.7032
   88MOL   H30038754   4.986   7.311   2.902  1.2213 -0.6721  0.8905
   88MOL   H30138755   4.841   7.242   2.961  1.0795 -1.1609 -1.1234
   88MOL   H30238756   4.770   7.460   3.064 -2.5082 -0.5180 -2.1333
   88MOL   H30338757   4.807   7.466   2.888  1.6791 -2.2157 -0.6681
   88MOL   H30438758   4.909   7.646   3.017 -1.0161 -0.7337 -0.4204
   88MOL   H30538759   5.033   7.540   2.953 -1.2052  1.9312 -0.8491
   88MOL   H30638760   4.915   7.506   3.236  1.0646 -2.2720  0.9570
   88MOL   H30738761   5.056   7.608   3.207  1.7356 -1.1459  0.4556
   88MOL   H30838762   5.305   7.238   3.421 -0.3381 -3.1484 -0.3349
   88MOL   H30938763   5.187   7.159   3.315  0.3868 -0.5514 -2.0240
   88MOL   C31038764   5.351   7.221   3.212  0.1958 -0.0682  0.5470
   88MOL   C31138765   5.453   7.336   3.193 -0.7830  0.0487  0.0638
   88MOL   C31238766   5.572   7.342   3.287  0.7381 -0.2606 -0.5450
   88MOL   C31338767   5.648   7.479   3.279 -0.1907 -0.5802  0.9697
   88MOL   C31438768   5.681   7.500   3.135 -0.1854 -0.7992  0.1844
   88MOL   C31538769   5.566   7.490   3.035  1.3050 -0.3832  0.6992
   88MOL   C31638770   5.498   7.351   3.047 -0.3161 -0.4098  0.0472
   88MOL   C31738771   5.415   7.087   3.234 -0.2871  0.3880  0.4780
   88MOL   H31838772   5.289   7.206   3.124 -1.3147 -2.2918  1.9401
   88MOL   H31938773   5.396   7.428   3.209  0.7099  1.2253 -1.1953
   88MOL   H32038774   5.528   7.326   3.385  1.7629 -0.4013 -0.1006
   88MOL   H32138775   5.631   7.251   3.270  1.0762 -0.3382  0.9772
   88MOL   H32238776   5.744   7.459   3.328  0.4559 -0.9225 -0.4184
   88MOL   H32338777   5.588   7.556   3.327 -0.0156  1.1487 -1.5269
   88MOL   H32438778   5.743   7.588   3.115 -1.3440 -0.2532 -1.1658
   88MOL   H32538779   5.751   7.425   3.099  0.7647 -0.6056  1.6140
   88MOL   H32638780   5.487   7.561   3.058  1.9132  0.7770 -0.6579
   88MOL   H32738781   5.604   7.499   2.933 -0.5035 -1.6009 -0.1170
   88MOL   H32838782   5.577   7.281   3.021  0.2437 -0.0630  0.7899
   88MOL   H32938783   5.421   7.341   2.971 -0.7842  0.1583  0.4418
   88MOL   H33038784   5.474   7.099   3.325 -0.1216 -0.1272  0.4428
   88MOL   H33138785   5.488   7.075   3.154 -1.4788 -1.1483 -0.4188
   88MOL   C33238786   5.328   6.955   3.229  0.5491  0.7442  0.5031
   88MOL   C33338787   5.326   6.875   3.367 -0.4276 -0.4085 -0.5461
   88MOL   C33438788   5.460   6.808   3.394  0.3728 -0.4735  0.5856
   88MOL   C33538789   5.467   6.738   3.527 -0.2425  0.6349 -0.3679
   88MOL   C33638790   5.352   6.633   3.542 -0.8626 -0.1328  0.5075
   88MOL   C33738791   5.214   6.699   3.506 -0.1910  0.1884 -0.4418
   88MOL   C33838792   5.212   6.768   3.376 -0.4676 -0.4395  0.5746
   88MOL   C33938793   5.359   6.870   3.101 -0.0041  0.3288  0.6048
   88MOL   H34038794   5.223   6.981   3.217 -0.0383 -1.2028  1.2610
   88MOL   H34138795   5.306   6.940   3.452  1.3131 -2.3213  1.3961
   88MOL   H34238796   5.482   6.735   3.316  0.5073  0.5695 -0.3558
   88MOL   H34338797   5.542   6.879   3.390 -0.4213  0.4557  0.6671
   88MOL   H34438798   5.565   6.694   3.545 -0.5414  0.5859  1.1652
   88MOL   H34538799   5.470   6.802   3.615  2.7209 -0.5223  0.4298
   88MOL   H34638800   5.365   6.542   3.482 -1.7903  1.3332 -2.0059
   88MOL   H34738801   5.350   6.600   3.646  1.5996  2.3706  1.4006
   88MOL   H34838802   5.199   6.768   3.589  1.0579 -1.0576  0.8652
   88MOL   H34938803   5.127   6.633   3.513  0.7993 -0.8751  3.4861
   88MOL   H35038804   5.121   6.829   3.379  0.4863  1.0148  0.2299
   88MOL   H35138805   5.206   6.696   3.295  0.1122 -0.6004  0.6747
   88MOL   H35238806   5.298   6.780   3.106 -3.1220  2.4166  1.4142
   88MOL   H35338807   5.465   6.845   3.104 -0.2073 -0.9442 -1.6270
   88MOL   C35438808   5.331   6.941   2.966 -0.4541 -0.2824 -0.3196
   88MOL   C35538809   5.178   6.928   2.932  0.7304  0.4856 -0.3087
   88MOL   C35638810   5.136   6.784   2.876  0.3618  0.2359 -0.0716
   88MOL   C35738811   4.984   6.770   2.851 -0.5175 -0.0765  0.5533
   88MOL   C35838812   4.943   6.871   2.748  0.3168 -0.1281 -0.5263
   88MOL   C35938813   4.975   7.015   2.803  0.0431  0.2196  0.5221
   88MOL   C36038814   5.122   7.037   2.838  0.3051  0.2886 -0.9192
   88MOL   C36138815   5.430   6.873   2.868 -0.0444 -0.3113 -0.3985
   88MOL   H36238816   5.350   7.047   2.974  2.5872 -0.9502  1.9271
   88MOL   H36338817   5.134   6.966   3.025 -2.0156  0.2403 -1.4815
   88MOL   H36438818   5.156   6.697   2.938  2.7392  0.4561 -0.4587
   88MOL   H36538819   5.190   6.766   2.783  0.2141 -2.3036  0.3067
   88MOL   H36638820   4.955   6.678   2.802  1.1901 -0.5988  0.4986
   88MOL   H36738821   4.927   6.776   2.944 -1.2393  0.8953  0.0649
   88MOL   H36838822   4.989   6.855   2.651  0.5459  0.8175 -0.5766
   88MOL   H36938823   4.836   6.869   2.731  0.3912 -0.9323 -0.9347
   88MOL   H37038824   4.954   7.090   2.727  0.2880  0.0438  0.2775
   88MOL   H37138825   4.907   7.044   2.883 -1.1693 -0.0590 -0.4046
   88MOL   H37238826   5.137   7.137   2.878 -0.7782 -0.6883  2.0928
   88MOL   H37338827   5.187   7.033   2.751  3.3114 -3.0999  1.3120
   88MOL   H37438828   5.414   6.765   2.864  1.9528 -0.5925 -0.9138
   88MOL   H37538829   5.534   6.884   2.897  0.2183 -2.6686 -0.3658
   88MOL   C37638830   5.438   6.917   2.716 -0.3859 -0.4535  0.2913
   88MOL   C37738831   5.456   7.068   2.693  0.0050 -0.6741  0.0982
   88MOL   C37838832   5.430   7.108   2.549  0.2918  0.6392  0.5831
   88MOL   C37938833   5.437   7.258   2.525  0.4353 -0.2988  0.3400
   88MOL   C38038834   5.572   7.318   2.564 -0.1255 -0.3717  0.3299
   88MOL   C38138835   5.597   7.281   2.713  0.2852  0.7117 -0.2501
   88MOL   C38238836   5.590   7.134   2.738  1.1689  0.9011  0.1491
   88MOL   C38338837   5.535   6.828   2.634  0.4177 -0.4010  0.5607
   88MOL   H38438838   5.341   6.888   2.675 -0.5933 -0.9487  1.1260
   88MOL   H38538839   5.375   7.107   2.755  0.0176 -2.7460  1.4391
   88MOL   H38638840   5.486   7.043   2.481  2.9154  2.5728  0.8346
   88MOL   H38738841   5.325   7.082   2.535  0.6307  0.5894 -2.1747
   88MOL   H38838842   5.365   7.325   2.572 -0.2244  1.3949 -2.9813
   88MOL   H38938843   5.425   7.269   2.417  1.3105 -1.0085  0.1672
   88MOL   H39038844   5.648   7.275   2.498  0.6034 -0.0221  0.9355
   88MOL   H39138845   5.586   7.424   2.544 -4.1130  0.8439  3.3831
   88MOL   H39238846   5.692   7.322   2.749 -0.3465 -1.2396  3.9771
   88MOL   H39338847   5.522   7.334   2.773  0.5442  0.9809 -0.1607
   88MOL   H39438848   5.675   7.087   2.688  0.3395 -0.3596 -0.1161
   88MOL   H39538849   5.608   7.117   2.844 -0.0158 -1.3857  0.0106
   88MOL   H39638850   5.626   6.808   2.690  2.5502  3.7018 -1.2631
   88MOL   H39738851   5.580   6.885   2.553 -0.3105 -1.3364 -0.5126
   88MOL   C39838852   5.468   6.700   2.572  0.1068 -0.5189  0.7333
   88MOL   C39938853   5.421   6.724   2.421 -0.7564  0.2209  0.2367
   88MOL   C40038854   5.537   6.729   2.317  0.7752 -0.2565 -0.1304
   88MOL   C40138855   5.488   6.788   2.191 -0.6949 -0.1909  0.3698
   88MOL   C40238856   5.366   6.715   2.131  0.4887  0.0258 -0.2174
   88MOL   C40338857   5.254   6.703   2.230  0.5379 -0.4642  0.0850
   88MOL   C40438858   5.297   6.645   2.367  0.4970  0.1319  0.5278
   88MOL   C40538859   5.549   6.573   2.597 -0.2960 -0.1021  0.5665
   88MOL   H40638860   5.369   6.691   2.617 -0.5926  0.3978 -0.5953
   88MOL   H40738861   5.380   6.825   2.419  1.6657  1.2212  0.2431
   88MOL   H40838862   5.583   6.631   2.299 -0.2144 -0.7737  0.1050
   88MOL   H40938863   5.618   6.789   2.358  0.4738 -0.4712  0.7706
   88MOL   H41038864   5.565   6.795   2.114 -0.6532  0.4764  0.4638
   88MOL   H41138865   5.467   6.895   2.203 -0.4801 -0.1929  0.7727
   88MOL   H41238866   5.401   6.613   2.112  2.8495  0.6710  0.4859
   88MOL   H41338867   5.329   6.757   2.038  0.0358 -0.1691 -0.1237
   88MOL   H41438868   5.221   6.806   2.239  0.0839 -0.7208  1.6043
   88MOL   H41538869   5.175   6.644   2.184 -1.2975  1.7039  0.3762
   88MOL   H41638870   5.207   6.641   2.428  0.7747 -0.9635  0.8814
   88MOL   H41738871   5.336   6.543   2.364  0.7809  0.2765 -1.0838
   88MOL   H41838872   5.515   6.496   2.527  0.7469 -0.0080 -0.0483
   88MOL   H41938873   5.648   6.604   2.564 -0.4787 -2.0980 -1.9412
   88MOL   C42038874   5.553   6.509   2.744 -0.0317  0.2665  0.5993
   88MOL   C42138875   5.673   6.562   2.835 -0.1356  0.4159  0.5484
   88MOL   C42238876   5.815   6.528   2.786  0.1636  0.1919  0.1975
   88MOL   C42338877   5.920   6.592   2.881 -0.0129  0.0729  0.1457
   88MOL   C42438878   5.900   6.543   3.023 -0.1390 -0.1579  0.7355
   88MOL   C42538879   5.758   6.579   3.076 -0.1761 -0.1943  0.0958
   88MOL   C42638880   5.663   6.510   2.980  0.2362 -0.0623 -0.2377
   88MOL   C42738881   5.553   6.355   2.734 -0.1069 -0.0546  0.3205
   88MOL   H42838882   5.460   6.527   2.797 -0.2000  0.0752  0.3694
   88MOL   H42938883   5.664   6.669   2.851 -2.9242  0.2007  0.6398
   88MOL   H43038884   5.828   6.420   2.777  2.3917  0.4708 -0.2276
   88MOL   H43138885   5.823   6.581   2.692  1.7119 -1.5483 -0.6855
   88MOL   H43238886   6.022   6.583   2.846 -1.1665 -3.4230 -2.6167
   88MOL   H43338887   5.906   6.700   2.878 -1.0804 -0.0448  0.4580
   88MOL   H43438888   5.975   6.592   3.085 -0.5221  2.3737 -0.7174
   88MOL   H43538889   5.922   6.437   3.029  3.1061  0.5284  1.5963
   88MOL   H43638890   5.733   6.685   3.078 -1.2105 -0.4480  0.7054
   88MOL   H43738891   5.748   6.534   3.175  2.1095 -3.3851 -1.0576
   88MOL   H43838892   5.696   6.406   2.984  1.6735  0.4148  1.1668
   88MOL   H43938893   5.561   6.513   3.017  0.2776 -2.6034  0.1739
   88MOL   H44038894   5.463   6.326   2.681 -0.3432 -1.7034  1.5926
   88MOL   H44138895   5.638   6.319   2.677 -0.5088  0.6057 -0.7017
   88MOL   H44238896   5.541   6.315   2.835 -0.0478 -0.5661  0.1263
   89MOL     C138897   7.696   2.817   5.088  0.6177 -0.1372 -0.6993
   89MOL     C238898   7.675   2.831   5.239  0.3647 -0.0103 -0.2631
   89MOL     C338899   0.016   2.899   5.318 -0.0689 -0.1136  0.5703
   89MOL     C438900   0.013   2.878   5.479  1.3219 -0.6145 -0.3192
   89MOL     C538901   7.740   2.746   5.531 -0.2300  0.9307 -0.4891
   89MOL     C638902   7.610   2.714   5.454 -0.1636  0.1896  0.0145
   89MOL     C738903   7.635   2.699   5.310 -0.0427 -0.0515  0.5900
   89MOL     C838904   7.584   2.762   4.994 -0.2675  0.3213  0.0705
   89MOL     H938905   7.734   2.912   5.052  2.8307  0.2975  2.5579
   89MOL    H1038906   7.590   2.898   5.244  1.2354  1.0664  0.3103
   89MOL    H1138907   0.108   2.847   5.291  1.0129  1.4789  1.1264
   89MOL    H1238908   0.015   3.005   5.295 -3.3001  0.1572  1.7120
   89MOL    H1338909   7.731   2.965   5.516  4.8177  1.7952 -0.6843
   89MOL    H1438910   0.109   2.903   5.523  1.5756 -0.8796 -0.7155
   89MOL    H1538911   7.720   2.769   5.635 -1.1768 -0.3134 -0.3825
   89MOL    H1638912   0.045   2.670   5.533  0.9603  2.1031 -1.1041
   89MOL    H1738913   7.569   2.621   5.493 -1.2395  1.6070  2.3722
   89MOL    H1838914   7.532   2.784   5.482  0.5059  0.3100  1.6716
   89MOL    H1938915   7.543   2.665   5.262  0.8600  1.7734 -2.5981
   89MOL    H2038916   7.709   2.624   5.282  0.4073 -0.5922  3.1039
   89MOL    H2138917   7.488   2.804   5.023 -0.0340  0.7152  0.2873
   89MOL    H2238918   7.560   2.658   5.011 -1.0653  0.5744  0.4954
   89MOL    H2338919   7.768   2.736   5.076 -0.6025 -1.2330 -0.7275
   89MOL    C2438920   7.622   2.795   4.843  0.0944  0.6499 -0.7629
   89MOL    C2538921   7.603   2.663   4.760  0.1140  0.0095 -0.2271
   89MOL    C2638922   7.468   2.581   4.775  0.2062 -0.2845 -0.4762
   89MOL    C2738923   7.471   2.462   4.677  0.3270 -0.6648 -0.6746
   89MOL    C2838924   7.584   2.360   4.702 -0.5039 -0.8567  0.9203
   89MOL    C2938925   7.718   2.433   4.711 -0.5605 -0.0296  0.7000
   89MOL    C3038926   7.715   2.558   4.796 -0.5386  0.5035 -0.3432
   89MOL    C3138927   7.553   2.920   4.768  0.0847  0.6515  1.1921
   89MOL    H3238928   7.729   2.820   4.842  0.1623  0.3211 -2.0326
   89MOL    H3338929   7.614   2.678   4.652 -0.1411  1.6177 -0.0442
   89MOL    H3438930   7.383   2.649   4.763  1.1224  0.8713 -0.5284
   89MOL    H3538931   7.465   2.545   4.878  2.8145  0.4925 -0.0888
   89MOL    H3638932   7.376   2.409   4.689  1.2117 -1.9917  0.6185
   89MOL    H3738933   7.480   2.498   4.575 -0.0564  0.5179 -0.3016
   89MOL    H3838934   7.589   2.288   4.621  0.2550 -1.8616  1.8570
   89MOL    H3938935   7.581   2.314   4.801 -1.0230 -0.1781  1.2268
   89MOL    H4038936   0.024   2.361   4.734 -0.8368 -0.1300  1.3099
   89MOL    H4138937   7.737   2.462   4.607 -3.7741 -1.4185 -0.3595
   89MOL    H4238938   7.711   2.526   4.900  0.1735 -1.0327 -0.7658
   89MOL    H4338939   0.039   2.609   4.798 -0.7893  0.9510  1.1776
   89MOL    H4438940   7.450   2.895   4.743  0.9783 -0.2639 -1.8797
   89MOL    H4538941   7.593   2.923   4.666  1.6759 -0.6519  1.7685
   89MOL    C4638942   7.582   3.069   4.825  0.3540  0.4854 -0.5435
   89MOL    C4738943   7.494   3.097   4.953 -0.1751  0.3746 -0.2978
   89MOL    C4838944   7.346   3.113   4.920 -0.0735  0.3832  0.4977
   89MOL    C4938945   7.264   3.100   5.041  0.3349  0.0723  0.2983
   89MOL    C5038946   7.302   3.212   5.147  0.1076 -0.2084 -0.2143
   89MOL    C5138947   7.450   3.207   5.177 -0.0988 -0.1800 -0.4856
   89MOL    C5238948   7.533   3.209   5.048 -0.1697 -0.3261 -0.2574
   89MOL    C5338949   7.546   3.163   4.708  0.3570  0.0495  0.5870
   89MOL    H5438950   7.686   3.070   4.859  0.7356 -3.3444 -1.3721
   89MOL    H5538951   7.492   3.006   5.011 -2.8443 -0.1922 -1.2132
   89MOL    H5638952   7.336   3.216   4.885 -0.0983 -0.4018 -1.8597
   89MOL    H5738953   7.320   3.043   4.841 -3.2554  2.1932 -0.1677
   89MOL    H5838954   7.271   3.004   5.092 -0.1980 -1.2280 -1.9895
   89MOL    H5938955   7.158   3.119   5.021 -0.4741 -3.4321  0.8173
   89MOL    H6038956   7.263   3.309   5.114 -2.3433 -1.6118 -1.6375
   89MOL    H6138957   7.246   3.197   5.239  2.2979 -1.5213  0.9335
   89MOL    H6238958   7.471   3.113   5.228 -4.0557 -0.5434  0.6716
   89MOL    H6338959   7.482   3.282   5.250  2.3729  0.6243 -2.3245
   89MOL    H6438960   7.527   3.306   4.999  0.1235  0.3578  1.0503
   89MOL    H6538961   7.639   3.199   5.070  0.0422 -0.2029 -1.2038
   89MOL    H6638962   7.494   3.252   4.743  0.0424  0.1105 -0.0177
   89MOL    H6738963   7.467   3.111   4.655 -0.4633 -0.5409  2.3707
   89MOL    C6838964   7.673   3.203   4.627 -0.5920  0.1799  0.8803
   89MOL    C6938965   7.644   3.229   4.481 -0.2754  0.5393 -0.2506
   89MOL    C7038966   7.627   3.099   4.401  0.1544  0.7480 -0.0661
   89MOL    C7138967   7.597   3.132   4.257  0.2094  0.0979  0.1843
   89MOL    C7238968   7.479   3.237   4.235  0.6978 -0.2992 -0.4314
   89MOL    C7338969   7.498   3.362   4.306 -0.1470 -1.0004  0.6051
   89MOL    C7438970   7.529   3.336   4.459 -0.4012  0.2294  0.3064
   89MOL    C7538971   7.751   3.318   4.704  0.9387 -0.0324  0.0438
   89MOL    H7638972   7.742   3.119   4.632  0.8665  1.1415 -1.8138
   89MOL    H7738973   7.738   3.269   4.444 -1.1530  0.1306 -3.0712
   89MOL    H7838974   7.551   3.037   4.448 -1.9581  1.7737 -2.0441
   89MOL    H7938975   7.723   3.047   4.407  0.3940  1.0807 -0.8929
   89MOL    H8038976   7.687   3.174   4.211 -1.3566 -0.4595 -3.6129
   89MOL    H8138977   7.578   3.046   4.192 -1.6691  0.8261 -0.2711
   89MOL    H8238978   7.385   3.196   4.273  0.7669  0.1241  0.2018
   89MOL    H8338979   7.454   3.254   4.130 -1.5655  0.6584  0.2311
   89MOL    H8438980   7.421   3.434   4.278  1.0006  0.5525  1.3653
   89MOL    H8538981   7.591   3.407   4.270 -0.5612 -0.0994  0.6563
   89MOL    H8638982   7.435   3.306   4.505 -1.2658  1.3250 -0.7102
   89MOL    H8738983   7.552   3.428   4.514  0.1897 -0.3800  1.0915
   89MOL    H8838984   7.687   3.406   4.692 -0.6050 -1.3325 -1.7822
   89MOL    H8938985   7.741   3.302   4.811  0.8313  2.5096  0.4613
   89MOL    C9038986   0.130   3.334   4.662  0.1125  1.1142  0.6860
   89MOL    C9138987   0.170   3.478   4.655 -0.6264 -0.6354 -0.1994
   89MOL    C9238988   0.104   3.545   4.528  0.2028 -0.1876  0.2695
   89MOL    C9338989   0.142   3.691   4.519  0.8522 -0.6146 -0.2776
   89MOL    C9438990   0.110   3.766   4.658  0.2984  0.7736 -0.6187
   89MOL    C9538991   0.172   3.696   4.779  0.5227 -0.0447  0.2281
   89MOL    C9638992   0.136   3.553   4.786 -0.0442  0.9121 -0.1891
   89MOL    C9738993   0.211   3.245   4.757 -0.1602 -0.6156 -0.6023
   89MOL    H9838994   0.151   3.296   4.562 -1.2278 -1.1463  1.2621
   89MOL    H9938995   0.279   3.482   4.647 -0.4666 -1.7551  1.0396
   89MOL   H10038996   7.769   3.544   4.548  0.2467 -4.8830  0.8580
   89MOL   H10138997   0.106   3.486   4.436 -3.2127 -0.4722  0.2965
   89MOL   H10238998   0.088   3.740   4.438 -0.8354  2.4357  2.5371
   89MOL   H10338999   0.248   3.690   4.496  0.6400 -0.9745 -1.2500
   89MOL   H10439000   0.003   3.761   4.677  0.9538  1.0265  3.6353
   89MOL   H10539001   0.134   3.872   4.649 -4.3894  1.9558 -0.4748
   89MOL   H10639002   0.280   3.706   4.763  0.7188 -1.2216  0.7697
   89MOL   H10739003   0.147   3.750   4.870 -0.3143  2.2018 -1.2998
   89MOL   H10839004   0.179   3.501   4.872  1.0300 -0.7968 -1.7392
   89MOL   H10939005   0.031   3.548   4.817  0.6901 -0.8102  2.1489
   89MOL   H11039006   0.222   3.286   4.857  1.8706 -0.8957 -0.6835
   89MOL   H11139007   0.142   3.165   4.781 -2.3529  0.9770 -1.4395
   89MOL   C11239008   0.330   3.173   4.708  1.1413 -0.5622  0.1366
   89MOL   C11339009   0.336   3.027   4.762  0.3706 -0.6978 -0.2164
   89MOL   C11439010   0.256   2.918   4.688 -0.4061 -0.5190 -0.4368
   89MOL   C11539011   0.299   2.778   4.733 -0.8095 -0.2357  0.1742
   89MOL   C11639012   0.275   2.776   4.880 -0.1535  0.1678 -0.3226
   89MOL   C11739013   0.359   2.875   4.960 -0.1831  0.2859  0.1910
   89MOL   C11839014   0.326   3.013   4.916  0.0037  0.0884  0.0036
   89MOL   C11939015   0.451   3.255   4.745  0.3141  0.1601 -0.5896
   89MOL   H12039016   0.330   3.171   4.599  0.2196 -1.4914  0.1550
   89MOL   H12139017   0.439   3.002   4.736  1.1428  2.9083 -0.9662
   89MOL   H12239018   0.269   2.934   4.581 -0.8042  2.6470 -0.0330
   89MOL   H12339019   0.147   2.919   4.691 -0.3498 -0.1940  2.5712
   89MOL   H12439020   0.236   2.699   4.692 -2.4301  1.4026 -0.5827
   89MOL   H12539021   0.403   2.763   4.704 -0.6693  0.4989  0.2683
   89MOL   H12639022   0.169   2.786   4.900  0.0017  1.0330  0.0507
   89MOL   H12739023   0.302   2.680   4.924 -1.5687 -0.3322 -0.5121
   89MOL   H12839024   0.316   2.865   5.059  0.0976 -0.6606  0.2220
   89MOL   H12939025   0.466   2.857   4.952 -0.0974  1.0813 -0.6184
   89MOL   H13039026   0.390   3.078   4.977 -0.9486  0.9816  0.0585
   89MOL   H13139027   0.221   3.029   4.939  0.5071  1.3114  1.5760
   89MOL   H13239028   0.499   3.220   4.836 -1.3396 -1.6557 -0.3806
   89MOL   H13339029   0.417   3.358   4.761 -0.7823 -0.0986 -1.2452
   89MOL   C13439030   0.565   3.264   4.645 -0.9042 -0.1338  0.3679
   89MOL   C13539031   0.612   3.127   4.582  0.5027  0.0722  0.7515
   89MOL   C13639032   0.707   3.033   4.656 -0.7106 -0.8325  0.3205
   89MOL   C13739033   0.727   2.907   4.577  0.1044  0.2239  0.4030
   89MOL   C13839034   0.780   2.926   4.434  0.0293 -0.6647  0.3912
   89MOL   C13939035   0.691   3.018   4.355  0.7941 -0.4822 -0.1010
   89MOL   C14039036   0.655   3.143   4.434 -0.1177  0.1155 -0.1312
   89MOL   C14139037   0.698   3.331   4.702  0.8299  0.0126  0.1395
   89MOL   H14239038   0.532   3.332   4.567  0.0643  0.0843  0.1458
   89MOL   H14339039   0.521   3.067   4.575 -1.4766  3.1893 -1.1782
   89MOL   H14439040   0.804   3.083   4.664 -0.3944 -0.9403 -2.3012
   89MOL   H14539041   0.677   3.014   4.759  0.1532  1.1929  0.9695
   89MOL   H14639042   0.628   2.863   4.568 -0.1041  0.9362 -0.9767
   89MOL   H14739043   0.806   2.847   4.621 -0.8453 -3.5918 -2.9089
   89MOL   H14839044   0.882   2.963   4.424  0.2515 -1.7479 -1.5947
   89MOL   H14939045   0.788   2.825   4.395 -0.5816 -1.1544  1.5169
   89MOL   H15039046   0.600   2.967   4.324  0.3701 -1.1163  2.0629
   89MOL   H15139047   0.738   3.049   4.262  0.4928 -2.4295 -0.9179
   89MOL   H15239048   0.743   3.206   4.439 -2.2000  3.0130  2.1881
   89MOL   H15339049   0.580   3.197   4.377 -0.5625  0.2680  0.5829
   89MOL   H15439050   0.763   3.335   4.615  1.2054 -1.2254  0.3677
   89MOL   H15539051   0.751   3.263   4.768  0.9852  0.4558  0.4699
   89MOL   C15639052   0.689   3.466   4.769  0.1716 -0.3910  0.2653
   89MOL   C15739053   0.635   3.588   4.678 -0.8098  0.6565 -0.4517
   89MOL   C15839054   0.589   3.706   4.768 -0.3380  0.2860  0.1501
   89MOL   C15939055   0.529   3.828   4.688  0.1124 -0.0163 -1.0054
   89MOL   C16039056   0.641   3.871   4.584 -0.2509 -0.5115  0.1409
   89MOL   C16139057   0.682   3.752   4.498  0.8351 -0.1154  0.7491
   89MOL   C16239058   0.741   3.644   4.583  0.3573 -0.3324 -0.1075
   89MOL   C16339059   0.810   3.488   4.865 -0.1830 -0.1186  0.3527
   89MOL   H16439060   0.605   3.464   4.839 -1.7047  1.7821 -1.8347
   89MOL   H16539061   0.547   3.555   4.621 -2.6450 -0.0126  2.6592
   89MOL   H16639062   0.506   3.666   4.826  0.5462  0.5706  1.6434
   89MOL   H16739063   0.666   3.736   4.839 -1.4684 -0.8430  1.8922
   89MOL   H16839064   0.440   3.778   4.651  0.1061 -1.2927  0.6638
   89MOL   H16939065   0.498   3.914   4.748 -0.7016 -1.9507  1.4485
   89MOL   H17039066   0.733   3.906   4.630 -1.1293  1.5474  0.3850
   89MOL   H17139067   0.602   3.953   4.525 -2.2046  1.2840  3.7570
   89MOL   H17239068   0.758   3.791   4.430 -1.0333 -2.9107 -3.1350
   89MOL   H17339069   0.602   3.708   4.438  0.2102 -0.2201  1.6490
   89MOL   H17439070   0.788   3.564   4.526 -3.1620 -2.6352  0.1065
   89MOL   H17539071   0.820   3.686   4.646  2.1688 -1.5771 -1.4816
   89MOL   H17639072   0.823   3.596   4.873  0.6726 -0.3784  3.0462
   89MOL   H17739073   0.902   3.445   4.826 -1.0732 -1.5718 -0.1717
   89MOL   C17839074   0.779   3.457   5.016  0.3357 -0.6703  0.2301
   89MOL   C17939075   0.764   3.309   5.050 -0.0302 -0.1203  0.3441
   89MOL   C18039076   0.685   3.286   5.178  0.5227 -0.1077 -0.5302
   89MOL   C18139077   0.644   3.143   5.209  0.4202  0.3681 -0.2938
   89MOL   C18239078   0.771   3.050   5.204  0.0016  0.2078  0.1930
   89MOL   C18339079   0.853   3.075   5.073  0.5513 -0.1409  0.0665
   89MOL   C18439080   0.894   3.223   5.056 -0.6797 -0.0590  0.4885
   89MOL   C18539081   0.871   3.542   5.111 -0.2923 -0.3579 -0.6202
   89MOL   H18639082   0.680   3.500   5.030  1.1983  0.9596  1.5700
   89MOL   H18739083   0.709   3.258   4.971 -0.2201  0.1080  0.3290
   89MOL   H18839084   0.735   3.333   5.263 -0.0511  2.2048 -1.4175
   89MOL   H18939085   0.589   3.338   5.170 -0.5547 -1.6725  1.8207
   89MOL   H19039086   0.573   3.100   5.138  2.6568  0.0393 -2.3993
   89MOL   H19139087   0.604   3.138   5.311  1.6236 -1.7575  0.1205
   89MOL   H19239088   0.836   3.067   5.289 -1.4115 -0.7457  1.4997
   89MOL   H19339089   0.747   2.944   5.213 -1.8492  0.8203  2.9946
   89MOL   H19439090   0.790   3.037   4.992  2.2395 -0.9849 -0.8733
   89MOL   H19539091   0.936   3.004   5.074  0.3689 -0.3386  1.3383
   89MOL   H19639092   0.966   3.252   5.133  0.5772 -1.5532 -0.1030
   89MOL   H19739093   0.952   3.234   4.964 -1.6705  0.7300 -0.0485
   89MOL   H19839094   0.947   3.471   5.143 -0.3047 -0.2511 -0.3569
   89MOL   H19939095   0.934   3.616   5.063  0.9538 -0.4168  0.8888
   89MOL   C20039096   0.808   3.607   5.237 -0.3692  0.6355 -0.3800
   89MOL   C20139097   0.911   3.626   5.352 -0.0278  0.2111 -0.1177
   89MOL   C20239098   0.948   3.486   5.414 -1.1017 -0.2234 -0.6827
   89MOL   C20339099   1.018   3.518   5.554 -0.2433 -0.3205  0.0957
   89MOL   C20439100   1.151   3.599   5.520 -0.7843 -0.3304  0.0442
   89MOL   C20539101   1.121   3.732   5.448 -0.3459  0.7822 -0.1825
   89MOL   C20639102   1.036   3.711   5.320  0.5312 -0.0628  0.5033
   89MOL   C20739103   0.729   3.738   5.209  0.1644 -0.1920 -0.1665
   89MOL   H20839104   0.741   3.525   5.264 -2.6421  2.2333 -1.0474
   89MOL   H20939105   0.864   3.677   5.435  0.3669  0.3220  0.0396
   89MOL   H21039106   1.015   3.423   5.355 -2.1154 -3.5497  1.5354
   89MOL   H21139107   0.865   3.421   5.443 -2.6167  0.4896 -3.2553
   89MOL   H21239108   0.957   3.577   5.622 -1.3513  0.5887 -1.6732
   89MOL   H21339109   1.046   3.425   5.605 -0.8007  0.2310  1.4227
   89MOL   H21439110   1.216   3.611   5.607  1.2166  0.7489 -1.5442
   89MOL   H21539111   1.214   3.545   5.449 -1.2704 -0.5153 -0.2438
   89MOL   H21639112   1.075   3.807   5.512 -1.1559  0.1320 -0.0035
   89MOL   H21739113   1.214   3.779   5.415 -1.7905  2.0956 -2.5490
   89MOL   H21839114   1.013   3.811   5.284  0.2591 -0.8131 -1.4541
   89MOL   H21939115   1.091   3.662   5.239 -2.9337 -0.6864 -1.6024
   89MOL   H22039116   0.808   3.811   5.193  1.3313 -1.1844  0.9802
   89MOL   H22139117   0.682   3.732   5.110 -0.7369 -1.0717  0.3092
   89MOL   C22239118   0.624   3.795   5.317 -0.5325  0.7802  0.1012
   89MOL   C22339119   0.575   3.947   5.279  0.4200  0.6381 -0.3459
   89MOL   C22439120   0.498   3.954   5.148 -0.1774  0.2380 -0.1162
   89MOL   C22539121   0.473   4.099   5.097  0.1666 -0.6586 -1.1715
   89MOL   C22639122   0.601   4.188   5.087  0.5278 -0.4581  0.2725
   89MOL   C22739123   0.670   4.186   5.230 -0.2382 -0.0762 -0.4466
   89MOL   C22839124   0.697   4.041   5.265  0.2435 -0.8323  0.3659
   89MOL   C22939125   0.504   3.698   5.344  0.5466  0.4602  0.4067
   89MOL   H23039126   0.680   3.801   5.410  0.0776  0.5601 -0.2481
   89MOL   H23139127   0.522   3.981   5.367  4.1816  3.0044  1.1393
   89MOL   H23239128   0.548   3.909   5.061 -2.3782 -1.3833 -0.5868
   89MOL   H23339129   0.400   3.906   5.155  0.7662 -2.1973 -2.4326
   89MOL   H23439130   0.410   4.151   5.170 -0.6960 -0.2584 -2.1807
   89MOL   H23539131   0.415   4.101   5.005 -0.4436 -1.1449 -0.8048
   89MOL   H23639132   0.670   4.142   5.016 -1.4918 -0.5522 -1.6938
   89MOL   H23739133   0.581   4.290   5.055 -0.5946 -0.7296  0.0741
   89MOL   H23839134   0.598   4.218   5.305 -1.3340 -2.3876 -0.4412
   89MOL   H23939135   0.763   4.240   5.244  0.5639 -1.9361  1.5516
   89MOL   H24039136   0.753   4.002   5.180 -0.1711  0.1782 -0.3766
   89MOL   H24139137   0.756   4.039   5.356  2.6545 -2.6067 -1.1861
   89MOL   H24239138   0.536   3.607   5.395 -0.2095 -0.6826 -1.1445
   89MOL   H24339139   0.459   3.654   5.256  2.0907 -1.9667  0.7838
   89MOL   C24439140   0.400   3.753   5.447  0.4892 -0.2642 -0.1358
   89MOL   C24539141   0.464   3.781   5.591  0.3314  0.2712 -0.7365
   89MOL   C24639142   0.554   3.665   5.651 -0.0774 -0.2749  0.0744
   89MOL   C24739143   0.631   3.722   5.772  0.6921 -0.3066 -0.6747
   89MOL   C24839144   0.528   3.763   5.876 -0.1565  0.5040  0.5254
   89MOL   C24939145   0.441   3.880   5.822 -0.0630  0.0055  0.0804
   89MOL   C25039146   0.372   3.832   5.698  0.1018 -0.4012 -0.1162
   89MOL   C25139147   0.282   3.656   5.471 -0.2881 -0.5145  0.2800
   89MOL   H25239148   0.350   3.849   5.432 -1.9931 -1.2960  1.2183
   89MOL   H25339149   0.528   3.869   5.581  1.9759 -0.7452  0.5457
   89MOL   H25439150   0.630   3.634   5.579  0.8666  1.9895  0.0358
   89MOL   H25539151   0.495   3.579   5.684 -1.3817 -0.1237 -1.8482
   89MOL   H25639152   0.701   3.642   5.796  1.8672  0.2647 -2.1162
   89MOL   H25739153   0.689   3.812   5.748 -1.2942  1.2507  0.1436
   89MOL   H25839154   0.464   3.679   5.901 -0.4661  0.6419  0.2101
   89MOL   H25939155   0.572   3.808   5.964 -0.1538  3.1092 -0.7475
   89MOL   H26039156   0.513   3.959   5.799 -0.4655  0.9421  1.9434
   89MOL   H26139157   0.375   3.916   5.901 -0.1311 -0.8770  0.4391
   89MOL   H26239158   0.297   3.759   5.729  0.6613 -0.0988  2.0768
   89MOL   H26339159   0.310   3.910   5.652  1.7023 -0.4284 -2.3786
   89MOL   H26439160   0.213   3.682   5.551  1.4430  1.0185  1.3232
   89MOL   H26539161   0.334   3.564   5.498  0.8706  0.4927  1.5722
   89MOL   C26639162   0.190   3.645   5.349 -0.3684 -0.2742  0.7552
   89MOL   C26739163   0.174   3.502   5.287  0.6529 -0.1190 -0.8705
   89MOL   C26839164   0.144   3.394   5.396 -0.0431  1.1705 -0.0084
   89MOL   C26939165   0.115   3.263   5.320  0.3760 -0.7284  0.0489
   89MOL   C27039166   0.249   3.218   5.236  0.3362 -0.0725 -0.2941
   89MOL   C27139167   0.270   3.325   5.132 -0.6333 -0.1089  0.2883
   89MOL   C27239168   0.295   3.462   5.198 -0.6479  0.3748  0.1998
   89MOL   C27339169   0.048   3.694   5.377 -0.2185 -0.7881  0.0003
   89MOL   H27439170   0.219   3.720   5.275  0.7467 -0.4807  0.9746
   89MOL   H27539171   0.085   3.499   5.225  1.6344  0.2896 -2.3106
   89MOL   H27639172   0.229   3.374   5.462 -0.2544  0.1285 -0.0471
   89MOL   H27739173   0.071   3.427   5.469 -1.5357  0.0187 -0.9646
   89MOL   H27839174   0.025   3.266   5.260  0.9115  3.7036 -0.6878
   89MOL   H27939175   0.107   3.187   5.398 -0.6161 -0.5808  0.0880
   89MOL   H28039176   0.335   3.217   5.303  0.6953  1.2376 -0.7255
   89MOL   H28139177   0.236   3.122   5.187 -1.7442  0.8989 -1.7354
   89MOL   H28239178   0.185   3.316   5.064 -0.5141 -2.8801  0.4479
   89MOL   H28339179   0.352   3.298   5.066 -0.1483 -1.5823  1.4548
   89MOL   H28439180   0.317   3.537   5.122  3.8308 -0.6795  0.3151
   89MOL   H28539181   0.380   3.456   5.266  0.4828  0.0961 -1.2231
   89MOL   H28639182   7.766   3.623   5.439 -0.9611 -1.1951 -1.0808
   89MOL   H28739183   7.762   3.690   5.285 -0.7710 -1.3859  0.3683
   89MOL   C28839184   0.035   3.850   5.427 -0.4732 -0.0573 -0.6277
   89MOL   C28939185   7.666   3.870   5.494 -0.3842  0.1948  0.8346
   89MOL   C29039186   7.546   3.832   5.404 -0.3751  0.1765 -0.1731
   89MOL   C29139187   7.398   3.847   5.460 -0.2320  0.4098 -0.7026
   89MOL   C29239188   7.392   3.770   5.593 -0.2377 -0.5132  0.5388
   89MOL   C29339189   7.508   3.802   5.687 -0.1027  0.5422 -0.6143
   89MOL   C29439190   7.649   3.785   5.627 -0.0745 -0.0010 -0.3914
   89MOL   C29539191   0.055   3.963   5.318  0.3480  0.3477 -0.0546
   89MOL   H29639192   0.106   3.865   5.508 -1.1486  0.4914 -0.1222
   89MOL   H29739193   7.664   3.970   5.538 -0.6479 -0.1351  1.5775
   89MOL   H29839194   7.555   3.892   5.313  0.8015  0.5887  0.1929
   89MOL   H29939195   7.550   3.729   5.369 -2.2423  0.3345 -0.8817
   89MOL   H30039196   7.392   3.952   5.490  0.8180 -0.0808  1.2824
   89MOL   H30139197   7.319   3.826   5.387 -0.7002  0.9086 -0.3408
   89MOL   H30239198   7.385   3.663   5.577 -0.5819 -0.5791  1.1151
   89MOL   H30339199   7.298   3.789   5.644 -0.2688  0.3157  0.1860
   89MOL   H30439200   7.501   3.744   5.779  1.4667 -1.7966 -1.9219
   89MOL   H30539201   7.493   3.907   5.716 -0.7571  0.5665 -1.0268
   89MOL   H30639202   7.649   3.678   5.606  0.6916 -0.1808  0.5459
   89MOL   H30739203   7.726   3.792   5.703  0.6717 -0.6107 -1.0888
   89MOL   H30839204   0.145   3.952   5.257 -1.2064 -0.2610 -2.2799
   89MOL   H30939205   7.753   3.953   5.239  0.9630  1.6445 -0.8123
   89MOL   C31039206   0.041   4.114   5.363  0.3111 -0.2393  0.5016
   89MOL   C31139207   0.142   4.148   5.475 -0.2403 -0.3259 -0.8248
   89MOL   C31239208   0.294   4.162   5.426 -0.5960 -0.0300 -0.3437
   89MOL   C31339209   0.381   4.206   5.542  0.3263 -0.0300 -0.2913
   89MOL   C31439210   0.327   4.335   5.608 -0.4700 -0.3451 -0.0958
   89MOL   C31539211   0.186   4.330   5.655 -0.1995 -0.0632 -0.0412
   89MOL   C31639212   0.096   4.277   5.543  0.2446  0.5271  0.7186
   89MOL   C31739213   0.048   4.204   5.234 -0.4759  0.0235  0.5702
   89MOL   H31839214   7.714   4.122   5.408 -1.0496  0.6434 -2.5076
   89MOL   H31939215   0.151   4.077   5.557 -0.8159 -2.0532 -2.2360
   89MOL   H32039216   0.339   4.075   5.378 -2.7032 -0.3634 -1.7344
   89MOL   H32139217   0.306   4.246   5.358 -1.2478  0.3017 -0.0474
   89MOL   H32239218   0.482   4.220   5.503 -0.3988 -0.3196 -2.3459
   89MOL   H32339219   0.387   4.130   5.620 -2.4959 -1.5938 -1.5417
   89MOL   H32439220   0.396   4.367   5.686 -0.2188 -1.3414  0.1028
   89MOL   H32539221   0.325   4.414   5.533  0.6783  0.9548  1.2234
   89MOL   H32639222   0.174   4.267   5.743 -0.1775  1.6956  1.2692
   89MOL   H32739223   0.151   4.428   5.689 -2.0708 -0.2424 -1.4005
   89MOL   H32839224   0.090   4.359   5.472  1.8896 -0.2118 -0.2813
   89MOL   H32939225   7.770   4.254   5.585  0.3521  0.5218  0.9704
   89MOL   H33039226   0.130   4.179   5.167 -0.4971  0.8322  0.2337
   89MOL   H33139227   0.057   4.307   5.266  1.8746  0.5577 -1.6648
   89MOL   C33239228   7.685   4.206   5.150  0.1007  0.0125  0.4893
   89MOL   C33339229   7.721   4.146   5.010  0.8307 -0.4703  0.0737
   89MOL   C33439230   0.039   4.235   4.916  0.4243  0.1383 -0.4644
   89MOL   C33539231   0.063   4.162   4.780  1.2483  0.4423 -0.2308
   89MOL   C33639232   7.703   4.125   4.706  0.2357 -0.3928  0.0842
   89MOL   C33739233   7.620   4.038   4.807 -0.3601  0.6639 -0.3708
   89MOL   C33839234   7.593   4.119   4.929 -0.0579  0.0765 -0.3051
   89MOL   C33939235   7.622   4.349   5.137  0.0235  0.4383 -0.7949
   89MOL   H34039236   7.622   4.129   5.195  0.0936  0.6329  1.5554
   89MOL   H34139237   0.007   4.057   5.030  1.6735  0.0165 -0.2130
   89MOL   H34239238   7.753   4.326   4.901  0.3832  0.2900  0.6163
   89MOL   H34339239   0.136   4.253   4.961  0.5102 -3.1084  0.7638
   89MOL   H34439240   0.114   4.222   4.706  0.3900  1.2442 -0.1913
   89MOL   H34539241   0.127   4.074   4.792 -0.0346 -0.3465  1.0775
   89MOL   H34639242   7.649   4.214   4.671 -0.7299 -1.2157 -0.5467
   89MOL   H34739243   7.728   4.066   4.617  2.1865 -0.3836  0.6117
   89MOL   H34839244   7.670   3.942   4.821 -1.9178  0.0739  1.4430
   89MOL   H34939245   7.524   4.015   4.761  0.0313 -0.8745 -0.4453
   89MOL   H35039246   7.519   4.071   4.992  1.9941  0.2262  2.2989
   89MOL   H35139247   7.549   4.214   4.898  0.3833  0.4164  0.0991
   89MOL   H35239248   7.543   4.349   5.061 -0.5119  1.1172 -0.2377
   89MOL   H35339249   7.707   4.409   5.106  0.7714 -0.4872 -0.5455
   89MOL   C35439250   7.560   4.403   5.274  0.2235  0.1200  0.1639
   89MOL   C35539251   7.451   4.298   5.335 -0.6310  0.3236  0.2182
   89MOL   C35639252   7.310   4.315   5.275  0.7410  0.1792  0.1985
   89MOL   C35739253   7.219   4.212   5.337 -0.3772  0.3938 -0.3553
   89MOL   C35839254   7.201   4.242   5.490 -0.1048  1.1255  0.5752
   89MOL   C35939255   7.331   4.245   5.560  0.1003 -0.0609 -0.4381
   89MOL   C36039256   7.438   4.338   5.485 -0.0200 -0.0609 -0.0653
   89MOL   C36139257   7.508   4.549   5.264 -0.5127 -0.3478 -0.1683
   89MOL   H36239258   7.647   4.412   5.339 -0.4746  0.0545  1.1334
   89MOL   H36339259   7.473   4.192   5.324 -0.7792  0.7019 -5.0047
   89MOL   H36439260   7.313   4.298   5.167  0.2987 -0.3442  0.2683
   89MOL   H36539261   7.265   4.414   5.281  0.5141  0.1013 -0.1356
   89MOL   H36639262   7.125   4.208   5.282 -0.3484 -0.4885 -0.3440
   89MOL   H36739263   7.263   4.113   5.323  0.6164  0.8162 -0.2457
   89MOL   H36839264   7.136   4.329   5.505 -0.9127  0.7362 -0.5911
   89MOL   H36939265   7.136   4.167   5.535  1.8227 -0.9506 -0.0271
   89MOL   H37039266   7.310   4.287   5.659 -1.3374  2.2650 -1.6785
   89MOL   H37139267   7.361   4.141   5.556 -0.5842 -0.3276  1.0918
   89MOL   H37239268   7.535   4.319   5.532 -0.0315 -1.8415 -0.7074
   89MOL   H37339269   7.424   4.442   5.513 -2.9377 -0.6629  0.9043
   89MOL   H37439270   7.469   4.585   5.359 -0.6498 -1.4983  0.2165
   89MOL   H37539271   7.430   4.557   5.188 -0.8508  0.6181  0.2679
   89MOL   C37639272   7.605   4.668   5.224  0.0159  0.6317  0.3258
   89MOL   C37739273   7.520   4.793   5.192  0.1763 -0.4598  0.5964
   89MOL   C37839274   7.475   4.784   5.042 -0.4059 -0.1440 -0.2776
   89MOL   C37939275   7.386   4.898   4.996  0.3100  0.6553  0.7535
   89MOL   C38039276   7.448   5.037   5.021 -0.3234  0.3357  0.1040
   89MOL   C38139277   7.489   5.041   5.167  0.2343  0.1051 -0.3641
   89MOL   C38239278   7.585   4.926   5.208 -0.3403 -0.3950  0.0206
   89MOL   C38339279   7.698   4.699   5.347 -0.4170  0.3661  0.2669
   89MOL   H38439280   7.677   4.642   5.146  1.5691 -1.2121  2.2948
   89MOL   H38539281   7.431   4.789   5.254 -0.7928  2.4042 -0.5234
   89MOL   H38639282   7.566   4.785   4.983  0.1546  0.4603  0.5739
   89MOL   H38739283   7.418   4.693   5.024 -0.3072 -0.2186 -0.2121
   89MOL   H38839284   7.291   4.883   5.049 -0.1443 -1.6848 -0.6332
   89MOL   H38939285   7.361   4.870   4.894 -1.0822 -1.0730  1.5320
   89MOL   H39039286   7.535   5.039   4.954 -0.8295  1.6692 -0.5298
   89MOL   H39139287   7.386   5.121   4.990 -2.0364 -1.1539 -0.5406
   89MOL   H39239288   7.554   5.128   5.179  1.5215 -0.8130 -0.6409
   89MOL   H39339289   7.399   5.052   5.229 -0.0106 -0.4271 -0.6196
   89MOL   H39439290   7.676   4.932   5.148 -1.9757 -1.2750 -2.6569
   89MOL   H39539291   7.605   4.953   5.311 -1.7453  0.7328  0.0122
   89MOL   H39639292   7.726   4.598   5.378  3.5572  1.7124  1.3719
   89MOL   H39739293   7.640   4.744   5.428  0.3126 -1.1783  1.6904
   89MOL   C39839294   0.067   4.764   5.319  0.0608 -0.2070 -0.2704
   89MOL   C39939295   0.126   4.803   5.459 -0.8462 -0.4443  0.8443
   89MOL   C40039296   0.047   4.912   5.535  0.3050  0.1733 -0.5113
   89MOL   C40139297   0.126   4.946   5.675  0.7162 -0.0598  0.5592
   89MOL   C40239298   0.158   4.818   5.752  0.1889  0.1324 -0.2297
   89MOL   C40339299   0.232   4.718   5.667  0.3385 -0.3591  0.1666
   89MOL   C40439300   0.160   4.680   5.545  0.5049  1.1047  0.7792
   89MOL   C40539301   0.168   4.687   5.237  0.0256  0.7975  0.3803
   89MOL   H40639302   0.055   4.861   5.270 -1.9008 -0.5775 -0.5904
   89MOL   H40739303   0.222   4.855   5.451 -0.8482 -0.7379 -1.6074
   89MOL   H40839304   7.730   4.855   5.561  0.3465  0.4710  0.3075
   89MOL   H40939305   0.015   5.002   5.483  0.8062  0.7969  0.2561
   89MOL   H41039306   0.067   5.020   5.730  0.3004 -0.5241  0.7382
   89MOL   H41139307   0.222   4.993   5.656  0.3471  0.3215 -0.4022
   89MOL   H41239308   0.059   4.780   5.778  0.3642  0.4372  0.9089
   89MOL   H41339309   0.208   4.841   5.846  0.8287  0.2140 -0.5864
   89MOL   H41439310   0.333   4.757   5.653 -0.0580  0.6018 -0.0966
   89MOL   H41539311   0.242   4.625   5.722 -0.4515  0.3022  1.4409
   89MOL   H41639312   0.207   4.607   5.479 -0.6506  3.5043 -2.8787
   89MOL   H41739313   0.064   4.636   5.574 -0.0764  1.8115 -0.0268
   89MOL   H41839314   0.268   4.698   5.280  0.1070  1.8376 -0.0689
   89MOL   H41939315   0.135   4.583   5.241 -2.5238  1.5127 -0.9488
   89MOL   C42039316   0.159   4.731   5.084 -0.1291 -0.7651  0.5243
   89MOL   C42139317   0.203   4.620   4.984  0.5000  0.4466  0.2903
   89MOL   C42239318   0.337   4.557   4.994  0.2710 -0.5378  0.4001
   89MOL   C42339319   0.365   4.439   4.891 -0.1104 -0.2457  0.0053
   89MOL   C42439320   0.344   4.500   4.747 -0.4188 -0.1488  0.6132
   89MOL   C42539321   0.207   4.573   4.727  0.3581 -0.1713 -1.0555
   89MOL   C42639322   0.173   4.668   4.842 -0.9159  0.0934  1.0829
   89MOL   C42739323   0.240   4.860   5.065  0.1708  0.4591 -0.2373
   89MOL   H42839324   0.061   4.758   5.045  0.5404 -0.4272 -0.9761
   89MOL   H42939325   0.132   4.539   5.003 -0.4814  0.9749 -1.0386
   89MOL   H43039326   0.415   4.632   4.978 -0.4649 -0.1478 -1.4347
   89MOL   H43139327   0.353   4.520   5.096 -0.7237  0.2150  0.8419
   89MOL   H43239328   0.468   4.408   4.902 -0.2028 -0.8455 -0.7766
   89MOL   H43339329   0.298   4.354   4.904  0.6544 -0.6948  1.0036
   89MOL   H43439330   0.354   4.427   4.667  1.4941  0.0758  0.6219
   89MOL   H43539331   0.427   4.569   4.733 -0.6373 -0.1716 -0.9397
   89MOL   H43639332   0.130   4.500   4.702  0.7770  0.4576 -4.4196
   89MOL   H43739333   0.213   4.634   4.637 -0.8199 -0.7022 -1.5063
   89MOL   H43839334   0.222   4.762   4.818  1.6729 -0.9992  1.9585
   89MOL   H43939335   0.064   4.676   4.837 -1.0449 -2.3001 -0.8229
   89MOL   H44039336   0.222   4.899   4.965  0.4597 -0.0877 -0.5082
   89MOL   H44139337   0.208   4.926   5.146 -1.6783  0.9026 -1.3036
   89MOL   H44239338   0.346   4.834   5.065  0.1256  0.1568  1.6365
   90MOL     C139339   4.558   4.089   7.181 -0.0352 -0.0981  0.1767
   90MOL     C239340   4.642   4.208   7.129  1.0978 -0.2822 -0.2040
   90MOL     C339341   4.675   4.310   7.238 -0.2231 -0.2512  0.2098
   90MOL     C439342   4.758   4.418   7.181 -0.7948 -0.2739 -0.3166
   90MOL     C539343   4.691   4.491   7.062  0.1013 -0.0529 -1.2975
   90MOL     C639344   4.646   4.400   6.950 -0.2253  0.1116 -0.2900
   90MOL     C739345   4.574   4.279   7.011 -0.2791  0.6285 -0.8872
   90MOL     C839346   4.628   4.018   7.299 -0.3852  0.3234  0.0398
   90MOL     H939347   4.458   4.127   7.203 -0.0630  0.0901 -0.2620
   90MOL    H1039348   4.734   4.170   7.084  0.9588  1.9143 -2.4422
   90MOL    H1139349   4.582   4.352   7.277  0.6377 -0.5857  2.7193
   90MOL    H1239350   4.722   4.256   7.320 -1.1075  2.0504  2.2866
   90MOL    H1339351   4.844   4.370   7.135 -1.0256  1.1006 -2.2636
   90MOL    H1439352   4.774   4.498   7.252 -1.4542  0.6863 -1.2273
   90MOL    H1539353   4.764   4.550   7.007  0.8802 -0.2455 -0.4966
   90MOL    H1639354   4.618   4.563   7.099  1.3713 -0.4895  2.2404
   90MOL    H1739355   4.588   4.463   6.882  0.0195  1.0720  0.3963
   90MOL    H1839356   4.734   4.366   6.896 -1.1928 -1.0115 -1.2003
   90MOL    H1939357   4.542   4.204   6.939 -1.3663  0.0194  0.2068
   90MOL    H2039358   4.478   4.318   7.047  1.0281  2.7857  0.3767
   90MOL    H2139359   4.611   4.080   7.387  1.8438 -0.6682  1.2273
   90MOL    H2239360   4.733   4.023   7.272  0.0254 -0.1224  1.4877
   90MOL    H2339361   4.541   4.024   7.095 -0.7236 -0.0508  0.2679
   90MOL    C2439362   4.601   3.865   7.316 -0.1645 -0.0419 -0.1747
   90MOL    C2539363   4.714   3.787   7.386 -0.5484  0.2088 -0.6287
   90MOL    C2639364   4.759   3.837   7.528 -0.1393 -0.4867 -0.7136
   90MOL    C2739365   4.847   3.732   7.585  0.2718  0.3565 -0.0846
   90MOL    C2839366   4.973   3.727   7.498  0.0512 -0.0537  0.0806
   90MOL    C2939367   4.936   3.685   7.361 -0.2144  0.5292  0.7716
   90MOL    C3039368   4.837   3.776   7.291 -0.2348  0.1961 -0.1696
   90MOL    C3139369   4.467   3.829   7.374 -0.3652  0.4521  0.6264
   90MOL    H3239370   4.607   3.828   7.214  1.3688 -1.0066  0.2457
   90MOL    H3339371   4.687   3.684   7.407  1.5816  0.0949  1.8226
   90MOL    H3439372   4.685   3.861   7.604 -0.5935 -0.2430 -1.2247
   90MOL    H3539373   4.826   3.923   7.517 -0.7377  0.1730  0.6086
   90MOL    H3639374   4.870   3.770   7.685 -3.0765  0.9457  0.5238
   90MOL    H3739375   4.800   3.635   7.602 -1.6460  1.7621  3.0696
   90MOL    H3839376   5.042   3.652   7.537 -0.7812 -0.6600  0.4192
   90MOL    H3939377   5.032   3.818   7.492  0.5055 -0.2551  1.3900
   90MOL    H4039378   5.026   3.682   7.299 -0.3781 -0.1530  0.5605
   90MOL    H4139379   4.904   3.581   7.370 -0.4114  0.4583 -0.6514
   90MOL    H4239380   4.887   3.870   7.265  0.2160  0.6845  2.3048
   90MOL    H4339381   4.809   3.738   7.193 -1.4936 -2.3086  1.0995
   90MOL    H4439382   4.413   3.923   7.361  0.3572  0.5217 -2.3762
   90MOL    H4539383   4.466   3.812   7.481 -1.1676  2.4701  0.9468
   90MOL    C4639384   4.380   3.720   7.296 -0.4529 -0.1369 -0.6109
   90MOL    C4739385   4.226   3.738   7.326  0.0951 -0.0665  0.0369
   90MOL    C4839386   4.164   3.864   7.265  0.3662  0.3815  0.1895
   90MOL    C4939387   4.010   3.868   7.295  0.2334  0.1686 -0.1143
   90MOL    C5039388   3.974   3.850   7.441 -0.3918 -0.2586  0.3196
   90MOL    C5139389   4.032   3.716   7.490 -0.3826  0.5323  0.1063
   90MOL    C5239390   4.184   3.727   7.475  0.5136 -0.5327  0.1992
   90MOL    C5339391   4.446   3.583   7.318  0.8631 -0.5349  0.5308
   90MOL    H5439392   4.393   3.737   7.189 -1.5543  0.7597 -0.6071
   90MOL    H5539393   4.168   3.661   7.275  0.0341 -1.3691  2.0368
   90MOL    H5639394   4.205   3.962   7.288 -0.1546  1.1435 -1.9980
   90MOL    H5739395   4.176   3.855   7.157  0.2181  1.2058  0.1025
   90MOL    H5839396   3.959   3.787   7.243  1.4343  0.3587 -1.6505
   90MOL    H5939397   3.960   3.956   7.255 -1.6304 -0.7900  0.0396
   90MOL    H6039398   4.004   3.935   7.502 -3.0182  0.1598  1.1047
   90MOL    H6139399   3.868   3.861   7.464  0.4574  1.0195  4.0158
   90MOL    H6239400   3.993   3.628   7.439 -1.9361  1.3734 -0.2008
   90MOL    H6339401   4.011   3.708   7.597 -0.4669  0.6274  0.0967
   90MOL    H6439402   4.213   3.820   7.524 -1.8100 -0.1213  0.8243
   90MOL    H6539403   4.229   3.638   7.519  1.7512 -0.0314 -0.0212
   90MOL    H6639404   4.470   3.573   7.424  1.2033 -2.1902  0.3154
   90MOL    H6739405   4.540   3.577   7.263 -0.2898 -0.3679 -1.5030
   90MOL    C6839406   4.368   3.460   7.270 -0.1767 -0.3171  0.1188
   90MOL    C6939407   4.353   3.471   7.119 -0.5865 -0.1019  0.1534
   90MOL    C7039408   4.487   3.471   7.036  0.5568  0.5013  0.0507
   90MOL    C7139409   4.461   3.464   6.887 -0.3477 -0.0791 -1.1208
   90MOL    C7239410   4.359   3.357   6.846  0.5103  0.4185 -0.0295
   90MOL    C7339411   4.224   3.362   6.921 -0.4618 -0.4853 -0.2542
   90MOL    C7439412   4.246   3.363   7.071 -0.3500  0.7791  0.0983
   90MOL    C7539413   4.429   3.337   7.317  0.4140 -0.6314 -0.0837
   90MOL    H7639414   4.270   3.464   7.317 -0.8962 -0.7879 -1.3094
   90MOL    H7739415   4.299   3.562   7.093  1.3838  0.9929 -0.1809
   90MOL    H7839416   4.540   3.383   7.071  0.5211  0.1907 -0.6603
   90MOL    H7939417   4.547   3.559   7.061  0.1516  1.0053 -0.7146
   90MOL    H8039418   4.441   3.560   6.839  0.0540  1.9377  2.5874
   90MOL    H8139419   4.555   3.449   6.833  0.3584 -0.5373  0.2259
   90MOL    H8239420   4.399   3.256   6.858  2.4993  1.1338 -0.4267
   90MOL    H8339421   4.331   3.341   6.742  2.1310  0.5739 -0.5086
   90MOL    H8439422   4.158   3.282   6.888 -2.3121  0.3819  1.2636
   90MOL    H8539423   4.189   3.459   6.885 -1.5226 -1.5566 -2.2114
   90MOL    H8639424   4.292   3.265   7.088  0.6788  1.3700  0.7894
   90MOL    H8739425   4.146   3.375   7.111 -1.3542 -3.0306 -1.0187
   90MOL    H8839426   4.437   3.253   7.247 -0.6706 -1.8144  1.1895
   90MOL    H8939427   4.533   3.368   7.321  0.4809 -0.7585 -0.7713
   90MOL    C9039428   4.370   3.273   7.450  0.2824  0.4477 -0.5804
   90MOL    C9139429   4.230   3.210   7.434 -0.2536  0.1511 -0.6474
   90MOL    C9239430   4.215   3.073   7.357 -0.4817 -0.3897  1.4811
   90MOL    C9339431   4.066   3.033   7.346  0.2005  0.3656 -0.5237
   90MOL    C9439432   4.004   3.017   7.480  0.2346  0.1286  0.2326
   90MOL    C9539433   4.017   3.144   7.561 -0.0179 -0.0986  0.0272
   90MOL    C9639434   4.158   3.203   7.575  0.2232 -0.0676  0.6708
   90MOL    C9739435   4.477   3.170   7.526  0.0380 -0.1893  0.2284
   90MOL    H9839436   4.356   3.357   7.518 -1.5622  0.5860 -1.0886
   90MOL    H9939437   4.177   3.289   7.381  0.4088  0.0537 -1.4645
   90MOL   H10039438   4.268   2.988   7.400  1.1867  0.7967  1.7970
   90MOL   H10139439   4.252   3.080   7.254 -2.2755  2.3588  0.9467
   90MOL   H10239440   4.068   2.942   7.286 -0.7048 -0.3322  0.4839
   90MOL   H10339441   4.011   3.114   7.297 -2.1415 -1.7465 -1.4928
   90MOL   H10439442   4.055   2.931   7.524 -0.0206  0.1382  0.5468
   90MOL   H10539443   3.898   3.007   7.454  0.0851 -1.1223  1.2631
   90MOL   H10639444   3.953   3.222   7.521  0.0796 -0.8540 -1.6416
   90MOL   H10739445   3.975   3.133   7.661  0.8859  1.5709  0.6223
   90MOL   H10839446   4.129   3.301   7.613 -0.9347 -0.2121  0.1780
   90MOL   H10939447   4.221   3.145   7.643 -0.1279 -0.9014  0.2884
   90MOL   H11039448   4.423   3.116   7.604 -0.2982  1.2294  0.9858
   90MOL   H11139449   4.501   3.093   7.452 -2.7396 -0.4033 -0.4938
   90MOL   C11239450   4.605   3.231   7.590 -0.0342 -0.9505  0.3024
   90MOL   C11339451   4.737   3.179   7.519  0.6461  0.3386 -0.5517
   90MOL   C11439452   4.761   3.200   7.370 -0.2663 -0.4838  0.0906
   90MOL   C11539453   4.895   3.138   7.312  0.2423  0.1605  0.0235
   90MOL   C11639454   4.904   2.989   7.339  0.0852  0.3473 -0.0261
   90MOL   C11739455   4.890   2.968   7.488 -0.0806  0.4930  0.0954
   90MOL   C11839456   4.768   3.026   7.548  0.1109  0.9637  0.0148
   90MOL   C11939457   4.609   3.207   7.750 -0.2142  0.2593  0.2521
   90MOL   H12039458   4.593   3.337   7.568 -1.1720 -1.0344  0.4768
   90MOL   H12139459   4.814   3.225   7.580 -0.0272  1.0576 -0.2304
   90MOL   H12239460   4.745   3.305   7.346 -2.8362 -1.1162 -1.0960
   90MOL   H12339461   4.680   3.151   7.317 -0.3723 -1.0316  0.7571
   90MOL   H12439462   4.894   3.147   7.203 -0.1505  0.6488  0.0674
   90MOL   H12539463   4.987   3.173   7.360  0.5286 -0.0078 -0.3921
   90MOL   H12639464   4.837   2.930   7.276  2.0079 -1.4177 -0.4577
   90MOL   H12739465   5.006   2.966   7.308  0.0674  0.4555 -0.1658
   90MOL   H12839466   4.889   2.861   7.512 -1.3153  0.4000 -0.3537
   90MOL   H12939467   4.969   3.014   7.549 -3.7808  1.6830  4.2528
   90MOL   H13039468   4.777   2.993   7.651  0.4088  3.4191  0.7981
   90MOL   H13139469   4.686   2.974   7.498  0.2001  1.9773 -1.2016
   90MOL   H13239470   4.696   3.255   0.021 -0.3556 -0.2421  1.1119
   90MOL   H13339471   4.615   3.100   7.769  0.5503  0.4914  1.3473
   90MOL   C13439472   4.488   3.252   0.062 -0.2361 -0.8788 -0.2270
   90MOL   C13539473   4.464   3.401   0.051 -0.3219 -0.3511  0.6040
   90MOL   C13639474   4.571   3.502   0.109  0.2320  0.6516 -0.2336
   90MOL   C13739475   4.539   3.649   0.083 -0.3168 -0.6748  0.6998
   90MOL   C13839476   4.403   3.687   0.140  0.2277 -0.5934  0.1533
   90MOL   C13939477   4.293   3.596   0.092  0.0682 -0.7015 -0.1382
   90MOL   C14039478   4.326   3.448   0.109 -0.4559  0.2993 -0.3541
   90MOL   C14139479   4.513   3.211   0.213  0.2885 -0.1738  0.2871
   90MOL   H14239480   4.403   3.203   0.013  0.8555 -2.3053 -0.7373
   90MOL   H14339481   4.462   3.423   7.717 -0.6468  0.0726  0.6949
   90MOL   H14439482   4.593   3.495   0.215  1.9696  0.8265 -0.5729
   90MOL   H14539483   4.667   3.478   0.063 -0.0636  0.0120 -0.5357
   90MOL   H14639484   4.540   3.682   7.751  1.7185 -1.1357  0.5598
   90MOL   H14739485   4.621   3.708   0.124 -1.3018  1.3767 -0.1635
   90MOL   H14839486   4.409   3.683   0.249 -1.8079 -2.1391  0.2351
   90MOL   H14939487   4.365   3.786   0.115 -2.0513 -1.6113 -0.5423
   90MOL   H15039488   4.266   3.614   7.760 -0.3813  2.4715  0.4910
   90MOL   H15139489   4.206   3.628   0.150  1.0440 -0.1104  1.0327
   90MOL   H15239490   4.307   3.416   0.212 -1.2574 -0.3998 -0.7177
   90MOL   H15339491   4.243   3.405   0.053  0.7426  0.0106 -1.9290
   90MOL   H15439492   4.439   3.248   0.284  0.0605  1.2305 -0.6588
   90MOL   H15539493   4.605   3.254   0.252  0.6162 -1.1529  0.6211
   90MOL   C15639494   4.526   3.057   0.235 -0.2307 -0.8933 -0.4274
   90MOL   C15739495   4.406   2.971   0.177 -0.7047 -0.1327 -0.2684
   90MOL   C15839496   4.430   2.815   0.172  0.2556  0.1243 -0.6047
   90MOL   C15939497   4.309   2.742   0.113 -0.8275  0.2073  0.7799
   90MOL   C16039498   4.183   2.772   0.182  0.0492 -0.1725 -0.4315
   90MOL   C16139499   4.166   2.925   0.172  0.4736  0.5557 -0.4518
   90MOL   C16239500   4.276   3.009   0.242 -0.0936 -1.0917  0.0671
   90MOL   C16339501   4.524   3.033   0.388  0.2772 -0.5805 -0.3544
   90MOL   H16439502   4.617   3.022   0.185 -0.1212 -1.2052 -0.0115
   90MOL   H16539503   4.394   3.000   0.072  0.8421 -1.6949 -0.9082
   90MOL   H16639504   4.521   2.780   0.123 -0.2087  0.8644 -2.0303
   90MOL   H16739505   4.441   2.777   0.273 -1.2211 -0.5013 -0.6691
   90MOL   H16839506   4.299   2.767   0.007  2.2252 -2.1084 -0.1297
   90MOL   H16939507   4.330   2.636   0.100  2.8232  0.5560  3.3030
   90MOL   H17039508   4.197   2.744   0.286 -0.1807 -0.7501 -0.5596
   90MOL   H17139509   4.091   2.727   0.146  0.7200 -0.8273 -1.3433
   90MOL   H17239510   4.072   2.955   0.218  1.0830 -0.3695  1.4425
   90MOL   H17339511   4.161   2.958   0.068 -0.1875  0.4540 -0.4523
   90MOL   H17439512   4.249   3.115   0.233 -1.7400 -1.4641  0.4395
   90MOL   H17539513   4.283   2.980   0.347 -0.7696 -1.0273  0.1346
   90MOL   H17639514   4.511   2.926   0.396  0.0891 -0.5607 -0.3945
   90MOL   H17739515   4.444   3.085   0.441  0.5073 -0.1259 -0.4461
   90MOL   C17839516   4.662   3.065   0.465 -0.7304 -0.9422  0.3117
   90MOL   C17939517   4.650   3.047   0.623  0.4586 -0.3570 -0.0693
   90MOL   C18039518   4.582   2.923   0.662 -0.4210  0.7440 -0.2996
   90MOL   C18139519   4.601   2.908   0.810 -0.1869  0.1059 -0.4427
   90MOL   C18239520   4.524   3.013   0.892 -0.8878 -0.6462  0.6224
   90MOL   C18339521   4.564   3.152   0.848 -0.7864  0.1833 -0.1372
   90MOL   C18439522   4.575   3.165   0.695 -0.6395 -0.3274  0.5861
   90MOL   C18539523   4.783   2.984   0.406 -0.4641  0.4691 -0.2092
   90MOL   H18639524   4.679   3.170   0.442 -1.4083 -1.2127 -1.5086
   90MOL   H18739525   4.751   3.050   0.664  0.6710 -1.5183 -0.4935
   90MOL   H18839526   4.482   2.917   0.619  0.0661  0.6073 -1.4201
   90MOL   H18939527   4.644   2.844   0.621 -1.1076  0.3662 -0.6047
   90MOL   H19039528   4.705   2.893   0.840 -0.5364 -3.2074 -0.6808
   90MOL   H19139529   4.567   2.809   0.843 -0.0255  0.9339  2.4049
   90MOL   H19239530   4.417   3.012   0.869 -0.6112  1.7645 -0.9579
   90MOL   H19339531   4.543   2.991   0.997 -2.2785 -2.0457  0.5940
   90MOL   H19439532   4.667   3.167   0.882 -0.0522 -0.4532 -1.9635
   90MOL   H19539533   4.500   3.231   0.887 -0.2103  0.5784  0.0162
   90MOL   H19639534   4.472   3.171   0.661 -0.8311  0.5267  1.2930
   90MOL   H19739535   4.628   3.259   0.679  0.2505 -0.5484  2.1371
   90MOL   H19839536   4.790   2.886   0.452 -2.3525  0.8990  1.0242
   90MOL   H19939537   4.781   2.955   0.301  2.1816 -1.1273  0.1471
   90MOL   C20039538   4.917   3.054   0.433  0.3779  0.1074  0.2653
   90MOL   C20139539   5.043   2.963   0.428  0.9559  0.0132  0.0603
   90MOL   C20239540   5.077   2.890   0.564  0.0072  0.0702 -0.3219
   90MOL   C20339541   5.196   2.785   0.548 -0.0539  0.3649 -1.3570
   90MOL   C20439542   5.150   2.689   0.445  0.2654  0.3443  0.1399
   90MOL   C20539543   5.148   2.755   0.308  0.0583 -0.2920 -0.4194
   90MOL   C20639544   5.040   2.859   0.314 -0.3861  0.4211  0.5631
   90MOL   C20739545   4.937   3.176   0.339  0.5827  0.0259 -0.6924
   90MOL   H20839546   4.917   3.087   0.537  1.1825  0.1473  0.2576
   90MOL   H20939547   5.126   3.026   0.393  0.6560 -0.3381 -1.3056
   90MOL   H21039548   4.993   2.831   0.601  0.9510 -1.8145 -1.0618
   90MOL   H21139549   5.111   2.962   0.638  0.0476  1.8947 -2.0815
   90MOL   H21239550   5.294   2.815   0.510 -1.1230  3.2711 -1.9517
   90MOL   H21339551   5.215   2.736   0.644 -3.8997  1.1146 -0.1161
   90MOL   H21439552   5.220   2.606   0.442  0.6179  0.6330  0.3717
   90MOL   H21539553   5.050   2.664   0.480 -0.4647  3.3780  0.3179
   90MOL   H21639554   5.245   2.802   0.290 -0.5234  1.3230  0.5121
   90MOL   H21739555   5.122   2.689   0.226 -4.7190  0.4493  0.3477
   90MOL   H21839556   5.025   2.919   0.223 -2.0108 -0.1453  0.4381
   90MOL   H21939557   4.946   2.804   0.320 -1.3137  1.7215 -1.2881
   90MOL   H22039558   4.987   3.139   0.250 -0.6675  2.0974 -2.3154
   90MOL   H22139559   4.838   3.204   0.304  0.5334  0.9552  0.1513
   90MOL   C22239560   4.996   3.299   0.413  0.9476 -0.3050 -0.0949
   90MOL   C22339561   5.050   3.402   0.314 -0.0445 -0.4408 -0.0639
   90MOL   C22439562   4.943   3.454   0.214 -0.4720  0.1075 -0.5019
   90MOL   C22539563   4.993   3.570   0.132 -0.3809  0.2755 -0.0623
   90MOL   C22639564   5.131   3.535   0.061  0.2461  0.1313 -0.8882
   90MOL   C22739565   5.233   3.466   0.151 -0.6422 -0.4131  0.3397
   90MOL   C22839566   5.168   3.357   0.231  0.3996  0.6556  0.5949
   90MOL   C22939567   4.896   3.368   0.519 -0.7518 -0.4074 -0.7663
   90MOL   H23039568   5.079   3.275   0.479  0.0771  1.3738  1.6565
   90MOL   H23139569   5.089   3.483   0.376  1.6083 -0.2420 -1.3123
   90MOL   H23239570   4.914   3.371   0.151 -0.9583  1.0935 -1.5825
   90MOL   H23339571   4.853   3.490   0.264  0.0011 -0.2801  0.6498
   90MOL   H23439572   5.008   3.648   0.206  0.3759  0.5654 -0.5150
   90MOL   H23539573   4.916   3.611   0.068 -0.3619  0.4475  0.0238
   90MOL   H23639574   5.101   3.473   7.749  0.5429 -1.4734  0.1774
   90MOL   H23739575   5.168   3.630   0.021 -1.2257  1.7522  1.5044
   90MOL   H23839576   5.273   3.544   0.215 -1.7568  0.4742 -0.0234
   90MOL   H23939577   5.318   3.431   0.093  0.1158  2.1757 -0.1803
   90MOL   H24039578   5.155   3.274   0.162  1.1454  0.8139  0.2527
   90MOL   H24139579   5.241   3.319   0.303  1.8115  2.8056  0.3675
   90MOL   H24239580   4.830   3.290   0.559 -0.4481 -1.5706 -2.5021
   90MOL   H24339581   4.834   3.435   0.459 -0.2321  1.6035  0.8735
   90MOL   C24439582   4.954   3.450   0.632 -0.2195 -0.4441 -0.5645
   90MOL   C24539583   5.018   3.362   0.742 -0.7537 -0.3694 -0.1125
   90MOL   C24639584   4.920   3.262   0.812 -0.2206 -0.1270 -0.5570
   90MOL   C24739585   4.990   3.177   0.915  0.3599  0.8148  0.7075
   90MOL   C24839586   5.037   3.282   1.026 -0.0158  0.2827  0.3963
   90MOL   C24939587   5.146   3.367   0.957  0.2804  0.4720 -0.1797
   90MOL   C25039588   5.084   3.451   0.846 -0.2052  0.2398 -0.6999
   90MOL   C25139589   4.840   3.546   0.688  0.1400 -0.4762  0.0948
   90MOL   H25239590   5.031   3.512   0.585 -0.6795  0.6372  0.0820
   90MOL   H25339591   5.085   3.292   0.692 -1.0563  0.8644 -2.3046
   90MOL   H25439592   4.878   3.186   0.747 -0.9571 -2.4298  2.5218
   90MOL   H25539593   4.837   3.321   0.849  0.5525  1.2848 -1.0151
   90MOL   H25639594   4.916   3.106   0.953  0.5599  0.5892  0.6755
   90MOL   H25739595   5.064   3.113   0.868  0.1370  0.8718  0.2830
   90MOL   H25839596   4.955   3.342   1.065 -0.6102  2.2119 -3.5238
   90MOL   H25939597   5.067   3.230   1.117 -0.5638  0.0431  0.4425
   90MOL   H26039598   5.230   3.305   0.926 -0.6376 -1.2029  0.6430
   90MOL   H26139599   5.183   3.430   1.038 -0.7188 -0.7899  1.2881
   90MOL   H26239600   5.010   3.518   0.890  0.6752  0.3319  0.6737
   90MOL   H26339601   5.153   3.511   0.787  2.9293 -1.9810  0.5949
   90MOL   H26439602   4.843   3.553   0.796  0.0913 -2.2085  0.2257
   90MOL   H26539603   4.745   3.494   0.679 -1.7694  2.8378  0.5466
   90MOL   C26639604   4.834   3.679   0.618  0.3502  0.3154  0.2335
   90MOL   C26739605   4.693   3.740   0.622  0.5248 -0.1753 -0.0854
   90MOL   C26839606   4.639   3.740   0.769  0.4234  0.2092  0.2830
   90MOL   C26939607   4.504   3.815   0.785  0.5223  0.4163  0.0696
   90MOL   C27039608   4.408   3.735   0.696 -0.3070 -0.4551  0.2662
   90MOL   C27139609   4.456   3.737   0.550  0.1289  0.4955 -0.0385
   90MOL   C27239610   4.595   3.678   0.531 -0.7572 -0.5155 -0.0899
   90MOL   C27339611   4.941   3.766   0.671  0.0482 -0.4277 -0.2536
   90MOL   H27439612   4.854   3.665   0.512  0.7559 -1.0540  0.4711
   90MOL   H27539613   4.695   3.846   0.595  0.4809  0.0479  0.7734
   90MOL   H27639614   4.628   3.636   0.797 -0.3270  0.0429 -0.6323
   90MOL   H27739615   4.704   3.796   0.837 -1.0389  0.0265  1.8568
   90MOL   H27839616   4.510   3.916   0.746 -0.3637  0.0477 -1.0569
   90MOL   H27939617   4.468   3.830   0.887 -0.9020  2.3163 -0.6840
   90MOL   H28039618   4.389   3.634   0.733 -1.6662 -1.0317 -1.8806
   90MOL   H28139619   4.310   3.782   0.687 -0.8499 -1.5908  0.1073
   90MOL   H28239620   4.453   3.841   0.518 -1.4812  1.0725  1.8632
   90MOL   H28339621   4.385   3.680   0.490 -1.1996  1.7265  0.3531
   90MOL   H28439622   4.636   3.683   0.430  2.8567  0.3321  1.3461
   90MOL   H28539623   4.589   3.573   0.559  1.1614 -1.4256 -2.8045
   90MOL   H28639624   5.016   3.706   0.723 -1.6482 -0.6163  2.0840
   90MOL   H28739625   4.891   3.829   0.745 -0.6616 -1.1937 -0.0716
   90MOL   C28839626   4.996   3.863   0.565 -0.2379 -0.9122 -0.2455
   90MOL   C28939627   5.110   3.803   0.481 -0.1849 -0.5618  0.0529
   90MOL   C29039628   5.124   3.882   0.340  0.4984  0.4829  0.7756
   90MOL   C29139629   5.249   3.831   0.267  0.1035 -0.1354  0.5157
   90MOL   C29239630   5.376   3.810   0.347 -0.0072  0.4240  0.1750
   90MOL   C29339631   5.356   3.728   0.468 -0.3169  0.1569  1.0107
   90MOL   C29439632   5.243   3.797   0.551  1.0482 -0.0958  0.0957
   90MOL   C29539633   5.031   3.999   0.633  0.1680  0.3048  0.0079
   90MOL   H29639634   4.916   3.894   0.497  0.2481  0.9388 -0.0013
   90MOL   H29739635   5.075   3.702   0.460 -1.6467 -0.1241  0.4034
   90MOL   H29839636   5.036   3.890   0.277  0.5193  0.4257  0.7403
   90MOL   H29939637   5.138   3.989   0.356  1.9084  0.3630  0.4475
   90MOL   H30039638   5.209   3.742   0.218 -0.0755 -0.0925  0.5810
   90MOL   H30139639   5.281   3.906   0.195  0.8121 -2.2842 -1.4712
   90MOL   H30239640   5.425   3.904   0.367 -0.7410  1.2826 -1.9213
   90MOL   H30339641   5.448   3.755   0.286 -0.4524 -1.4215  1.2708
   90MOL   H30439642   5.444   3.703   0.527 -0.5489 -1.4476  0.7048
   90MOL   H30539643   5.316   3.631   0.437  0.0203  0.1852  0.4800
   90MOL   H30639644   5.291   3.892   0.574 -0.3251  0.9909 -1.3971
   90MOL   H30739645   5.237   3.731   0.637 -0.4505  0.4294  0.4027
   90MOL   H30839646   5.063   3.987   0.736 -2.5050 -0.4514  0.7663
   90MOL   H30939647   5.113   4.049   0.581  0.2475  1.4289  1.1920
   90MOL   C31039648   4.916   4.100   0.622  0.1606 -0.0491  0.2408
   90MOL   C31139649   4.922   4.208   0.731  0.0466  1.1218  0.7035
   90MOL   C31239650   4.882   4.152   0.873  0.4537 -0.2074 -0.1510
   90MOL   C31339651   4.871   4.268   0.972 -0.4871  0.1893  0.2235
   90MOL   C31439652   4.998   4.358   0.982  0.2959  0.2171 -0.4745
   90MOL   C31539653   5.039   4.398   0.840  0.5027  0.6702  0.3233
   90MOL   C31639654   5.057   4.277   0.745  0.3744  0.4738  0.3849
   90MOL   C31739655   4.899   4.152   0.481  0.3476  0.5260  0.6092
   90MOL   H31839656   4.824   4.044   0.640  0.0044  0.3693  0.7730
   90MOL   H31939657   4.854   4.286   0.696 -0.6133  1.0364  1.7762
   90MOL   H32039658   4.792   4.091   0.881  0.6733 -0.3854  1.0290
   90MOL   H32139659   4.957   4.078   0.901  1.1229  0.8936  0.9992
   90MOL   H32239660   4.837   4.223   1.065  2.0653 -1.1281  0.5536
   90MOL   H32339661   4.791   4.339   0.950 -1.6192 -1.3313 -0.6749
   90MOL   H32439662   4.983   4.438   1.054 -0.0084 -2.5374  2.6937
   90MOL   H32539663   5.070   4.301   1.041 -0.0443 -0.1063 -0.3719
   90MOL   H32639664   4.959   4.462   0.803 -0.0358 -1.1146 -1.6970
   90MOL   H32739665   5.131   4.456   0.838  1.6621 -1.0646  1.8767
   90MOL   H32839666   5.136   4.210   0.778 -0.7576  0.3945  3.0288
   90MOL   H32939667   5.088   4.317   0.648  0.9973 -1.5749 -0.2855
   90MOL   H33039668   4.943   4.092   0.402 -2.6148 -0.7745 -0.1539
   90MOL   H33139669   4.944   4.248   0.458 -0.4726  0.7671 -0.0083
   90MOL   C33239670   4.748   4.169   0.436 -0.2731  0.2828 -0.0251
   90MOL   C33339671   4.739   4.162   0.278  0.4849 -0.4277  0.2472
   90MOL   C33439672   4.787   4.034   0.213  0.1328  0.3616 -0.2409
   90MOL   C33539673   4.749   4.024   0.066 -0.5325  0.5076 -0.4118
   90MOL   C33639674   4.807   4.147   7.765 -0.0344  0.1693 -0.4637
   90MOL   C33739675   4.759   4.279   0.056 -0.0752  0.1106 -0.6923
   90MOL   C33839676   4.798   4.283   0.203  0.1408  0.8464 -0.1614
   90MOL   C33939677   4.674   4.282   0.501 -0.4093  0.4590  0.0267
   90MOL   H34039678   4.693   4.077   0.456 -0.7065  0.1309 -1.8443
   90MOL   H34139679   4.632   4.171   0.257  0.7073  0.7967 -0.3989
   90MOL   H34239680   4.896   4.036   0.211  0.1635 -1.4040 -1.1103
   90MOL   H34339681   4.753   3.941   0.258 -1.1523  1.4774  1.1791
   90MOL   H34439682   4.792   3.930   0.032 -0.4325  1.3299 -2.6601
   90MOL   H34539683   4.641   4.008   0.064 -0.8819  2.3922  1.5259
   90MOL   H34639684   4.916   4.136   7.761  0.2860  3.0342 -0.2628
   90MOL   H34739685   4.785   4.149   7.659  0.4413 -2.3651 -0.6357
   90MOL   H34839686   4.654   4.302   0.040 -0.5850 -2.0309 -0.5578
   90MOL   H34939687   4.806   4.369   0.016 -1.6308  0.9517 -0.6553
   90MOL   H35039688   4.770   4.372   0.261 -0.9943  0.3078  0.1233
   90MOL   H35139689   4.907   4.277   0.204  0.0818 -1.6703 -3.0976
   90MOL   H35239690   4.737   4.370   0.489  0.7448 -0.3541 -0.0326
   90MOL   H35339691   4.668   4.266   0.609 -1.4211 -3.4713 -0.5374
   90MOL   C35439692   4.532   4.320   0.461 -0.3057  0.0358  0.2610
   90MOL   C35539693   4.477   4.437   0.543  0.2902 -0.9496 -0.1298
   90MOL   C35639694   4.560   4.561   0.546  0.8121 -0.1118 -0.0887
   90MOL   C35739695   4.491   4.679   0.613 -0.6602  0.4009 -0.2407
   90MOL   C35839696   4.458   4.637   0.760  0.6978 -0.4095  0.2729
   90MOL   C35939697   4.379   4.508   0.765 -0.3268  0.8741  0.1699
   90MOL   C36039698   4.455   4.396   0.691 -0.0683  0.2135 -0.2614
   90MOL   C36139699   4.430   4.211   0.433 -0.0503  0.8774  0.4687
   90MOL   H36239700   4.543   4.365   0.362 -0.5857  0.0824  0.2490
   90MOL   H36339701   4.384   4.470   0.497  1.4386  1.4760 -0.7694
   90MOL   H36439702   4.586   4.587   0.444  1.4934 -0.4350  0.0045
   90MOL   H36539703   4.652   4.552   0.603 -1.5417 -1.5612  3.7523
   90MOL   H36639704   4.552   4.769   0.611  2.0687 -1.3868 -2.3202
   90MOL   H36739705   4.396   4.707   0.567 -2.6268 -1.9943  2.1710
   90MOL   H36839706   4.555   4.625   0.808  0.2226  0.1594  1.4083
   90MOL   H36939707   4.410   4.718   0.815 -0.9093 -2.2687  1.6936
   90MOL   H37039708   4.378   4.465   0.865  0.4247 -2.5399 -1.2393
   90MOL   H37139709   4.276   4.534   0.740  0.0063  1.7379 -0.3317
   90MOL   H37239710   4.407   4.298   0.698  0.7781 -0.2948 -1.5219
   90MOL   H37339711   4.553   4.381   0.736 -1.2788  1.5134  2.9712
   90MOL   H37439712   4.418   4.159   0.528 -1.6751  1.5551  0.6553
   90MOL   H37539713   4.470   4.127   0.377  2.3713  2.5043 -0.3459
   90MOL   C37639714   4.282   4.239   0.398  0.2157  0.1434 -0.1897
   90MOL   C37739715   4.267   4.324   0.263  0.3642 -0.1151  0.2654
   90MOL   C37839716   4.150   4.425   0.279  0.1527 -0.1857  0.3637
   90MOL   C37939717   4.138   4.524   0.160  0.1408 -0.0545 -0.5659
   90MOL   C38039718   4.126   4.442   0.029  0.2112 -0.2235  0.2557
   90MOL   C38139719   4.230   4.334   0.023 -0.0653 -0.2513 -0.2399
   90MOL   C38239720   4.250   4.242   0.143 -0.6620 -0.0677  0.5831
   90MOL   C38339721   4.186   4.124   0.398 -0.5336 -0.1011 -0.1326
   90MOL   H38439722   4.251   4.306   0.478  0.3604 -2.1963  1.8981
   90MOL   H38539723   4.358   4.381   0.244 -0.0230  0.1195 -0.8934
   90MOL   H38639724   4.058   4.370   0.295  1.3429 -1.4423  3.0449
   90MOL   H38739725   4.159   4.486   0.369 -0.8454  1.6598 -0.7308
   90MOL   H38839726   4.231   4.580   0.153  0.4143 -0.3159  0.9943
   90MOL   H38939727   4.051   4.586   0.181 -0.8543 -2.3068  2.1853
   90MOL   H39039728   4.030   4.392   0.030 -0.3602  0.8806  1.6437
   90MOL   H39139729   4.123   4.503   7.711 -1.0108  0.8185  0.9787
   90MOL   H39239730   4.206   4.271   7.710  2.6172 -0.2150 -1.0687
   90MOL   H39339731   4.328   4.376   0.001 -0.1076  0.8237  1.4952
   90MOL   H39439732   4.165   4.174   0.134 -0.9770  0.4142 -0.1877
   90MOL   H39539733   4.334   4.174   0.127  0.9425  2.1665 -0.7440
   90MOL   H39639734   4.244   4.051   0.341  0.2919  0.3690  0.0918
   90MOL   H39739735   4.098   4.155   0.342  1.8598  3.7485 -2.0928
   90MOL   C39839736   4.149   4.058   0.530 -0.4924 -0.4141 -0.4227
   90MOL   C39939737   4.123   4.155   0.649  0.1967 -0.1565  0.0920
   90MOL   C40039738   4.005   4.257   0.622  0.3228 -0.2801  0.6688
   90MOL   C40139739   4.003   4.354   0.743  0.1992 -0.2742  0.0752
   90MOL   C40239740   3.977   4.276   0.878  0.5494 -0.2155 -0.3047
   90MOL   C40339741   4.083   4.166   0.901  0.6218 -0.9283 -0.2222
   90MOL   C40439742   4.101   4.080   0.777 -0.6794  0.0638  0.3122
   90MOL   C40539743   4.049   3.939   0.514 -0.2632 -0.3160 -0.7250
   90MOL   H40639744   4.242   4.006   0.553 -0.4430  0.0276  0.4016
   90MOL   H40739745   4.219   4.206   0.665  0.0454  0.6065 -1.3258
   90MOL   H40839746   3.904   4.217   0.626 -0.8202  2.2192 -1.9520
   90MOL   H40939747   4.005   4.295   0.520 -0.1517  0.0573  0.7943
   90MOL   H41039748   3.921   4.421   0.716 -0.6241 -1.3300 -0.1053
   90MOL   H41139749   4.094   4.413   0.748  0.0855 -0.0745 -0.2136
   90MOL   H41239750   3.878   4.230   0.875 -0.1766  1.3025 -0.3325
   90MOL   H41339751   3.981   4.342   0.964  0.3174  0.6088 -0.9183
   90MOL   H41439752   4.174   4.222   0.922 -0.2034 -0.1122  1.3020
   90MOL   H41539753   4.068   4.100   0.987 -1.8375 -0.0889  0.0318
   90MOL   H41639754   4.183   4.011   0.798  1.4094  2.0663 -1.0741
   90MOL   H41739755   4.005   4.029   0.762  1.1807 -3.0014 -1.9253
   90MOL   H41839756   4.090   3.845   0.478 -1.6712 -0.7252 -1.2683
   90MOL   H41939757   4.019   3.910   0.614 -3.3262  2.6710 -0.6827
   90MOL   C42039758   3.926   3.964   0.421  0.1038 -0.0036 -0.2445
   90MOL   C42139759   3.804   3.885   0.480 -0.4033 -0.4497  0.4605
   90MOL   C42239760   3.797   3.730   0.459  0.4071  0.2159 -0.3425
   90MOL   C42339761   3.680   3.679   0.540 -0.0360  0.2223 -0.8041
   90MOL   C42439762   3.547   3.741   0.487 -0.7463 -0.0489  0.1192
   90MOL   C42539763   3.548   3.892   0.498  0.0952 -0.2252  0.0938
   90MOL   C42639764   3.668   3.958   0.436  0.4420 -0.6782  0.7912
   90MOL   C42739765   3.954   3.909   0.277  0.5628  0.3843 -0.8746
   90MOL   H42839766   3.893   4.068   0.428 -1.8566 -0.6506  0.7177
   90MOL   H42939767   3.811   3.885   0.589 -0.1013 -0.5420  0.4421
   90MOL   H43039768   3.798   3.697   0.355  1.2078 -1.0342  0.0522
   90MOL   H43139769   3.886   3.686   0.505  0.0960 -0.6064 -0.5112
   90MOL   H43239770   3.674   3.570   0.541 -1.3223  0.2878  0.2349
   90MOL   H43339771   3.690   3.705   0.646  1.4052  1.3932 -1.2051
   90MOL   H43439772   3.458   3.697   0.532 -0.2670 -0.3190  0.8176
   90MOL   H43539773   3.554   3.709   0.383 -2.5753  2.0672 -0.6856
   90MOL   H43639774   3.547   3.917   0.604  1.7066 -2.4300  0.6486
   90MOL   H43739775   3.457   3.932   0.452 -0.1281  1.4339  1.8780
   90MOL   H43839776   3.669   3.947   0.328 -0.4521 -0.4876  0.7645
   90MOL   H43939777   3.677   4.066   0.453  0.4853 -0.5778  0.1333
   90MOL   H44039778   3.865   3.864   0.232 -0.3349  1.1377  0.1277
   90MOL   H44139779   3.985   3.991   0.213 -1.7591  1.6255 -0.4458
   90MOL   H44239780   4.037   3.839   0.263  0.0931 -1.2841  3.8855
   91MOL     C139781   5.028   1.517   1.393  0.5060  0.0917 -0.5930
   91MOL     C239782   5.129   1.401   1.392  0.5793 -0.3377  0.4033
   91MOL     C339783   5.065   1.284   1.312  0.4586  1.0538 -0.8125
   91MOL     C439784   5.153   1.158   1.328  0.0993 -0.9222  0.3033
   91MOL     C539785   5.161   1.119   1.479 -0.6620  0.1876  0.0505
   91MOL     C639786   5.229   1.227   1.555 -0.6345 -0.1973  0.3511
   91MOL     C739787   5.162   1.363   1.539  0.2581 -0.3908 -0.0382
   91MOL     C839788   5.003   1.575   1.255 -0.3085  0.7938  0.5321
   91MOL     H939789   4.932   1.477   1.426 -0.9710  3.1774 -0.8847
   91MOL    H1039790   5.222   1.430   1.344  0.1380  0.4712  0.0352
   91MOL    H1139791   4.962   1.266   1.344  0.9457  0.3253  0.3911
   91MOL    H1239792   5.056   1.305   1.205 -1.6728 -0.8505 -1.0554
   91MOL    H1339793   5.252   1.180   1.290 -0.7813  2.2102 -0.3554
   91MOL    H1439794   5.114   1.072   1.273 -0.7692  0.4676 -1.2949
   91MOL    H1539795   5.215   1.026   1.493 -1.3653 -0.0588  1.2618
   91MOL    H1639796   5.064   1.111   1.529 -1.2812 -1.0140 -1.3320
   91MOL    H1739797   5.233   1.202   1.661  0.2297 -0.9207  0.1593
   91MOL    H1839798   5.335   1.237   1.533 -0.5843 -1.3143  0.0230
   91MOL    H1939799   5.221   1.444   1.583 -1.8085  0.1082  1.9405
   91MOL    H2039800   5.070   1.352   1.596  0.5274 -1.1499  0.2538
   91MOL    H2139801   4.964   1.496   1.191  1.1140 -1.5607  2.4461
   91MOL    H2239802   5.086   1.624   1.205 -0.1591 -1.5221 -1.5767
   91MOL    H2339803   5.053   1.601   1.457  1.5260 -0.7931  0.1883
   91MOL    C2439804   4.886   1.678   1.241 -0.0179  0.3973  0.3075
   91MOL    C2539805   4.903   1.793   1.351  0.2839 -0.4449  0.8442
   91MOL    C2639806   4.788   1.894   1.347 -0.7245  0.5237  0.1416
   91MOL    C2739807   4.809   2.011   1.450 -0.7211  0.0431 -0.5072
   91MOL    C2839808   4.942   2.085   1.434  0.1996  0.2096  0.5197
   91MOL    C2939809   5.051   1.980   1.451  0.0181 -1.0693  0.2400
   91MOL    C3039810   5.041   1.867   1.344 -0.5512 -0.1565 -0.3514
   91MOL    C3139811   4.869   1.725   1.088  0.5498 -0.8140 -0.0527
   91MOL    H3239812   4.796   1.628   1.277 -1.3167  0.8562 -2.2017
   91MOL    H3339813   4.890   1.746   1.448 -2.0882 -0.7610  0.4226
   91MOL    H3439814   4.692   1.845   1.359  0.0561 -1.2311 -0.6396
   91MOL    H3539815   4.765   1.924   1.245  1.1466  2.8844  0.3606
   91MOL    H3639816   4.725   2.080   1.444 -0.0930  0.9720  0.8985
   91MOL    H3739817   4.808   1.971   1.551  0.0839  0.3707 -0.3576
   91MOL    H3839818   4.956   2.163   1.509 -0.4985  0.1020  0.7615
   91MOL    H3939819   4.943   2.125   1.333  1.4651 -1.1006 -0.0087
   91MOL    H4039820   5.151   2.022   1.440 -0.7804  1.1452  1.2398
   91MOL    H4139821   5.037   1.932   1.548 -0.1685  1.2547  1.3877
   91MOL    H4239822   5.067   1.906   1.246  0.9417  1.0905  0.5229
   91MOL    H4339823   5.109   1.783   1.358 -0.1880 -0.6052 -4.3486
   91MOL    H4439824   4.969   1.757   1.059  1.4651 -0.3510  3.3113
   91MOL    H4539825   4.814   1.817   1.072 -0.0540 -0.9494  1.1731
   91MOL    C4639826   4.809   1.617   0.997  0.0254  0.3277  0.5394
   91MOL    C4739827   4.850   1.636   0.849 -0.2647  0.4506 -0.2757
   91MOL    C4839828   5.004   1.610   0.834  0.6507 -0.0636 -0.1211
   91MOL    C4939829   5.037   1.628   0.684 -0.2061 -0.2662 -0.3902
   91MOL    C5039830   5.013   1.767   0.618 -0.3618 -0.0247  0.0055
   91MOL    C5139831   4.867   1.798   0.649  0.0240  0.2669  0.8382
   91MOL    C5239832   4.824   1.779   0.794  0.4644 -0.6023  0.2822
   91MOL    C5339833   4.659   1.604   1.016  0.2815 -0.1900  0.2435
   91MOL    H5439834   4.850   1.522   1.030 -0.8476 -0.8932 -1.7660
   91MOL    H5539835   4.805   1.562   0.783  1.7596 -1.4109  0.3827
   91MOL    H5639836   5.061   1.670   0.904 -0.6564  0.4626  0.5118
   91MOL    H5739837   5.020   1.505   0.856  1.7910 -0.0100 -0.6467
   91MOL    H5839838   4.984   1.550   0.630  1.3359  1.8970 -5.2779
   91MOL    H5939839   5.143   1.615   0.662  0.1007 -1.3864  1.6554
   91MOL    H6039840   5.079   1.830   0.676 -0.6862  0.4891 -0.1779
   91MOL    H6139841   5.033   1.768   0.510 -0.0128  1.6735  0.0701
   91MOL    H6239842   4.801   1.740   0.585  1.2791 -0.5462  0.2589
   91MOL    H6339843   4.855   1.904   0.622  0.4222 -0.3661 -2.0567
   91MOL    H6439844   4.879   1.852   0.853  1.2367 -1.4750  0.6523
   91MOL    H6539845   4.717   1.797   0.803  0.5423 -0.0044  0.0447
   91MOL    H6639846   4.615   1.701   0.997 -0.1147 -0.3245  0.4511
   91MOL    H6739847   4.631   1.581   1.119  1.9942  0.2821  0.8190
   91MOL    C6839848   4.581   1.505   0.914  0.4829  0.2159 -0.1385
   91MOL    C6939849   4.649   1.362   0.920 -0.0791 -0.6260  0.2347
   91MOL    C7039850   4.655   1.298   1.057  0.2332  0.0445  0.5238
   91MOL    C7139851   4.742   1.177   1.051 -0.2776 -0.2536 -0.2782
   91MOL    C7239852   4.704   1.081   0.948 -0.7548  0.1010 -0.2457
   91MOL    C7339853   4.679   1.137   0.807 -0.0628 -0.4972  0.0729
   91MOL    C7439854   4.591   1.256   0.817  0.5674 -0.5681 -0.4220
   91MOL    C7539855   4.429   1.518   0.947  0.5338 -0.5168  0.5861
   91MOL    H7639856   4.605   1.538   0.813  0.9171 -0.9594 -0.4306
   91MOL    H7739857   4.752   1.376   0.888  0.1023 -1.2501  0.5322
   91MOL    H7839858   4.552   1.271   1.080 -0.3749  0.2010 -1.8433
   91MOL    H7939859   4.691   1.381   1.119  1.1589 -0.4571  0.6649
   91MOL    H8039860   4.848   1.200   1.044 -0.1837 -0.6624 -0.2383
   91MOL    H8139861   4.731   1.125   1.147 -0.5177  1.0339  0.3971
   91MOL    H8239862   4.609   1.033   0.971  0.2357 -1.3314  0.8962
   91MOL    H8339863   4.776   0.999   0.948 -1.9292 -0.9367 -0.4474
   91MOL    H8439864   4.636   1.055   0.748  1.8768 -0.5049 -1.3746
   91MOL    H8539865   4.771   1.172   0.760  0.9932 -1.6103  1.2622
   91MOL    H8639866   4.486   1.238   0.837  0.9063  1.0311  3.2438
   91MOL    H8739867   4.592   1.310   0.722  1.2255  0.0436 -0.0768
   91MOL    H8839868   4.404   1.431   1.008  2.0033 -1.5969 -0.3372
   91MOL    H8939869   4.409   1.587   1.028  0.5181 -1.4757  1.4156
   91MOL    C9039870   4.337   1.553   0.824 -0.3951 -0.1964 -0.0704
   91MOL    C9139871   4.185   1.553   0.860 -0.7392 -0.1598  0.4476
   91MOL    C9239872   4.134   1.410   0.896  0.1603 -0.1917 -0.1334
   91MOL    C9339873   3.981   1.413   0.907  0.6539 -0.2255  0.1083
   91MOL    C9439874   3.941   1.508   1.023 -0.1700  1.7229 -0.0411
   91MOL    C9539875   3.990   1.653   0.996 -0.1373  0.1049 -0.4117
   91MOL    C9639876   4.144   1.647   0.973 -0.1951  0.0942 -0.9260
   91MOL    C9739877   4.380   1.681   0.750 -0.5376  0.8925  0.2017
   91MOL    H9839878   4.359   1.472   0.754 -1.9930 -0.3525 -0.4279
   91MOL    H9939879   4.135   1.589   0.770 -0.2618 -1.1225 -0.2167
   91MOL   H10039880   4.170   1.381   0.994 -2.6779  0.9554  1.3321
   91MOL   H10139881   4.162   1.333   0.825  2.5654 -1.5250  2.1949
   91MOL   H10239882   3.941   1.318   0.941  0.0602  0.5312  1.5890
   91MOL   H10339883   3.933   1.449   0.815  0.2948  2.1779  1.1827
   91MOL   H10439884   3.982   1.492   1.122 -4.5232  2.9713  2.0858
   91MOL   H10539885   3.832   1.506   1.027 -0.2045 -0.5889 -1.2578
   91MOL   H10639886   3.942   1.686   0.904 -0.7565 -0.2543 -0.2213
   91MOL   H10739887   3.952   1.715   1.076  0.8663 -0.1386  0.2599
   91MOL   H10839888   4.181   1.748   0.958 -0.5542  0.9685  3.2784
   91MOL   H10939889   4.186   1.623   1.072  0.2346 -0.3309 -1.2059
   91MOL   H11039890   4.350   1.765   0.813 -0.8058  0.5371  0.5424
   91MOL   H11139891   4.489   1.687   0.754 -0.4198 -1.0496  0.1904
   91MOL   C11239892   4.335   1.689   0.597  0.4062  0.1520 -0.0122
   91MOL   C11339893   4.408   1.613   0.487 -0.3987 -0.1346 -0.0488
   91MOL   C11439894   4.380   1.456   0.485 -0.0135 -0.1624 -0.2314
   91MOL   C11539895   4.453   1.388   0.365  0.1474  0.6333 -0.6673
   91MOL   C11639896   4.599   1.421   0.366 -0.1090  0.6504 -0.3749
   91MOL   C11739897   4.627   1.573   0.381 -0.3522 -0.0922 -0.3102
   91MOL   C11839898   4.559   1.631   0.505  0.2404 -0.2832 -0.2350
   91MOL   C11939899   4.314   1.835   0.546 -0.0913 -0.0263 -0.2897
   91MOL   H12039900   4.232   1.653   0.605  0.5220  0.2747  2.3552
   91MOL   H12139901   4.384   1.654   0.389  1.3810  1.0823  0.0093
   91MOL   H12239902   4.271   1.444   0.483 -0.1329  0.9753 -1.1514
   91MOL   H12339903   4.413   1.400   0.572  0.4830  0.6417  0.1075
   91MOL   H12439904   4.437   1.281   0.382  2.4480  0.3786  0.1797
   91MOL   H12539905   4.404   1.423   0.275 -3.6094 -0.1140  1.0050
   91MOL   H12639906   4.638   1.364   0.450  0.3491  0.2317 -0.8655
   91MOL   H12739907   4.643   1.383   0.274 -0.9951 -1.7783  0.1732
   91MOL   H12839908   4.734   1.591   0.387 -0.5803  0.8308  1.1710
   91MOL   H12939909   4.607   1.624   0.286 -3.1828 -2.8938 -1.3219
   91MOL   H13039910   4.570   1.740   0.506 -1.4231 -0.0922 -0.5483
   91MOL   H13139911   4.588   1.581   0.597  0.9749 -1.2843 -0.9956
   91MOL   H13239912   4.299   1.832   0.438 -1.7285  0.0226 -0.0801
   91MOL   H13339913   4.413   1.882   0.544  0.5106 -0.9830  3.2018
   91MOL   C13439914   4.211   1.920   0.614 -0.1236 -0.5154  0.0535
   91MOL   C13539915   4.067   1.856   0.620 -0.6335 -0.8370  0.0093
   91MOL   C13639916   4.007   1.820   0.478  0.5067 -0.8147 -0.2113
   91MOL   C13739917   3.857   1.771   0.488 -0.3678  0.6916 -0.5761
   91MOL   C13839918   3.773   1.880   0.559 -0.0706  0.0566 -0.1996
   91MOL   C13939919   3.823   1.896   0.702 -0.1561  0.2932  0.0419
   91MOL   C14039920   3.968   1.939   0.704  0.4591 -0.0497 -0.3818
   91MOL   C14139921   4.213   2.056   0.532 -0.1079  0.3858 -0.4554
   91MOL   H14239922   4.237   1.946   0.716 -1.6886 -3.1340  1.1739
   91MOL   H14339923   4.068   1.764   0.678  2.8280 -0.8854  0.0128
   91MOL   H14439924   4.007   1.915   0.424 -0.2171 -1.2129 -0.9164
   91MOL   H14539925   4.072   1.758   0.417  0.5770  0.6235 -1.6226
   91MOL   H14639926   3.851   1.675   0.538 -1.6836  0.8466 -0.4138
   91MOL   H14739927   3.819   1.748   0.389 -1.8805  0.4984  0.0303
   91MOL   H14839928   3.793   1.973   0.504  1.8010  1.6644  3.0932
   91MOL   H14939929   3.666   1.859   0.570 -0.1426  0.6579  0.2516
   91MOL   H15039930   3.807   1.806   0.761 -0.7006  0.7823  0.6524
   91MOL   H15139931   3.768   1.973   0.755 -0.8056 -0.3114  0.2550
   91MOL   H15239932   3.970   2.043   0.672  1.2770 -0.3894 -1.4545
   91MOL   H15339933   3.987   1.934   0.812 -0.5287 -1.1432 -0.2516
   91MOL   H15439934   4.113   2.094   0.512 -0.7867 -0.5955  0.9890
   91MOL   H15539935   4.233   2.029   0.428  0.9040  1.5516 -0.5748
   91MOL   C15639936   4.303   2.167   0.599 -0.1203 -0.1077 -0.4505
   91MOL   C15739937   4.246   2.305   0.562  0.2930 -0.0705  0.1223
   91MOL   C15839938   4.239   2.326   0.409  0.2384 -0.6554  0.5546
   91MOL   C15939939   4.182   2.465   0.373  0.9324  0.8533 -0.1057
   91MOL   C16039940   4.040   2.486   0.432  0.2854 -0.2497 -0.0226
   91MOL   C16139941   4.058   2.476   0.583  0.3150 -0.2121 -0.1423
   91MOL   C16239942   4.109   2.331   0.632  0.0064 -0.4298  0.2582
   91MOL   C16339943   4.461   2.150   0.575 -0.1338  0.1619 -0.2584
   91MOL   H16439944   4.274   2.163   0.704  0.4934 -0.1982 -0.2860
   91MOL   H16539945   4.312   2.381   0.604  0.0595  0.6390 -0.7920
   91MOL   H16639946   4.332   2.322   0.353  1.1768  2.4561  1.7635
   91MOL   H16739947   4.173   2.252   0.364 -0.6171  1.1605 -1.2809
   91MOL   H16839948   4.243   2.543   0.419 -0.2135  0.1891  2.6655
   91MOL   H16939949   4.167   2.487   0.267 -0.5239  1.3447  0.1934
   91MOL   H17039950   3.969   2.410   0.401 -0.0742  0.1902 -0.2857
   91MOL   H17139951   4.011   2.588   0.406  0.6483 -0.7515 -2.5357
   91MOL   H17239952   3.967   2.497   0.640  1.5858  0.0049  1.8809
   91MOL   H17339953   4.129   2.547   0.625  0.7501 -1.1992  0.8290
   91MOL   H17439954   4.127   2.332   0.740 -0.1173 -2.2357  0.3258
   91MOL   H17539955   4.027   2.264   0.605  0.7268 -1.7396  1.2132
   91MOL   H17639956   4.487   2.159   0.470  0.4259 -1.1779 -0.2355
   91MOL   H17739957   4.493   2.048   0.595 -2.2211 -0.4482  0.1419
   91MOL   C17839958   4.563   2.224   0.670  0.0694  0.2769  0.0645
   91MOL   C17939959   4.532   2.191   0.821  0.2122 -0.2667 -0.0307
   91MOL   C18039960   4.619   2.276   0.912  0.8235 -0.0609  0.5397
   91MOL   C18139961   4.589   2.260   1.064 -0.6090 -0.4278  0.4801
   91MOL   C18239962   4.603   2.116   1.099 -0.1098  0.1617 -0.1285
   91MOL   C18339963   4.506   2.033   1.006  0.4978  0.1750  0.5004
   91MOL   C18439964   4.546   2.043   0.857 -0.4289  0.4697  0.3678
   91MOL   C18539965   4.705   2.187   0.624 -0.3660  0.1358 -0.0415
   91MOL   H18639966   4.565   2.333   0.658 -0.2765  0.6065  2.7745
   91MOL   H18739967   4.429   2.223   0.841  0.2372  0.1341 -0.5506
   91MOL   H18839968   4.717   2.234   0.891  0.3234 -0.5980 -0.7925
   91MOL   H18939969   4.608   2.378   0.876  0.8522 -1.1394 -2.6670
   91MOL   H19039970   4.490   2.300   1.082 -0.0251  0.7150  1.2548
   91MOL   H19139971   4.663   2.328   1.107 -2.4264  2.2578 -0.5203
   91MOL   H19239972   4.710   2.096   1.100  0.0985  1.2367 -0.3438
   91MOL   H19339973   4.564   2.108   1.200 -0.7439 -1.1635 -0.4640
   91MOL   H19439974   4.412   2.087   1.016 -0.8790 -2.6696  3.6013
   91MOL   H19539975   4.499   1.929   1.036 -1.0072  0.0403 -0.2618
   91MOL   H19639976   4.648   2.016   0.830 -1.0272 -0.9618 -0.5725
   91MOL   H19739977   4.474   1.976   0.809  0.8985 -0.8581  0.1890
   91MOL   H19839978   4.770   2.249   0.685  0.1792 -1.6998  1.2875
   91MOL   H19939979   4.733   2.084   0.647  0.5287  0.2628 -0.5300
   91MOL   C20039980   4.754   2.216   0.482 -0.2647  0.0795 -0.2045
   91MOL   C20139981   4.744   2.366   0.437  0.7987 -1.0233 -0.4183
   91MOL   C20239982   4.602   2.392   0.376  0.3056 -0.0398 -0.6889
   91MOL   C20339983   4.595   2.533   0.317 -1.1178  0.3772  0.4880
   91MOL   C20439984   4.624   2.631   0.431  0.4416 -0.0548 -0.0485
   91MOL   C20539985   4.768   2.612   0.477 -0.6385 -0.2408 -0.0538
   91MOL   C20639986   4.790   2.470   0.539 -0.4950  0.0582 -0.0440
   91MOL   C20739987   4.901   2.174   0.468 -0.4774  0.0491 -0.0388
   91MOL   H20839988   4.688   2.158   0.418  0.4012 -1.0911  0.1405
   91MOL   H20939989   4.817   2.393   0.361  0.0498 -1.2613 -1.2328
   91MOL   H21039990   4.520   2.389   0.448 -0.9921 -1.9649 -2.1993
   91MOL   H21139991   4.573   2.309   0.312 -2.1184  1.3863 -1.5032
   91MOL   H21239992   4.666   2.554   0.237 -0.4408 -0.9451  0.7319
   91MOL   H21339993   4.497   2.548   0.271 -0.3055  0.1126 -1.3413
   91MOL   H21439994   4.609   2.729   0.387  0.1172  1.6465  3.6393
   91MOL   H21539995   4.560   2.615   0.518 -0.2513 -1.3344 -0.7849
   91MOL   H21639996   4.826   2.616   0.385 -0.9905  0.5324 -0.2501
   91MOL   H21739997   4.799   2.699   0.534 -0.3479  1.5879 -2.8753
   91MOL   H21839998   4.893   2.466   0.576 -1.0466  3.3496  1.9907
   91MOL   H21939999   4.727   2.466   0.627 -0.9686 -0.9165 -0.4156
   91MOL   H22040000   4.958   2.264   0.489 -0.0429 -0.5874  1.5758
   91MOL   H22140001   4.923   2.099   0.545  1.1497  0.7176  0.1473
   91MOL   C22240002   4.933   2.118   0.324 -0.3122 -0.0711 -0.0030
   91MOL   C22340003   5.082   2.109   0.304  0.1964  0.0398 -0.5080
   91MOL   C22440004   5.156   2.023   0.407 -0.2467  0.0295  0.8124
   91MOL   C22540005   5.308   2.035   0.372 -0.4862  0.4170 -0.0541
   91MOL   C22640006   5.366   2.179   0.369 -0.7163 -0.4159 -0.1148
   91MOL   C22740007   5.292   2.266   0.262 -0.5428 -0.0377  0.4083
   91MOL   C22840008   5.144   2.260   0.295  0.0740  0.5703 -0.1014
   91MOL   C22940009   4.867   1.980   0.295 -0.8183  0.2255 -0.1781
   91MOL   H23040010   4.894   2.195   0.257 -0.4696 -0.1854 -0.0437
   91MOL   H23140011   5.100   2.065   0.206  0.2064 -0.4258 -0.2948
   91MOL   H23240012   5.138   2.062   0.508 -0.5243 -1.6129  1.4162
   91MOL   H23340013   5.129   1.918   0.399  1.4627 -0.3825  0.2827
   91MOL   H23440014   5.318   2.000   0.269  0.8318  0.9847 -0.1292
   91MOL   H23540015   5.366   1.966   0.433  1.5661  2.0742 -0.0767
   91MOL   H23640016   5.363   2.227   0.467 -1.1947 -1.5316  0.4327
   91MOL   H23740017   5.471   2.177   0.341 -0.8330  0.9558 -0.6990
   91MOL   H23840018   5.313   2.217   0.167 -0.6955  1.7361 -0.5584
   91MOL   H23940019   5.341   2.363   0.261  1.0055 -0.7954 -0.8524
   91MOL   H24040020   5.128   2.312   0.389  1.8624  0.7385  0.1206
   91MOL   H24140021   5.086   2.317   0.221  0.5222  0.1352 -0.7900
   91MOL   H24240022   4.799   1.956   0.376 -1.1357  0.5627 -0.3422
   91MOL   H24340023   4.933   1.894   0.303  1.1881  1.8632  1.8347
   91MOL   C24440024   4.803   1.961   0.162  0.1452  0.1805  0.5215
   91MOL   C24540025   4.662   2.025   0.151 -0.6867  0.5799  0.4188
   91MOL   C24640026   4.550   1.947   0.220 -1.1313  0.1452  0.0659
   91MOL   C24740027   4.413   2.022   0.209 -0.0133  0.5529 -0.4882
   91MOL   C24840028   4.368   2.051   0.067 -0.3990  0.7759  0.2778
   91MOL   C24940029   4.474   2.123   7.764  0.0608 -0.1214  0.1267
   91MOL   C25040030   4.612   2.052   0.002  0.3900  0.4975 -0.2898
   91MOL   C25140031   4.812   1.810   0.120 -0.5085 -0.5023 -0.2752
   91MOL   H25240032   4.862   2.029   0.100 -1.0675  0.2654 -0.5394
   91MOL   H25340033   4.671   2.121   0.201  0.6969  0.1220  1.0642
   91MOL   H25440034   4.581   1.935   0.324  0.5945  1.8855 -0.2263
   91MOL   H25540035   4.545   1.846   0.179  1.8177 -0.8416  1.9700
   91MOL   H25640036   4.340   1.962   0.264  0.6024  1.6010  1.5451
   91MOL   H25740037   4.428   2.120   0.255  0.0661  0.5507 -0.5092
   91MOL   H25840038   4.344   1.960   0.011 -0.1833  0.1699  1.1643
   91MOL   H25940039   4.273   2.103   0.077 -1.5145 -0.8381 -1.6512
   91MOL   H26040040   4.476   2.226   0.025 -1.8185  0.7021 -2.1183
   91MOL   H26140041   4.448   2.118   7.658  0.3909 -0.0288  0.0417
   91MOL   H26240042   4.613   1.967   7.706  1.6062  0.0818  0.2203
   91MOL   H26340043   4.695   2.116   7.745 -0.5482  2.1926  0.6611
   91MOL   H26440044   4.733   1.784   0.049 -1.7668 -0.3480  1.0469
   91MOL   H26540045   4.799   1.750   0.210  1.3495  0.6739  0.8151
   91MOL   C26640046   4.948   1.764   0.070 -0.3004 -0.8256  0.1599
   91MOL   C26740047   4.984   1.616   0.117  1.0528 -0.5232  0.3829
   91MOL   C26840048   4.876   1.502   0.095 -0.1843 -0.5460  0.0489
   91MOL   C26940049   4.915   1.369   0.161 -0.1551 -0.3207  0.0992
   91MOL   C27040050   4.957   1.382   0.306 -0.9501 -0.1310 -0.2804
   91MOL   C27140051   5.078   1.484   0.318  0.7066  0.3737  0.5906
   91MOL   C27240052   5.035   1.620   0.270  0.4517  0.1723  0.2321
   91MOL   C27340053   4.950   1.784   7.691 -0.5630  0.1952 -0.0620
   91MOL   H27440054   5.024   1.826   0.118  0.0413 -3.2020  2.8235
   91MOL   H27540055   5.070   1.575   0.063 -0.3496 -0.1929 -2.1836
   91MOL   H27640056   4.777   1.536   0.124  0.1426  0.0192  0.4995
   91MOL   H27740057   4.870   1.499   7.758  0.0769  0.0110  0.0167
   91MOL   H27840058   4.996   1.333   0.097  0.8351  3.5184 -0.9020
   91MOL   H27940059   4.835   1.297   0.147 -0.7655  0.5022 -0.6789
   91MOL   H28040060   4.878   1.409   0.376  0.3518 -0.6910  1.4699
   91MOL   H28140061   4.999   1.290   0.346  3.3680  2.4708  1.5860
   91MOL   H28240062   5.173   1.453   0.276 -0.4593 -0.3871 -1.5443
   91MOL   H28340063   5.094   1.501   0.425  2.3742  0.8149  0.2834
   91MOL   H28440064   5.121   1.686   0.281  0.6186 -0.1467  0.8932
   91MOL   H28540065   4.945   1.648   0.326 -0.4341  0.1612 -1.1745
   91MOL   H28640066   4.890   1.867   7.654  1.3162  1.5027 -0.2682
   91MOL   H28740067   4.902   1.699   7.642  0.9158 -0.8851  0.3388
   91MOL   C28840068   5.094   1.793   7.641 -0.0209 -0.3579 -0.2898
   91MOL   C28940069   5.163   1.927   7.663 -0.6673 -0.0037  0.0146
   91MOL   C29040070   5.311   1.925   7.659 -0.1494 -0.4745  0.8676
   91MOL   C29140071   5.372   2.057   7.701  0.9764  0.5170  0.2476
   91MOL   C29240072   5.308   2.181   7.639  0.1791  0.2405  0.3068
   91MOL   C29340073   5.157   2.184   7.655 -0.5063  0.2780  0.4613
   91MOL   C29440074   5.102   2.050   7.593 -0.1290  0.0627 -0.5736
   91MOL   C29540075   5.096   1.761   7.492  0.5691  0.1100  0.1660
   91MOL   H29640076   5.157   1.725   7.698  1.7427  0.9713 -0.6139
   91MOL   H29740077   5.154   1.937   7.771 -2.5307  1.9852 -0.2796
   91MOL   H29840078   5.350   1.837   7.708 -0.2170 -1.4016 -0.6997
   91MOL   H29940079   5.326   1.908   7.552 -2.5303  2.5520 -0.0352
   91MOL   H30040080   5.370   2.053   0.038  0.4805  0.2747  0.2293
   91MOL   H30140081   5.479   2.062   7.678  0.4415  5.2580 -1.7664
   91MOL   H30240082   5.344   2.185   7.536 -0.1484 -0.9838  0.1341
   91MOL   H30340083   5.349   2.264   7.695  0.0566  0.8981 -0.5559
   91MOL   H30440084   5.101   2.269   7.618 -1.3729 -0.6526 -0.3915
   91MOL   H30540085   5.153   2.192   7.764  2.0095 -1.4945  0.7358
   91MOL   H30640086   5.130   2.043   7.488 -2.3405 -1.5791 -1.0853
   91MOL   H30740087   4.994   2.043   7.595 -0.1165  0.0004 -0.1321
   91MOL   H30840088   4.998   1.790   7.455  0.3032 -1.9757 -0.8837
   91MOL   H30940089   5.174   1.822   7.446  1.0127 -0.5841 -0.0179
   91MOL   C31040090   5.113   1.613   7.450 -0.2704  0.2777  0.6539
   91MOL   C31140091   5.025   1.576   7.325 -0.0009 -0.3023 -1.1102
   91MOL   C31240092   4.868   1.560   7.358  0.2923 -0.2504  0.4494
   91MOL   C31340093   4.798   1.497   7.231 -0.9107 -0.1155  0.5038
   91MOL   C31440094   4.815   1.599   7.113  0.3940  0.4700  0.1419
   91MOL   C31540095   4.961   1.622   7.079 -0.6035 -0.4096 -0.5337
   91MOL   C31640096   5.039   1.678   7.205  0.3539  0.1926 -0.0028
   91MOL   C31740097   5.263   1.573   7.414 -0.4638 -0.4364 -0.2467
   91MOL   H31840098   5.074   1.553   7.532 -0.2371  1.2895  1.4101
   91MOL   H31940099   5.066   1.478   7.300  1.7881  0.2439 -0.4057
   91MOL   H32040100   4.866   1.500   7.449  0.6120 -1.0082 -0.0432
   91MOL   H32140101   4.813   1.650   7.386 -1.3148 -1.4591  1.2686
   91MOL   H32240102   4.693   1.476   7.255 -0.9727  1.6213  1.8686
   91MOL   H32340103   4.834   1.398   7.203 -0.8146  0.1506 -0.3254
   91MOL   H32440104   4.762   1.573   7.021 -0.1514  1.0489  0.2942
   91MOL   H32540105   4.780   1.698   7.141  0.3138  0.5318 -0.1751
   91MOL   H32640106   5.005   1.528   7.045 -0.5659 -0.5695 -0.0458
   91MOL   H32740107   4.957   1.683   6.988 -1.8287 -1.2142 -1.0335
   91MOL   H32840108   4.999   1.774   7.237 -0.5462 -0.7995  1.9789
   91MOL   H32940109   5.142   1.697   7.179 -0.2522  0.7830 -2.0373
   91MOL   H33040110   5.327   1.634   7.478  0.0531 -0.3437 -0.8450
   91MOL   H33140111   5.283   1.613   7.314  0.3650  3.3459  1.3257
   91MOL   C33240112   5.306   1.422   7.429  0.1257  0.0104 -0.3388
   91MOL   C33340113   5.299   1.371   7.577 -0.0883  0.8643  0.1957
   91MOL   C33440114   5.412   1.417   7.671 -0.0405  1.1136  0.1532
   91MOL   C33540115   5.395   1.364   0.043 -0.0019  0.4359  0.6481
   91MOL   C33640116   5.353   1.214   0.065 -0.6155 -0.8619  0.1116
   91MOL   C33740117   5.237   1.185   7.739  0.2025  0.2544 -0.1490
   91MOL   C33840118   5.275   1.222   7.591  1.0389  0.1637  0.2978
   91MOL   C33940119   5.443   1.395   7.363  0.5871  0.2339 -0.0478
   91MOL   H34040120   5.239   1.362   7.367 -1.7257 -0.7366  2.2865
   91MOL   H34140121   5.211   1.419   7.618 -0.8973 -0.3146 -0.1397
   91MOL   H34240122   5.505   1.376   7.632 -0.9684 -1.6600  0.7529
   91MOL   H34340123   5.414   1.524   7.689  1.3833  0.9588  1.0140
   91MOL   H34440124   5.487   1.387   0.097  1.1536 -1.7256 -0.3646
   91MOL   H34540125   5.323   1.429   0.094 -0.9576 -1.1125  1.3094
   91MOL   H34640126   5.440   1.163   0.023 -0.6607  0.4771 -1.6687
   91MOL   H34740127   5.328   1.171   0.162 -5.8962  0.6513 -0.4528
   91MOL   H34840128   5.141   1.224   7.771 -0.5319 -1.0798 -0.6959
   91MOL   H34940129   5.216   1.078   7.740 -2.1063  0.6785 -0.5836
   91MOL   H35040130   5.188   1.194   7.531  0.1054 -0.2106  1.7968
   91MOL   H35140131   5.358   1.156   7.567  0.1614 -1.3427  1.3439
   91MOL   H35240132   5.483   1.293   7.371  0.6132  0.3327  1.1964
   91MOL   H35340133   5.518   1.453   7.417  1.2459  0.2132 -0.9277
   91MOL   C35440134   5.465   1.435   7.205  0.0819 -0.2276 -1.1515
   91MOL   C35540135   5.360   1.369   7.109 -0.5802  0.3333  0.2035
   91MOL   C35640136   5.361   1.210   7.113 -0.0191  0.6917  0.7242
   91MOL   C35740137   5.237   1.159   7.036  0.3859  0.1210  0.2779
   91MOL   C35840138   5.244   1.203   6.888 -0.0504  0.2681  0.2784
   91MOL   C35940139   5.256   1.352   6.877  0.0311 -0.8441 -0.8461
   91MOL   C36040140   5.369   1.417   6.960  0.4936  0.1090  0.2350
   91MOL   C36140141   5.614   1.407   7.165 -0.4740 -0.2477  0.5000
   91MOL   H36240142   5.444   1.541   7.199 -3.2272 -0.6846  0.9308
   91MOL   H36340143   5.261   1.393   7.148  0.3755  1.7976  1.8019
   91MOL   H36440144   5.365   1.179   7.218  2.3638  2.7127  1.2928
   91MOL   H36540145   5.455   1.179   7.067 -2.2131 -1.4149 -2.5272
   91MOL   H36640146   5.225   1.051   7.039 -1.8448  0.3511  0.5996
   91MOL   H36740147   5.145   1.193   7.084 -0.7741 -1.6955 -0.6105
   91MOL   H36840148   5.331   1.149   6.853  0.6694  1.1193  0.7184
   91MOL   H36940149   5.154   1.172   6.835  1.9461  0.5238 -3.3969
   91MOL   H37040150   5.269   1.378   6.772  1.5581  1.7412 -0.0575
   91MOL   H37140151   5.164   1.410   6.890  0.4070 -0.2084 -1.0078
   91MOL   H37240152   5.362   1.526   6.960 -1.0479  0.0319  1.1614
   91MOL   H37340153   5.464   1.384   6.919  1.0479 -0.3710  1.8508
   91MOL   H37440154   5.614   1.395   7.057 -1.2155  1.6376  0.2666
   91MOL   H37540155   5.646   1.311   7.207  0.6097 -1.4313 -2.9014
   91MOL   C37640156   5.713   1.517   7.206  0.2374  0.1955  0.0871
   91MOL   C37740157   5.851   1.467   7.256 -0.2205  0.0945 -0.2910
   91MOL   C37840158   5.920   1.375   7.151  0.1071  0.3088 -0.2065
   91MOL   C37940159   6.065   1.340   7.205  0.2272 -0.0266 -0.5768
   91MOL   C38040160   6.061   1.264   7.339 -0.3279 -0.0514 -0.4134
   91MOL   C38140161   5.990   1.343   7.451 -0.5741  0.6763 -0.0692
   91MOL   C38240162   5.854   1.391   7.395  0.1538 -0.0932  0.2352
   91MOL   C38340163   5.734   1.624   7.092 -0.2772  0.3193  0.0573
   91MOL   H38440164   5.668   1.578   7.285 -0.8617  0.9057 -1.0767
   91MOL   H38540165   5.906   1.557   7.281  0.0468 -0.0898 -0.2193
   91MOL   H38640166   5.862   1.284   7.134  0.6847 -0.7584  3.1713
   91MOL   H38740167   5.921   1.411   7.048  0.5339  1.1046  0.0705
   91MOL   H38840168   6.120   1.434   7.216  0.2182 -0.1992  1.1012
   91MOL   H38940169   6.124   1.291   7.128  0.7468 -1.1262  0.5090
   91MOL   H39040170   6.021   1.162   7.335 -1.8975  0.4686  1.3925
   91MOL   H39140171   6.168   1.261   7.361 -0.4801  2.3143  0.7415
   91MOL   H39240172   5.992   1.282   7.541  0.6614  0.8158  0.0126
   91MOL   H39340173   6.048   1.434   7.471 -0.4547  0.2886  1.3787
   91MOL   H39440174   5.802   1.295   7.386 -0.9712  0.6641 -1.8848
   91MOL   H39540175   5.806   1.438   7.481  1.5899  1.0678  0.4144
   91MOL   H39640176   5.757   1.584   6.993 -0.3339  2.0691 -0.6942
   91MOL   H39740177   5.831   1.673   7.101  0.0866 -0.0452 -1.6818
   91MOL   C39840178   5.629   1.731   7.072 -0.0994 -0.4466  0.7159
   91MOL   C39940179   5.582   1.815   7.195 -0.0742  0.0035 -0.6595
   91MOL   C40040180   5.707   1.889   7.259 -0.4801  0.6562 -0.2328
   91MOL   C40140181   5.672   1.976   7.379 -0.6888  0.4996 -0.2073
   91MOL   C40240182   5.566   2.082   7.342  0.1130  0.1398 -0.7167
   91MOL   C40340183   5.444   2.014   7.281 -0.3604 -0.9046  0.1579
   91MOL   C40440184   5.474   1.927   7.161 -0.5792 -0.7297  0.1897
   91MOL   C40540185   5.652   1.804   6.935 -0.1314 -0.0431  0.4783
   91MOL   H40640186   5.539   1.669   7.070 -1.5243  1.5770 -0.2870
   91MOL   H40740187   5.540   1.765   7.282  1.8375 -0.0638  0.2526
   91MOL   H40840188   5.748   1.950   7.178  1.7930  0.4790  0.7534
   91MOL   H40940189   5.790   1.824   7.285 -0.2846  0.8105 -0.4667
   91MOL   H41040190   5.770   2.022   7.395  0.8685 -2.7706 -0.0070
   91MOL   H41140191   5.638   1.914   7.462 -1.5496 -0.5803 -1.3397
   91MOL   H41240192   5.606   2.155   7.272 -0.4938  1.3154  0.1509
   91MOL   H41340193   5.529   2.144   7.423 -1.6259 -1.6920 -0.0506
   91MOL   H41440194   5.385   1.964   7.358 -3.3236 -0.6526 -1.8531
   91MOL   H41540195   5.372   2.087   7.246 -0.6593 -0.7338  1.1343
   91MOL   H41640196   5.381   1.880   7.129 -2.4642  2.6822  0.5096
   91MOL   H41740197   5.506   1.992   7.080  0.6792 -1.5355  0.0222
   91MOL   H41840198   5.614   1.906   6.928  0.4440  0.1055 -0.6487
   91MOL   H41940199   5.759   1.818   6.919 -0.1995 -1.1610 -1.0653
   91MOL   C42040200   5.599   1.712   6.815 -0.2087 -0.3072  0.4643
   91MOL   C42140201   5.690   1.719   6.686 -0.3621 -0.9292 -0.2710
   91MOL   C42240202   5.614   1.690   6.551 -0.0142 -0.2336  0.2498
   91MOL   C42340203   5.704   1.679   6.433  0.4312 -0.0051 -0.2284
   91MOL   C42440204   5.831   1.596   6.449  0.2378 -0.0239  0.2595
   91MOL   C42540205   5.901   1.615   6.589 -0.2684 -0.1167  0.0934
   91MOL   C42640206   5.810   1.623   6.703  0.2097 -0.3747  0.0839
   91MOL   C42740207   5.456   1.760   6.797  0.0866 -0.7463 -0.4194
   91MOL   H42840208   5.594   1.607   6.844 -2.2586 -0.2477  0.3717
   91MOL   H42940209   5.728   1.821   6.697  1.9594 -1.5391 -2.1932
   91MOL   H43040210   5.574   1.590   6.570 -0.5874 -0.2170 -0.8346
   91MOL   H43140211   5.531   1.759   6.534  0.7614 -0.2628 -4.1497
   91MOL   H43240212   5.654   1.639   6.345  1.8725 -2.9200  0.2262
   91MOL   H43340213   5.741   1.780   6.413  0.9926 -0.4345 -1.4151
   91MOL   H43440214   5.897   1.612   6.364 -0.8813 -2.9027 -1.2059
   91MOL   H43540215   5.798   1.492   6.443 -0.6233  0.2175  0.7946
   91MOL   H43640216   5.960   1.706   6.584  1.3925 -1.1832 -0.1468
   91MOL   H43740217   5.971   1.532   6.603 -0.5209 -0.7983 -2.3778
   91MOL   H43840218   5.777   1.521   6.726 -0.3723 -0.1518  0.2262
   91MOL   H43940219   5.853   1.660   6.796 -0.1817  0.1259  0.0654
   91MOL   H44040220   5.413   1.715   6.707 -0.9247  1.4761 -1.0773
   91MOL   H44140221   5.380   1.745   6.873 -0.1295  0.6494 -0.3453
   91MOL   H44240222   5.456   1.866   6.773 -0.0609 -0.7687 -0.5198
   92MOL     C140223   2.970   7.757   4.429 -0.0500  0.0531 -0.2119
   92MOL     C240224   3.118   7.755   4.458  0.0294 -0.3116  0.8686
   92MOL     C340225   3.195   0.024   4.334 -0.4135 -0.2801  0.0505
   92MOL     C440226   3.349   0.018   4.347  0.3015 -0.0235 -0.0025
   92MOL     C540227   3.405   7.673   4.432 -0.0921  0.1492  0.6220
   92MOL     C640228   3.319   7.642   4.551 -0.5148 -0.1645  0.2094
   92MOL     C740229   3.166   7.620   4.522 -0.4680  0.0559 -0.6390
   92MOL     C840230   2.871   7.759   4.544 -0.8188 -0.1708  0.0956
   92MOL     H940231   2.954   0.072   4.366  0.2902  2.6299  3.1203
   92MOL    H1040232   3.131   0.060   4.535  0.3736  1.0076 -0.4976
   92MOL    H1140233   3.171   7.741   4.243  1.4343  1.0503 -1.2840
   92MOL    H1240234   3.188   0.129   4.306  1.0024 -0.6816 -1.9131
   92MOL    H1340235   3.371   0.112   4.397 -2.0237 -1.2300  3.4161
   92MOL    H1440236   3.404   0.003   4.254 -0.6420 -0.1007 -0.5566
   92MOL    H1540237   3.504   7.709   4.458  0.0120  0.5311 -0.2846
   92MOL    H1640238   3.411   7.597   4.354 -0.2249  2.3758 -1.6217
   92MOL    H1740239   3.356   7.558   4.610 -0.5819  0.6185  1.3851
   92MOL    H1840240   3.320   7.730   4.616 -0.8322 -1.0658  1.4682
   92MOL    H1940241   3.109   7.598   4.611 -0.3098 -0.1344 -0.5854
   92MOL    H2040242   3.154   7.536   4.454 -0.6087 -0.1819 -0.3156
   92MOL    H2140243   2.884   0.077   4.603 -1.3501 -1.1355  1.7161
   92MOL    H2240244   2.899   7.680   4.614  0.6035  0.7498  0.5860
   92MOL    H2340245   2.947   7.669   4.368 -0.7762  0.4650 -0.5328
   92MOL    C2440246   2.722   7.757   4.509  0.7001 -0.7754 -0.8772
   92MOL    C2540247   2.667   0.108   4.430  0.3175 -0.4327  0.2396
   92MOL    C2640248   2.706   0.239   4.504 -0.2862 -0.1736 -0.1329
   92MOL    C2740249   2.667   0.355   4.423  0.5269 -0.1055 -0.1645
   92MOL    C2840250   2.515   0.364   4.418 -0.3002  0.3964  0.0619
   92MOL    C2940251   2.458   0.238   4.354  0.4430 -0.5453 -0.3475
   92MOL    C3040252   2.510   0.105   4.412  0.4067 -0.6680 -0.0973
   92MOL    C3140253   2.673   7.627   4.446 -0.5753  0.5838  0.3856
   92MOL    H3240254   2.666   7.767   4.602 -0.5171  2.6736 -1.9186
   92MOL    H3340255   2.706   0.108   4.328  1.6551  0.8535  0.7387
   92MOL    H3440256   2.814   0.244   4.516  0.1388  0.5876 -3.5710
   92MOL    H3540257   2.662   0.237   4.604 -1.1128 -0.9135 -0.4979
   92MOL    H3640258   2.701   0.448   4.467  1.1671 -0.5193  0.2121
   92MOL    H3740259   2.712   0.347   4.324  0.1166  1.3674 -0.4861
   92MOL    H3840260   2.478   0.452   4.365 -0.0086  1.1175  1.0513
   92MOL    H3940261   2.477   0.367   4.520 -0.9253 -0.7789 -0.1264
   92MOL    H4040262   2.349   0.230   4.350  0.3245  0.5954  0.1878
   92MOL    H4140263   2.486   0.244   4.249  0.1311 -0.0750 -0.4077
   92MOL    H4240264   2.463   0.079   4.507 -1.9781  0.3171 -0.9709
   92MOL    H4340265   2.476   0.033   4.338  1.8797 -1.3477 -0.1443
   92MOL    H4440266   2.704   7.636   4.342  1.4554 -0.2799  0.8868
   92MOL    H4540267   2.565   7.614   4.446 -0.3857 -1.3318  1.6227
   92MOL    C4640268   2.719   7.488   4.506 -0.2657 -0.5441 -0.4159
   92MOL    C4740269   2.682   7.366   4.416  0.2273  0.0365  0.9104
   92MOL    C4840270   2.767   7.343   4.291 -0.1899  0.4031  0.8054
   92MOL    C4940271   2.734   7.219   4.209 -0.6862  0.5303 -0.4780
   92MOL    C5040272   2.584   7.210   4.182  0.6716 -0.1266 -0.4008
   92MOL    C5140273   2.499   7.214   4.307  0.2609  0.4695  0.0007
   92MOL    C5240274   2.538   7.348   4.376  0.9930 -0.1865 -0.1944
   92MOL    C5340275   2.659   7.466   4.642  0.4026  0.9487 -0.6542
   92MOL    H5440276   2.828   7.493   4.498 -0.3905  2.2705 -0.8144
   92MOL    H5540277   2.699   7.282   4.483 -0.0753 -0.0796  0.8427
   92MOL    H5640278   2.761   7.426   4.220  1.8524  0.9179  1.2210
   92MOL    H5740279   2.869   7.334   4.328  0.3387  0.6024 -0.5771
   92MOL    H5840280   2.770   7.132   4.263 -0.5001  0.5830 -0.5185
   92MOL    H5940281   2.795   7.217   4.119 -0.4426  0.0187 -0.3006
   92MOL    H6040282   2.541   7.269   4.101  0.8680 -1.3806 -1.4296
   92MOL    H6140283   2.568   7.112   4.137  1.0896 -0.0428 -0.7299
   92MOL    H6240284   2.505   7.131   4.378 -3.0729  0.7187  0.6375
   92MOL    H6340285   2.394   7.214   4.281  0.0143 -2.3132  0.8101
   92MOL    H6440286   2.503   7.420   4.302  1.9911  1.0495  0.5282
   92MOL    H6540287   2.469   7.368   4.459 -0.5475 -0.2900 -1.4174
   92MOL    H6640288   2.561   7.419   4.645  0.0204  1.8476  1.6328
   92MOL    H6740289   2.638   7.566   4.680  1.1835  0.8049  0.1956
   92MOL    C6840290   2.744   7.381   4.742  0.5319 -0.0143  0.5432
   92MOL    C6940291   2.865   7.462   4.817  0.2392  0.3373  0.5146
   92MOL    C7040292   2.834   7.580   4.913 -0.4628 -0.3438  0.1193
   92MOL    C7140293   2.975   7.637   4.963 -0.2960 -0.1279  0.5100
   92MOL    C7240294   3.059   7.536   5.040  0.8628 -0.3174 -0.2442
   92MOL    C7340295   3.076   7.408   4.958  0.2269 -0.9522  0.6248
   92MOL    C7440296   2.944   7.359   4.901 -0.5122 -0.0544 -0.4455
   92MOL    C7540297   2.640   7.316   4.840 -0.0901 -0.3208 -0.3681
   92MOL    H7640298   2.800   7.300   4.696  1.6469  0.2550  1.3799
   92MOL    H7740299   2.933   7.482   4.734  1.3526  1.7060  1.7247
   92MOL    H7840300   2.776   7.547   4.999 -1.3360  0.8401 -0.0015
   92MOL    H7940301   2.780   7.658   4.859  1.8555  0.8344 -0.5775
   92MOL    H8040302   3.027   7.664   4.871  1.4368 -1.9165  0.9488
   92MOL    H8140303   2.943   7.717   5.029 -0.1762  1.2165 -1.0165
   92MOL    H8240304   3.014   7.515   5.137  0.2035  0.6416 -0.3357
   92MOL    H8340305   3.155   7.585   5.056  1.1572  0.6082 -4.3264
   92MOL    H8440306   3.115   7.325   5.018  1.7838 -0.6059  0.1144
   92MOL    H8540307   3.139   7.433   4.873 -0.4966  0.8505  0.6015
   92MOL    H8640308   2.884   7.305   4.975 -1.4079  1.6201  0.0733
   92MOL    H8740309   2.964   7.276   4.834  1.9026 -0.3348  0.5901
   92MOL    H8840310   2.674   7.335   4.942 -1.9759  1.4476 -0.0326
   92MOL    H8940311   2.545   7.368   4.830 -0.4816 -1.0759 -0.5352
   92MOL    C9040312   2.625   7.165   4.827 -0.2934  0.0311 -0.6700
   92MOL    C9140313   2.572   7.102   4.960 -0.2367  0.1385 -0.3507
   92MOL    C9240314   2.683   7.083   5.063 -0.4886  0.4812  0.3952
   92MOL    C9340315   2.637   7.014   5.186  0.3543 -0.4660 -0.4606
   92MOL    C9440316   2.525   7.097   5.239  0.1789 -0.7653 -0.6106
   92MOL    C9540317   2.405   7.115   5.145  0.2423  0.0154 -0.3344
   92MOL    C9640318   2.445   7.171   5.016 -0.4350  0.5852  0.4334
   92MOL    C9740319   2.546   7.116   4.708 -0.3742 -0.1720 -0.2714
   92MOL    H9840320   2.729   7.133   4.815 -0.4099 -0.3367 -0.6963
   92MOL    H9940321   2.547   6.998   4.938  0.0416 -0.7109  3.1451
   92MOL   H10040322   2.717   7.183   5.089  1.7247  0.0251 -0.6189
   92MOL   H10140323   2.770   7.030   5.023 -0.2239  1.0704  0.1870
   92MOL   H10240324   2.710   7.000   5.267 -1.3809 -2.7601  0.7537
   92MOL   H10340325   2.598   6.913   5.173  0.7461 -0.9836  2.0449
   92MOL   H10440326   2.548   7.196   5.278 -0.8075 -0.4267 -0.8618
   92MOL   H10540327   2.480   7.055   5.329  0.0900 -2.1020 -1.2670
   92MOL   H10640328   2.360   7.016   5.132 -0.4624  0.1017  1.3112
   92MOL   H10740329   2.347   7.192   5.195  0.0950  0.0317 -0.5311
   92MOL   H10840330   2.368   7.152   4.941 -0.7150  2.5492  0.1878
   92MOL   H10940331   2.459   7.279   5.014 -0.3319  0.5717  0.4284
   92MOL   H11040332   2.441   7.143   4.721 -0.3645 -0.1883 -0.1589
   92MOL   H11140333   2.580   7.171   4.620 -1.7930 -1.2863 -1.5313
   92MOL   C11240334   2.556   6.964   4.672  0.2881 -0.0740  0.3722
   92MOL   C11340335   2.696   6.903   4.639 -0.4612  0.7631  0.0325
   92MOL   C11440336   2.770   6.860   4.765 -0.3670 -0.0703 -0.4428
   92MOL   C11540337   2.902   6.791   4.732 -0.5292  0.5644 -0.4946
   92MOL   C11640338   3.001   6.873   4.654 -0.1081 -0.5185  0.6983
   92MOL   C11740339   2.934   6.937   4.526 -0.3464  0.4168  0.0613
   92MOL   C11840340   2.797   6.993   4.563 -0.0846  0.7175  0.4994
   92MOL   C11940341   2.468   6.932   4.546 -0.1992  0.7890  0.0139
   92MOL   H12040342   2.510   6.908   4.754 -2.7138 -0.5383 -1.5361
   92MOL   H12140343   2.680   6.820   4.570  0.1206  0.3240  0.4185
   92MOL   H12240344   2.703   6.804   4.830  0.0668  1.1872  1.0933
   92MOL   H12340345   2.805   6.944   4.824 -2.4039  1.2855 -1.1163
   92MOL   H12440346   2.948   6.759   4.825  0.4702  1.2542 -0.7457
   92MOL   H12540347   2.885   6.697   4.680  4.7262 -1.0981  0.4715
   92MOL   H12640348   3.046   6.949   4.718 -1.3416  0.4274  0.4577
   92MOL   H12740349   3.089   6.817   4.623  0.4282 -0.2006  1.6175
   92MOL   H12840350   2.995   7.015   4.481  2.3475 -1.2297  0.6848
   92MOL   H12940351   2.927   6.850   4.460 -3.3618  1.7175 -1.3863
   92MOL   H13040352   2.745   7.047   4.484  0.8819 -0.3996 -0.9105
   92MOL   H13140353   2.821   7.072   4.635 -0.0854 -0.8894  2.2980
   92MOL   H13240354   2.525   6.929   4.454 -2.4154  0.3573 -1.3946
   92MOL   H13340355   2.397   7.013   4.528  0.7365  1.2228 -1.7684
   92MOL   C13440356   2.382   6.800   4.555  0.2149  0.0184  0.2993
   92MOL   C13540357   2.300   6.761   4.428 -0.3539 -0.1373 -0.2043
   92MOL   C13640358   2.391   6.706   4.310  0.6636  0.7850  0.0327
   92MOL   C13740359   2.304   6.649   4.195 -0.8007  0.5729  0.3290
   92MOL   C13840360   2.232   6.764   4.129  0.0480  0.5234  0.2708
   92MOL   C13940361   2.132   6.823   4.233  0.4113  0.5103 -0.0366
   92MOL   C14040362   2.201   6.860   4.368  0.4502  0.0861  0.1787
   92MOL   C14140363   2.294   6.806   4.681  0.7019  0.7207 -0.1725
   92MOL   H14240364   2.456   6.721   4.559  0.3771  0.2203  1.4770
   92MOL   H14340365   2.232   6.684   4.466  1.5715 -0.8552  1.9450
   92MOL   H14440366   2.466   6.778   4.278  0.2677  0.8071 -0.8687
   92MOL   H14540367   2.451   6.627   4.354  0.6624  0.0795 -1.2159
   92MOL   H14640368   2.236   6.573   4.235 -0.3412 -0.1115 -0.1780
   92MOL   H14740369   2.364   6.602   4.118 -0.5627  1.4280 -0.0103
   92MOL   H14840370   2.307   6.837   4.097  0.4240  0.2548  0.5418
   92MOL   H14940371   2.185   6.749   4.031  1.4094  1.1236 -0.4990
   92MOL   H15040372   2.040   6.764   4.236  0.1146  0.7944 -2.6755
   92MOL   H15140373   2.109   6.917   4.183  1.1196  0.5888 -0.2213
   92MOL   H15240374   2.254   6.955   4.368  2.1633 -0.7820 -2.8091
   92MOL   H15340375   2.121   6.873   4.441 -0.8234  1.8493 -1.4754
   92MOL   H15440376   2.193   6.815   4.642 -0.0377  1.2010  1.7851
   92MOL   H15540377   2.313   6.901   4.731 -1.0418  1.3586 -0.7158
   92MOL   C15640378   2.312   6.690   4.787 -0.9099  0.1262  0.1127
   92MOL   C15740379   2.208   6.697   4.904  0.1324 -0.0536  0.0002
   92MOL   C15840380   2.186   6.833   4.977 -0.2506 -0.4370 -0.0031
   92MOL   C15940381   2.079   6.820   5.093 -0.4969 -0.8172  0.1295
   92MOL   C16040382   1.944   6.771   5.051  0.4889  0.2338 -0.4132
   92MOL   C16140383   1.969   6.643   4.968 -0.6764 -0.0779 -0.2357
   92MOL   C16240384   2.071   6.652   4.852  0.4954  0.2705 -0.4263
   92MOL   C16340385   2.456   6.680   4.845 -0.0191  0.2967 -0.1450
   92MOL   H16440386   2.292   6.598   4.733 -2.9216 -0.0993  1.1627
   92MOL   H16540387   2.224   6.618   4.977  0.6545 -0.4105 -0.5035
   92MOL   H16640388   2.278   6.860   5.028  0.3151  0.1940 -1.3505
   92MOL   H16740389   2.150   6.914   4.913 -1.2292  0.7828  2.0064
   92MOL   H16840390   2.114   6.756   5.174 -2.5134  0.7473  2.2932
   92MOL   H16940391   2.072   6.921   5.134 -0.8795 -1.2854  1.2505
   92MOL   H17040392   1.891   6.843   4.989 -0.8581  0.3065  0.8058
   92MOL   H17140393   1.880   6.754   5.137 -0.8706 -1.6422 -1.7518
   92MOL   H17240394   1.873   6.603   4.935 -0.7988 -0.4432  0.5598
   92MOL   H17340395   2.007   6.564   5.032 -0.2283  0.8463  0.6458
   92MOL   H17440396   2.078   6.554   4.804  1.8125  0.5819 -0.8839
   92MOL   H17540397   2.040   6.723   4.775 -0.7247 -0.8852 -1.0407
   92MOL   H17640398   2.470   6.766   4.911  0.0262  0.0947  0.1105
   92MOL   H17740399   2.536   6.684   4.772  0.1687  0.6221  0.0804
   92MOL   C17840400   2.495   6.558   4.937 -0.0366 -0.0540 -0.0704
   92MOL   C17940401   2.525   6.431   4.855  0.6210 -0.5858  0.0348
   92MOL   C18040402   2.488   6.301   4.927  0.0051 -0.2364  0.0261
   92MOL   C18140403   2.516   6.173   4.847  0.9106 -0.1732 -1.0486
   92MOL   C18240404   2.650   6.173   4.768 -0.3555  0.2799 -0.1756
   92MOL   C18340405   2.685   6.302   4.697  0.6048  0.4464  0.5733
   92MOL   C18440406   2.671   6.425   4.795  0.8418  0.0954  0.2994
   92MOL   C18540407   2.608   6.599   5.036  0.1771 -0.1176 -0.1154
   92MOL   H18640408   2.414   6.549   5.009 -0.9346 -0.1181 -1.0747
   92MOL   H18740409   2.455   6.423   4.772  0.3908 -0.4945  0.2186
   92MOL   H18840410   2.546   6.281   5.017 -0.0068 -0.1588  0.0508
   92MOL   H18940411   2.386   6.293   4.965  1.0695  1.3990  3.4521
   92MOL   H19040412   2.428   6.160   4.783  1.5065 -2.0840 -1.5017
   92MOL   H19140413   2.516   6.084   4.910  1.6436 -0.5484 -1.5728
   92MOL   H19240414   2.730   6.165   4.841  0.6926  2.5134 -1.0261
   92MOL   H19340415   2.663   6.091   4.697 -0.3020 -1.1552  1.4601
   92MOL   H19440416   2.621   6.322   4.611 -0.7811  1.2062  1.7327
   92MOL   H19540417   2.786   6.296   4.656  0.9891  2.1026  1.2059
   92MOL   H19640418   2.741   6.413   4.878 -0.1517  1.9902  1.4351
   92MOL   H19740419   2.704   6.509   4.734  1.1053 -0.5043 -0.3979
   92MOL   H19840420   2.701   6.593   4.979  0.4086 -0.7725  0.3219
   92MOL   H19940421   2.594   6.706   5.054 -0.7050 -0.4641  1.3027
   92MOL   C20040422   2.634   6.526   5.177  0.0307  0.1407  0.7322
   92MOL   C20140423   2.777   6.554   5.227 -0.8641  0.8580  0.0286
   92MOL   C20240424   2.883   6.477   5.136 -0.9223 -0.3880  0.5802
   92MOL   C20340425   3.026   6.496   5.187 -0.0506 -0.3948 -0.3351
   92MOL   C20440426   3.062   6.651   5.190 -0.7098  0.8798 -0.1641
   92MOL   C20540427   2.964   6.729   5.275 -0.0720  0.3020 -0.0133
   92MOL   C20640428   2.812   6.709   5.235  0.4879  0.0440 -0.1794
   92MOL   C20740429   2.522   6.574   5.281  0.5322 -0.4101  0.0200
   92MOL   H20840430   2.633   6.417   5.167  1.7851 -0.0039  1.9058
   92MOL   H20940431   2.787   6.502   5.322 -1.4905 -0.8169 -0.7960
   92MOL   H21040432   2.884   6.511   5.033 -0.5047 -0.4493  0.5636
   92MOL   H21140433   2.859   6.371   5.132 -0.6906 -0.5941  3.3759
   92MOL   H21240434   3.038   6.459   5.289 -1.0308  4.9173  1.8986
   92MOL   H21340435   3.091   6.455   5.109 -0.4851  1.1326 -1.5401
   92MOL   H21440436   3.166   6.665   5.218 -0.0668  1.0161 -2.4934
   92MOL   H21540437   3.051   6.694   5.090  1.0315 -1.2988 -1.3416
   92MOL   H21640438   2.977   6.680   5.371  1.1678  3.4913  1.5168
   92MOL   H21740439   2.994   6.833   5.293  0.6559  0.6826 -3.1763
   92MOL   H21840440   2.749   6.752   5.313  0.1909 -3.2296  1.4812
   92MOL   H21940441   2.787   6.764   5.144 -0.1168 -0.5560 -0.3818
   92MOL   H22040442   2.535   6.680   5.300 -0.1018  0.0215 -1.8297
   92MOL   H22140443   2.423   6.567   5.237  0.5928 -1.3426  0.0127
   92MOL   C22240444   2.518   6.508   5.419 -0.8921  0.1529 -0.4516
   92MOL   C22340445   2.576   6.598   5.532  0.7453  0.3078  0.0910
   92MOL   C22440446   2.626   6.521   5.660  0.0323 -0.8277 -0.0902
   92MOL   C22540447   2.688   6.611   5.772 -0.7050  0.0953  0.3488
   92MOL   C22640448   2.607   6.740   5.806  0.3420 -0.1428 -0.0320
   92MOL   C22740449   2.562   6.811   5.673 -0.6347  0.5630 -0.4101
   92MOL   C22840450   2.486   6.713   5.577  0.3040 -0.4615  0.3732
   92MOL   C22940451   2.383   6.432   5.450 -0.2359 -0.6001  0.6016
   92MOL   H23040452   2.600   6.436   5.410 -1.1084 -0.4639  2.3343
   92MOL   H23140453   2.671   6.631   5.489  0.0179  0.8126 -1.1653
   92MOL   H23240454   2.538   6.467   5.696  0.0931  0.1977  1.6875
   92MOL   H23340455   2.696   6.443   5.631 -1.3413 -1.8537 -0.7053
   92MOL   H23440456   2.793   6.632   5.749 -0.0737 -1.4718  1.7169
   92MOL   H23540457   2.708   6.544   5.855  0.2502 -2.0431 -1.5603
   92MOL   H23640458   2.515   6.712   5.857 -0.2824  0.4995 -0.7898
   92MOL   H23740459   2.659   6.807   5.874 -0.6227  1.0251 -0.4347
   92MOL   H23840460   2.647   6.854   5.620 -1.2527  2.6989  0.2965
   92MOL   H23940461   2.494   6.893   5.695 -2.8752 -1.1652 -0.6674
   92MOL   H24040462   2.399   6.671   5.627 -0.1736  0.0772 -0.0030
   92MOL   H24140463   2.452   6.765   5.487  0.8940 -0.1160  0.3514
   92MOL   H24240464   2.304   6.507   5.448  1.4286  1.2353  1.3868
   92MOL   H24340465   2.379   6.400   5.555  1.5991 -0.0415  0.8549
   92MOL   C24440466   2.366   6.301   5.365  0.1345 -0.0062  0.1219
   92MOL   C24540467   2.216   6.267   5.339 -0.3638  0.4441  0.0606
   92MOL   C24640468   2.136   6.365   5.243  0.2308  0.6397  0.0969
   92MOL   C24740469   1.999   6.309   5.210 -0.2961 -0.1454  0.1202
   92MOL   C24840470   1.915   6.299   5.335  0.5440  0.3732  0.3374
   92MOL   C24940471   1.985   6.204   5.435 -0.2477 -0.1251 -0.4067
   92MOL   C25040472   2.127   6.242   5.459 -0.5250 -0.2905 -0.1675
   92MOL   C25140473   2.442   6.187   5.433  0.4786  0.3587  0.1715
   92MOL   H25240474   2.403   6.317   5.264  1.8894 -2.3157  0.3697
   92MOL   H25340475   2.211   6.176   5.278 -0.8802  1.4750 -1.4769
   92MOL   H25440476   2.198   6.384   5.156  1.8752  0.5972  1.2269
   92MOL   H25540477   2.150   6.463   5.289  0.4438  0.4501  0.4364
   92MOL   H25640478   1.959   6.377   5.136 -2.4007 -0.2106  1.1747
   92MOL   H25740479   2.019   6.214   5.160  1.6802  0.2201  0.1609
   92MOL   H25840480   1.904   6.401   5.374  0.2352  1.3926 -2.3162
   92MOL   H25940481   1.821   6.263   5.293  0.6243  0.3696  0.1616
   92MOL   H26040482   1.992   6.109   5.382 -0.1526 -0.2746 -0.1249
   92MOL   H26140483   1.931   6.184   5.529  0.8542  1.4007  0.5699
   92MOL   H26240484   2.134   6.326   5.529  0.0738 -1.1445  0.8009
   92MOL   H26340485   2.170   6.168   5.526  1.4476  1.0984  0.1285
   92MOL   H26440486   2.389   6.132   5.511 -0.1604 -1.5018 -1.5141
   92MOL   H26540487   2.520   6.221   5.501  1.7025  1.7094 -1.8293
   92MOL   C26640488   2.500   6.075   5.336  0.3055  0.3359  0.1181
   92MOL   C26740489   2.647   6.106   5.287 -0.1715 -0.2809 -0.6935
   92MOL   C26840490   2.691   6.016   5.169 -0.4809 -0.0435  0.4902
   92MOL   C26940491   2.823   6.057   5.107  0.3756  0.1487  0.1568
   92MOL   C27040492   2.927   6.050   5.215 -0.2046 -0.0783 -0.6951
   92MOL   C27140493   2.895   6.124   5.348 -0.1376  0.1961  0.6756
   92MOL   C27240494   2.755   6.086   5.395 -0.4626  1.1449 -0.1945
   92MOL   C27340495   2.483   5.930   5.406  0.0414 -0.5916  0.5314
   92MOL   H27440496   2.449   6.074   5.239  0.1237 -1.4421  0.2088
   92MOL   H27540497   2.655   6.211   5.258  1.2057 -0.0952  0.2892
   92MOL   H27640498   2.692   5.913   5.206  2.5857 -0.7492 -1.3512
   92MOL   H27740499   2.615   6.012   5.090 -1.0167  0.4087  0.9785
   92MOL   H27840500   2.818   6.163   5.082  1.6147  0.1391 -0.1895
   92MOL   H27940501   2.830   5.994   5.018  0.8648 -0.6609  0.7526
   92MOL   H28040502   2.944   5.945   5.238  2.6669  0.9650  2.2461
   92MOL   H28140503   3.021   6.080   5.168  0.5426 -1.1825  0.0593
   92MOL   H28240504   2.900   6.231   5.327  0.9357  0.2728  1.3114
   92MOL   H28340505   2.972   6.112   5.424 -0.6504 -2.7314  0.8076
   92MOL   H28440506   2.731   6.146   5.482 -2.1105  0.3333 -0.0659
   92MOL   H28540507   2.760   5.984   5.432  1.1333  0.4770 -2.1551
   92MOL   H28640508   2.490   5.940   5.514 -0.4976 -0.0117  0.5152
   92MOL   H28740509   2.568   5.862   5.395  1.3307  1.1472 -0.5032
   92MOL   C28840510   2.357   5.861   5.348  0.1252 -0.6553 -0.1844
   92MOL   C28940511   2.289   5.765   5.461 -0.2220  0.0161 -0.7108
   92MOL   C29040512   2.388   5.650   5.510 -0.2197 -0.0549 -0.3365
   92MOL   C29140513   2.331   5.554   5.613  0.4119 -0.2502  0.1740
   92MOL   C29240514   2.260   5.630   5.731  0.3487 -0.5608 -0.4190
   92MOL   C29340515   2.171   5.746   5.693 -0.2442  0.5876  0.6316
   92MOL   C29440516   2.234   5.837   5.590  0.5348 -0.3452 -0.1946
   92MOL   C29540517   2.382   5.792   5.213 -0.1766  0.0172 -0.5359
   92MOL   H29640518   2.284   5.940   5.330  0.8681 -0.0436 -0.5611
   92MOL   H29740519   2.210   5.702   5.419  2.3083 -2.1921 -2.3824
   92MOL   H29840520   2.416   5.574   5.437 -1.1510  0.5090 -1.2911
   92MOL   H29940521   2.484   5.690   5.540  0.0027 -0.5004 -0.4455
   92MOL   H30040522   2.260   5.481   5.572  0.5810 -1.4005  1.8515
   92MOL   H30140523   2.409   5.492   5.657  0.6654  0.3864  0.6163
   92MOL   H30240524   2.331   5.674   5.802 -0.5193 -0.3827  0.3499
   92MOL   H30340525   2.208   5.555   5.791  2.9023 -2.2689 -0.2643
   92MOL   H30440526   2.146   5.798   5.785  2.8120 -0.5625  2.2205
   92MOL   H30540527   2.079   5.703   5.655  0.5435 -1.8225  1.3321
   92MOL   H30640528   2.314   5.901   5.627  0.7322  0.7687 -2.4497
   92MOL   H30740529   2.161   5.913   5.563 -0.9107 -1.1214  1.3956
   92MOL   H30840530   2.456   5.850   5.158  1.3409 -0.0416  1.3966
   92MOL   H30940531   2.437   5.700   5.233 -1.4759 -1.0849 -1.8295
   92MOL   C31040532   2.269   5.745   5.125 -0.3854  0.4847 -0.3101
   92MOL   C31140533   2.186   5.871   5.077  0.5542 -0.7743 -0.4739
   92MOL   C31240534   2.263   5.963   4.985  0.1949 -0.0961 -0.0797
   92MOL   C31340535   2.184   6.089   4.946  0.1791 -0.2260 -0.0752
   92MOL   C31440536   2.058   6.052   4.866  0.3335  0.0023  0.1262
   92MOL   C31540537   1.971   5.961   4.951 -0.6021  0.1763  0.1775
   92MOL   C31640538   2.049   5.836   5.011 -0.3122 -0.2205 -0.9052
   92MOL   C31740539   2.345   5.662   5.006 -0.2124  0.0324  0.5889
   92MOL   H31840540   2.191   5.689   5.177  0.8969 -0.5845  0.4739
   92MOL   H31940541   2.160   5.921   5.171 -0.9990 -0.9778 -0.7765
   92MOL   H32040542   2.344   6.001   5.046  0.3263  1.1096 -0.9774
   92MOL   H32140543   2.309   5.911   4.901 -1.1540 -1.4931  0.0082
   92MOL   H32240544   2.245   6.144   4.875  1.9685 -0.9862  0.8598
   92MOL   H32340545   2.158   6.157   5.027 -2.6413 -0.3586 -0.7989
   92MOL   H32440546   1.998   6.139   4.838 -0.3641 -0.4370  0.2210
   92MOL   H32540547   2.093   6.000   4.777  0.4085  0.0554  0.1260
   92MOL   H32640548   1.913   6.014   5.027  0.0060  0.2310  0.6082
   92MOL   H32740549   1.904   5.905   4.886  2.3613 -0.1295 -2.6975
   92MOL   H32840550   2.074   5.765   4.933  3.7389  1.4757 -1.2665
   92MOL   H32940551   1.987   5.785   5.085  1.8877  0.5010  1.5063
   92MOL   H33040552   2.447   5.700   4.994 -1.1364  2.5457  0.5118
   92MOL   H33140553   2.301   5.681   4.908 -2.5522 -0.1653  1.5619
   92MOL   C33240554   2.339   5.510   5.025  0.2708  0.1585 -0.5180
   92MOL   C33340555   2.470   5.439   4.984  0.5359  0.1008  0.1301
   92MOL   C33440556   2.576   5.454   5.092 -0.5870  0.3064 -0.1920
   92MOL   C33540557   2.688   5.357   5.072  0.0167 -0.1199  0.3599
   92MOL   C33640558   2.745   5.361   4.921  0.5140  0.7427 -0.1656
   92MOL   C33740559   2.634   5.362   4.809 -0.0819 -0.0229 -0.0638
   92MOL   C33840560   2.521   5.462   4.837 -0.1202  0.3332 -0.2311
   92MOL   C33940561   2.213   5.447   4.968 -0.3485 -0.3154 -0.5658
   92MOL   H34040562   2.329   5.502   5.133  0.5611  0.8546 -0.4364
   92MOL   H34140563   2.440   5.335   4.997 -0.4791  0.7248  3.3436
   92MOL   H34240564   2.627   5.549   5.079  1.4805 -0.8437 -0.7403
   92MOL   H34340565   2.535   5.430   5.190 -1.4212 -2.7850 -1.2431
   92MOL   H34440566   2.765   5.376   5.146  0.9839 -1.2236 -0.3451
   92MOL   H34540567   2.650   5.256   5.085  2.7226 -1.6318 -2.7301
   92MOL   H34640568   2.803   5.452   4.907  3.8998 -1.1735  0.7773
   92MOL   H34740569   2.817   5.281   4.902 -3.0042 -2.0036 -2.6034
   92MOL   H34840570   2.588   5.266   4.788 -1.2496  0.4475  0.2695
   92MOL   H34940571   2.683   5.399   4.718 -0.0733  0.5730  0.1810
   92MOL   H35040572   2.437   5.450   4.768  0.1125  1.7794 -0.7875
   92MOL   H35140573   2.555   5.564   4.820 -0.9621  0.8469  1.0369
   92MOL   H35240574   2.232   5.445   4.860  0.8292  0.3842 -0.3820
   92MOL   H35340575   2.131   5.517   4.973 -0.7740 -0.5398 -3.3694
   92MOL   C35440576   2.177   5.307   5.029 -0.4529 -0.3195  0.5957
   92MOL   C35540577   2.131   5.206   4.928  0.0082 -0.6065  0.3132
   92MOL   C35640578   2.237   5.162   4.825 -0.0168 -0.5507 -0.6573
   92MOL   C35740579   2.186   5.055   4.735 -0.6243  0.3904 -0.3465
   92MOL   C35840580   2.064   5.102   4.654 -0.3207 -0.2096 -0.0399
   92MOL   C35940581   1.955   5.160   4.750  0.0651  0.1105 -0.2574
   92MOL   C36040582   2.008   5.259   4.852 -0.2914 -0.5197 -0.5255
   92MOL   C36140583   2.080   5.301   5.148  0.6496  0.1600 -0.7007
   92MOL   H36240584   2.272   5.266   5.062  0.4932  2.0259  0.9082
   92MOL   H36340585   2.098   5.113   4.974 -3.1718 -0.1150 -0.8639
   92MOL   H36440586   2.329   5.118   4.863  1.1961  1.5597 -1.0737
   92MOL   H36540587   2.263   5.245   4.760  0.9709 -0.4543 -0.1406
   92MOL   H36640588   2.265   5.041   4.661 -0.5611  1.0959 -0.4109
   92MOL   H36740589   2.154   4.961   4.780  1.5941  0.2595  1.0177
   92MOL   H36840590   2.082   5.180   4.580 -1.0296  1.5863  1.6143
   92MOL   H36940591   2.024   5.021   4.593 -0.7329 -0.0843  0.0599
   92MOL   H37040592   1.872   5.205   4.695 -0.1612  1.1366  0.8920
   92MOL   H37140593   1.919   5.073   4.804  1.9536  0.4382  1.5975
   92MOL   H37240594   1.926   5.272   4.923 -0.4925 -4.4148  0.0407
   92MOL   H37340595   2.028   5.355   4.804  1.7362 -0.7419 -0.1404
   92MOL   H37440596   1.984   5.255   5.126  0.6948 -0.8345  1.0412
   92MOL   H37540597   2.054   5.406   5.162  1.0402  0.2166 -0.3790
   92MOL   C37640598   2.136   5.251   5.284  0.0319 -0.0572  0.1152
   92MOL   C37740599   2.042   5.291   5.400  0.6491  0.1506 -0.0952
   92MOL   C37840600   1.915   5.213   5.391 -0.3428 -0.1718  0.0637
   92MOL   C37940601   1.820   5.243   5.510 -0.5638  0.6171  0.0556
   92MOL   C38040602   1.782   5.389   5.527  0.1252  0.8205 -0.1072
   92MOL   C38140603   1.917   5.460   5.547 -0.3798 -0.2737  0.3145
   92MOL   C38240604   2.007   5.438   5.423 -0.0229  0.4411  0.3510
   92MOL   C38340605   2.176   5.099   5.286  0.4328 -0.3445 -0.3807
   92MOL   H38440606   2.232   5.303   5.286  0.3600 -0.5370 -2.2303
   92MOL   H38540607   2.088   5.261   5.494  0.8211 -0.8516 -0.4865
   92MOL   H38640608   1.849   5.249   5.311 -1.6779 -0.6796  0.9115
   92MOL   H38740609   1.927   5.107   5.372 -2.0332 -0.8787  2.6752
   92MOL   H38840610   1.858   5.209   5.606 -0.1515  0.0835 -0.2898
   92MOL   H38940611   1.734   5.180   5.484  0.9595 -0.8182 -1.7415
   92MOL   H39040612   1.718   5.428   5.448 -1.4674 -1.7346 -0.1630
   92MOL   H39140613   1.732   5.405   5.622 -0.5316 -2.3188  0.1316
   92MOL   H39240614   1.901   5.568   5.545 -2.1758 -0.5227 -0.7301
   92MOL   H39340615   1.965   5.432   5.640 -1.3872 -0.0437  0.9075
   92MOL   H39440616   1.962   5.483   5.334  1.0890  0.4830 -0.2003
   92MOL   H39540617   2.100   5.493   5.437 -0.7019  1.6282  0.3211
   92MOL   H39640618   2.127   5.046   5.205  0.1028 -2.0738  0.9115
   92MOL   H39740619   2.127   5.055   5.373 -2.1078 -0.2148 -1.7055
   92MOL   C39840620   2.327   5.072   5.292 -0.0276  0.4296 -0.7644
   92MOL   C39940621   2.400   5.134   5.416  0.8695  0.4247  0.3763
   92MOL   C40040622   2.364   5.055   5.547 -0.6934 -0.0550  0.2727
   92MOL   C40140623   2.434   5.116   5.663 -0.1120 -0.1916 -0.2485
   92MOL   C40240624   2.584   5.112   5.648 -0.2450  0.7178 -0.5438
   92MOL   C40340625   2.632   5.182   5.528 -0.1082  0.8367 -0.3194
   92MOL   C40440626   2.552   5.146   5.396  0.1037 -0.1845 -0.3513
   92MOL   C40540627   2.355   4.918   5.272 -0.0722  0.0100 -0.7058
   92MOL   H40640628   2.364   5.122   5.202  1.7132  1.9998  0.7648
   92MOL   H40740629   2.362   5.235   5.433  1.4106  0.9274 -1.2673
   92MOL   H40840630   2.373   4.947   5.539  0.1051  0.1568 -2.2871
   92MOL   H40940631   2.259   5.076   5.569 -0.4811  0.4765  0.7657
   92MOL   H41040632   2.409   5.057   5.751  0.3952 -1.2879 -0.8291
   92MOL   H41140633   2.403   5.218   5.684  2.6076  0.7258 -0.5465
   92MOL   H41240634   2.608   5.007   5.629 -0.7608  0.5616 -0.3647
   92MOL   H41340635   2.632   5.142   5.741 -0.7402 -0.4598  0.1111
   92MOL   H41440636   2.619   5.287   5.553 -1.5915 -0.2125  3.5976
   92MOL   H41540637   2.739   5.170   5.507 -0.8135 -0.1445 -3.8185
   92MOL   H41640638   2.576   5.199   5.304 -1.2895  0.2333 -0.4908
   92MOL   H41740639   2.581   5.049   5.355 -1.6337 -0.2804 -1.3866
   92MOL   H41840640   2.441   4.879   5.326  0.0257  3.4840  1.8330
   92MOL   H41940641   2.268   4.865   5.310 -0.3591  1.6005  0.9331
   92MOL   C42040642   2.362   4.881   5.125 -0.5456  1.1753  0.6994
   92MOL   C42140643   2.313   4.728   5.102 -0.6845  0.3911 -1.4032
   92MOL   C42240644   2.387   4.632   5.199  0.3426 -0.0875 -0.2613
   92MOL   C42340645   2.328   4.485   5.176  0.2992  0.1567 -0.0660
   92MOL   C42440646   2.338   4.436   5.034 -0.2697  0.3553  0.5894
   92MOL   C42540647   2.256   4.534   4.950 -0.1242  0.4872 -0.2690
   92MOL   C42640648   2.320   4.677   4.960 -0.2170 -0.1655  0.9290
   92MOL   C42740649   2.501   4.919   5.059  0.2188  0.1305 -0.2864
   92MOL   H42840650   2.297   4.937   5.057  1.9482 -0.3196 -3.0803
   92MOL   H42940651   2.208   4.733   5.130 -0.9456 -3.8733 -1.3190
   92MOL   H43040652   2.494   4.628   5.182  0.1615 -0.5466 -1.3268
   92MOL   H43140653   2.374   4.665   5.302 -1.0745  0.5295 -0.6211
   92MOL   H43240654   2.398   4.422   5.231  0.4403  0.7393  0.4329
   92MOL   H43340655   2.230   4.484   5.224  0.5578 -0.2261  0.4549
   92MOL   H43440656   2.296   4.335   5.033 -1.0906  0.6978  0.3520
   92MOL   H43540657   2.436   4.427   4.987 -1.1283  0.4117 -1.2476
   92MOL   H43640658   2.150   4.532   4.971 -0.2186 -1.3684 -0.8127
   92MOL   H43740659   2.253   4.506   4.844 -0.4797 -1.2250  0.1782
   92MOL   H43840660   2.426   4.671   4.936  0.2433  0.8458  2.6214
   92MOL   H43940661   2.278   4.746   4.887 -0.9173 -1.5302  0.0385
   92MOL   H44040662   2.489   4.949   4.955 -0.1068  0.5322 -0.1381
   92MOL   H44140663   2.565   4.989   5.113  0.1036  0.1758 -0.2074
   92MOL   H44240664   2.553   4.824   5.050  0.3799  0.0569  1.2545
   93MOL     C140665   0.671   6.940   6.683 -0.2427 -0.4765 -0.8030
   93MOL     C240666   0.573   7.015   6.585  0.7143  0.0792 -0.5773
   93MOL     C340667   0.541   7.157   6.632 -0.2888 -0.4461  0.1614
   93MOL     C440668   0.449   7.231   6.541 -0.8686  0.0202  0.4587
   93MOL     C540669   0.320   7.141   6.514  0.1170 -0.3048  0.1211
   93MOL     C640670   0.344   6.992   6.483  0.0722  0.1926 -0.0611
   93MOL     C740671   0.439   6.931   6.575 -0.2023 -0.3070 -0.1993
   93MOL     C840672   0.807   7.005   6.680 -0.1762 -0.2712  0.4137
   93MOL     H940673   0.632   6.933   6.785  0.2708  2.7193 -0.3446
   93MOL    H1040674   0.619   7.022   6.486 -3.5247 -0.4777 -2.6764
   93MOL    H1140675   0.498   7.159   6.732  0.7685 -1.0186  0.6427
   93MOL    H1240676   0.631   7.217   6.641 -2.1238  2.5711 -0.8106
   93MOL    H1340677   0.520   7.243   6.460 -0.7218 -0.3108  0.5379
   93MOL    H1440678   0.442   7.331   6.584  1.1141  0.8379 -1.0806
   93MOL    H1540679   0.261   7.196   6.441  2.8512  1.3160 -0.9589
   93MOL    H1640680   0.262   7.145   6.606  1.8380 -3.2034  1.4193
   93MOL    H1740681   0.247   6.941   6.483 -0.9800  2.1414 -0.3842
   93MOL    H1840682   0.390   6.984   6.385  2.2036 -0.2450  0.9547
   93MOL    H1940683   0.446   6.827   6.544  0.9596 -0.8754  1.9054
   93MOL    H2040684   0.394   6.916   6.673  0.4324 -1.4898 -0.0872
   93MOL    H2140685   0.784   7.095   6.737 -0.7903  0.1829 -0.5430
   93MOL    H2240686   0.831   7.032   6.577 -2.0106 -0.7194 -0.1391
   93MOL    H2340687   0.666   6.840   6.640  0.0620 -1.1740  0.7410
   93MOL    C2440688   0.914   6.906   6.742  0.2080  0.4040 -0.1588
   93MOL    C2540689   1.005   6.836   6.636 -0.3876 -0.5351 -0.4432
   93MOL    C2640690   1.106   6.945   6.576 -0.2200  0.0530  0.6906
   93MOL    C2740691   1.182   6.896   6.451 -0.1410 -0.4798 -0.4912
   93MOL    C2840692   1.094   6.822   6.345  0.3303 -0.0140 -0.8609
   93MOL    C2940693   1.009   6.714   6.412  0.1073 -0.5424 -0.1147
   93MOL    C3040694   0.928   6.779   6.521 -0.2001  0.3057  0.2904
   93MOL    C3140695   0.998   6.977   6.857 -0.0566  0.5508  0.1597
   93MOL    H3240696   0.861   6.826   6.793 -2.2185  2.4637  0.6096
   93MOL    H3340697   1.052   6.750   6.683  3.4401  1.7386  0.1804
   93MOL    H3440698   1.180   6.984   6.646  0.0426 -1.0654  1.0557
   93MOL    H3540699   1.056   7.031   6.533 -1.4463 -1.4260 -0.8824
   93MOL    H3640700   1.238   6.984   6.419 -0.6504  0.1244  0.2627
   93MOL    H3740701   1.270   6.839   6.479 -1.4306 -0.4169  3.9858
   93MOL    H3840702   1.150   6.775   6.264 -0.1836  0.1998 -1.3378
   93MOL    H3940703   1.029   6.898   6.301  0.1330 -1.1083 -2.5191
   93MOL    H4040704   0.953   6.658   6.337  2.3542 -0.3326 -2.0080
   93MOL    H4140705   1.070   6.634   6.454 -1.8560 -2.5573 -1.0286
   93MOL    H4240706   0.861   6.848   6.472 -0.1817  0.0606 -0.0820
   93MOL    H4340707   0.869   6.697   6.563  1.0788  0.4231  2.4348
   93MOL    H4440708   1.028   7.076   6.822  0.0046  0.6117  0.3830
   93MOL    H4540709   1.087   6.921   6.884  0.4783  0.9659 -0.7309
   93MOL    C4640710   0.923   7.005   6.986 -0.2333 -0.9818 -0.3598
   93MOL    C4740711   0.976   7.133   7.054  0.0723  0.8769  0.0808
   93MOL    C4840712   0.929   7.265   6.986 -0.4001  0.3004 -0.2412
   93MOL    C4940713   0.958   7.383   7.075 -0.1110  0.2013 -0.1398
   93MOL    C5040714   1.108   7.389   7.110 -0.1238  0.1050 -0.4047
   93MOL    C5140715   1.158   7.260   7.162 -0.3468 -0.1959 -0.6060
   93MOL    C5240716   1.125   7.135   7.084 -0.1121 -0.1693 -0.3870
   93MOL    C5340717   0.926   6.888   7.094  0.2345  0.2476 -0.3346
   93MOL    H5440718   0.818   7.032   6.977  0.0367 -0.1414 -1.0117
   93MOL    H5540719   0.915   7.138   7.145 -2.9825  1.2215 -1.9286
   93MOL    H5640720   0.981   7.277   6.891  0.5300  0.3695  0.2607
   93MOL    H5740721   0.823   7.262   6.963 -0.5633 -1.6780  0.6858
   93MOL    H5840722   0.899   7.387   7.167 -0.6883  0.9367 -0.5387
   93MOL    H5940723   0.929   7.478   7.030 -1.0821  0.7378  1.6018
   93MOL    H6040724   1.165   7.423   7.024  0.1643  0.1983 -0.1772
   93MOL    H6140725   1.125   7.469   7.182  0.8610  0.1606 -0.6867
   93MOL    H6240726   1.120   7.259   7.264  0.6743 -0.2178 -0.2147
   93MOL    H6340727   1.267   7.255   7.160 -0.3276  0.4029 -1.4949
   93MOL    H6440728   1.187   7.125   6.995 -1.9976 -0.1108 -1.7274
   93MOL    H6540729   1.149   7.044   7.139 -1.2011 -0.1146  0.2026
   93MOL    H6640730   0.907   6.932   7.192 -2.5751 -2.5473  0.4573
   93MOL    H6740731   1.031   6.858   7.104  0.4163  0.7898 -0.5748
   93MOL    C6840732   0.838   6.768   7.074  0.1949 -0.1955  0.0627
   93MOL    C6940733   0.887   6.636   7.135  0.9475 -0.1200  0.4974
   93MOL    C7040734   1.002   6.572   7.051 -0.4052 -0.7636 -0.2279
   93MOL    C7140735   1.050   6.430   7.101  0.2155  0.3971  0.0435
   93MOL    C7240736   1.101   6.448   7.247 -0.5966 -0.5507 -0.5453
   93MOL    C7340737   0.991   6.508   7.338  0.0851  0.0717  0.0456
   93MOL    C7440738   0.930   6.641   7.284 -0.7674  0.6357  0.2049
   93MOL    C7540739   0.686   6.797   7.065  0.1639 -0.5849 -0.3131
   93MOL    H7640740   0.855   6.754   6.967  2.3084 -0.1348  0.3648
   93MOL    H7740741   0.801   6.570   7.127 -1.3378  2.7855  0.4922
   93MOL    H7840742   1.088   6.638   7.056 -0.5551 -0.4178 -1.8180
   93MOL    H7940743   0.984   6.570   6.943  0.0021 -1.0749 -0.2948
   93MOL    H8040744   0.973   6.354   7.105  1.9986 -1.4176  0.9437
   93MOL    H8140745   1.112   6.380   7.026  0.0845  1.7598 -1.0058
   93MOL    H8240746   1.184   6.519   7.254 -2.2525  1.1961  2.8223
   93MOL    H8340747   1.141   6.352   7.277  1.5203  0.0666 -1.3024
   93MOL    H8440748   1.031   6.527   7.438 -0.9303 -1.9366  0.8626
   93MOL    H8540749   0.916   6.431   7.354  0.3510 -0.4696 -1.2805
   93MOL    H8640750   1.006   6.717   7.294 -0.4120  0.4554 -1.1564
   93MOL    H8740751   0.847   6.669   7.349 -2.1996 -1.4267 -0.6502
   93MOL    H8840752   0.667   6.883   7.001 -1.2952 -0.1631  0.6586
   93MOL    H8940753   0.657   6.727   6.987  1.4190 -1.1269 -0.3105
   93MOL    C9040754   0.590   6.786   7.183  0.5239 -0.3786 -0.0326
   93MOL    C9140755   0.599   6.913   7.271  0.2920  0.1094  1.2343
   93MOL    C9240756   0.570   7.051   7.202  0.0371  0.2643  0.7409
   93MOL    C9340757   0.593   7.174   7.290  0.2045 -0.4871 -0.5004
   93MOL    C9440758   0.500   7.158   7.406 -0.0606 -0.5923 -0.3252
   93MOL    C9540759   0.520   7.031   7.482  0.5846  0.1703  0.5224
   93MOL    C9640760   0.522   6.899   7.402 -0.0403 -0.1247 -0.7711
   93MOL    C9740761   0.440   6.765   7.133  1.0024  0.8454  0.1315
   93MOL    H9840762   0.631   6.707   7.245  1.2723 -0.2223 -0.3161
   93MOL    H9940763   0.702   6.915   7.308  0.5286 -0.1131  0.5988
   93MOL   H10040764   0.469   7.054   7.162  0.1298 -1.4415  0.3726
   93MOL   H10140765   0.647   7.050   7.125 -1.0159 -1.4461 -0.2941
   93MOL   H10240766   0.565   7.265   7.237 -1.2894  0.5958  2.0660
   93MOL   H10340767   0.693   7.191   7.330  0.3355 -1.4517 -0.4232
   93MOL   H10440768   0.397   7.159   7.368  0.2618 -2.0094 -1.2620
   93MOL   H10540769   0.501   7.238   7.480  0.2993 -1.4606  0.6168
   93MOL   H10640770   0.625   7.050   7.499  1.2600 -2.8347  0.0157
   93MOL   H10740771   0.464   7.034   7.575 -0.3431 -0.1320 -0.0182
   93MOL   H10840772   0.575   6.828   7.465 -0.6035  0.3014  0.1911
   93MOL   H10940773   0.419   6.866   7.392  0.2322 -1.8193  1.8047
   93MOL   H11040774   0.358   6.799   7.195  0.7749  1.5974 -0.5684
   93MOL   H11140775   0.424   6.829   7.046  0.7928 -1.6497 -1.7086
   93MOL   C11240776   0.416   6.621   7.108 -0.2406  0.3171 -0.1201
   93MOL   C11340777   0.320   6.599   6.984  0.5976 -0.6382  0.1926
   93MOL   C11440778   0.366   6.650   6.841 -0.0384 -0.0925  0.3055
   93MOL   C11540779   0.278   6.593   6.738  0.0776 -0.5335 -0.0852
   93MOL   C11640780   0.134   6.647   6.746  0.6255 -0.1621  0.9129
   93MOL   C11740781   0.078   6.623   6.890 -0.2170  0.0597 -0.2396
   93MOL   C11840782   0.178   6.660   7.001 -0.0441  0.8810 -0.6741
   93MOL   C11940783   0.367   6.561   7.241  0.0461  0.2584  0.3918
   93MOL   H12040784   0.513   6.584   7.073  0.4193  1.0316  0.9086
   93MOL   H12140785   0.303   6.493   6.972  1.6904 -0.7647 -0.3126
   93MOL   H12240786   0.473   6.630   6.835 -0.0939 -0.0370 -1.0022
   93MOL   H12340787   0.367   6.759   6.839  0.1058 -0.1001 -3.4499
   93MOL   H12440788   0.320   6.621   6.641  2.3237 -1.1957  0.6704
   93MOL   H12540789   0.271   6.485   6.744  0.2759 -0.5297  0.2176
   93MOL   H12640790   0.140   6.753   6.720 -1.5696 -0.4707 -1.0407
   93MOL   H12740791   0.068   6.591   6.679 -1.0883 -0.7984  3.1061
   93MOL   H12840792   7.759   6.683   6.881  0.4810  1.1473 -0.1119
   93MOL   H12940793   0.058   6.516   6.891  1.0694 -0.2205 -1.8122
   93MOL   H13040794   0.138   6.639   7.100  1.8012  1.4506  0.2175
   93MOL   H13140795   0.175   6.769   7.012  1.0220  0.7861  0.7924
   93MOL   H13240796   0.273   6.609   7.268 -0.7195  0.4871 -2.5475
   93MOL   H13340797   0.432   6.596   7.321 -1.3424  0.9476  1.2502
   93MOL   C13440798   0.362   6.403   7.239 -0.6556 -0.2623  0.3632
   93MOL   C13540799   0.273   6.333   7.341 -0.5617  0.7566  0.5246
   93MOL   C13640800   0.124   6.320   7.297 -0.1283 -0.5190  0.3982
   93MOL   C13740801   0.037   6.239   7.395 -0.0710  0.7567 -1.1443
   93MOL   C13840802   0.044   6.305   7.534  0.6582 -0.7374 -0.7007
   93MOL   C13940803   0.181   6.320   7.588 -0.6305  0.0761  0.6731
   93MOL   C14040804   0.265   6.396   7.483 -0.5311  0.2356  0.4870
   93MOL   C14140805   0.505   6.365   7.258 -0.9060  0.2939 -0.2751
   93MOL   H14240806   0.332   6.376   7.138 -1.2372  0.5914  0.3016
   93MOL   H14340807   0.313   6.233   7.361 -1.3267  0.8526  2.7356
   93MOL   H14440808   0.072   6.415   7.288  1.5583  0.2895 -1.0003
   93MOL   H14540809   0.116   6.270   7.200 -0.7562  1.1223 -0.4100
   93MOL   H14640810   0.063   6.133   7.401 -1.2489  0.4136 -1.9740
   93MOL   H14740811   7.704   6.244   7.367 -0.3637  0.9581 -0.0156
   93MOL   H14840812   0.006   6.407   7.538  1.0960 -0.4784 -2.6176
   93MOL   H14940813   7.755   6.248   7.604  1.1173 -0.6304 -0.2140
   93MOL   H15040814   0.229   6.222   7.597 -0.0945  0.2830  0.1117
   93MOL   H15140815   0.188   6.363   7.688 -2.8039 -0.0201  0.8809
   93MOL   H15240816   0.216   6.494   7.486  0.0818  0.5107  1.9344
   93MOL   H15340817   0.364   6.425   7.517  0.0823 -0.4914 -0.6211
   93MOL   H15440818   0.528   6.364   7.365 -1.8959  0.7447 -0.0452
   93MOL   H15540819   0.575   6.435   7.214 -0.2907  0.3091  0.7105
   93MOL   C15640820   0.561   6.231   7.192  0.1460 -1.1609  0.2878
   93MOL   C15740821   0.631   6.132   7.288  0.1647  0.3530 -0.1920
   93MOL   C15840822   0.748   6.192   7.366  0.4333  0.4870 -0.2768
   93MOL   C15940823   0.806   6.093   7.464 -1.1522  0.3835  0.3711
   93MOL   C16040824   0.710   6.004   7.539 -0.2802 -0.3592 -0.3091
   93MOL   C16140825   0.597   5.940   7.459 -0.2177  0.4688  0.3049
   93MOL   C16240826   0.527   6.054   7.373 -0.0490  0.0020 -0.0031
   93MOL   C16340827   0.646   6.263   7.058 -0.1909  0.7131  0.1520
   93MOL   H16440828   0.477   6.168   7.164  2.0403 -3.5979 -0.1813
   93MOL   H16540829   0.673   6.051   7.230  0.5033 -0.3403  1.0021
   93MOL   H16640830   0.822   6.239   7.300 -1.3354  0.5322 -2.2760
   93MOL   H16740831   0.710   6.275   7.426  0.1246  0.1249  0.0322
   93MOL   H16840832   0.870   6.030   7.402 -0.0235  0.7737  1.1307
   93MOL   H16940833   0.880   6.143   7.527  0.2964 -1.1904 -0.0247
   93MOL   H17040834   0.653   6.071   7.605 -0.2458 -2.0154  1.4640
   93MOL   H17140835   0.768   5.934   7.599  2.2990 -0.7221 -3.1022
   93MOL   H17240836   0.518   5.896   7.520 -1.0920 -1.5122 -2.1599
   93MOL   H17340837   0.647   5.857   7.409  2.1456  0.7298  2.1581
   93MOL   H17440838   0.450   6.006   7.314 -2.1281 -1.0292  3.3836
   93MOL   H17540839   0.485   6.127   7.442 -2.2132  0.7146 -2.0321
   93MOL   H17640840   0.718   6.181   7.049  0.5806  1.2054  1.5809
   93MOL   H17740841   0.721   6.340   7.075 -0.0810  1.0920 -1.9822
   93MOL   C17840842   0.560   6.263   6.923  0.1077 -0.5139 -0.7450
   93MOL   C17940843   0.638   6.328   6.805 -0.0244 -0.0709 -0.0871
   93MOL   C18040844   0.561   6.367   6.677 -0.3757 -0.6605  0.4618
   93MOL   C18140845   0.663   6.452   6.588 -0.3105  0.1647 -0.4702
   93MOL   C18240846   0.797   6.379   6.552  0.5229 -0.3218  0.1742
   93MOL   C18340847   0.866   6.339   6.677 -0.5864  0.6657  0.2864
   93MOL   C18440848   0.764   6.256   6.756  0.1569  0.5722 -0.3959
   93MOL   C18540849   0.505   6.121   6.898 -0.2267 -0.5603  0.4644
   93MOL   H18640850   0.465   6.313   6.937 -0.0828 -1.5674  2.3277
   93MOL   H18740851   0.677   6.420   6.850 -0.6612  0.0403  0.2458
   93MOL   H18840852   0.526   6.279   6.622 -1.9069 -0.1337  0.5824
   93MOL   H18940853   0.477   6.432   6.700 -1.5434 -1.5756 -1.0786
   93MOL   H19040854   0.699   6.525   6.660  1.2445  0.2097 -1.2713
   93MOL   H19140855   0.609   6.503   6.508 -0.7200  0.1416 -0.2119
   93MOL   H19240856   0.784   6.305   6.473  0.1498 -2.6702  2.3975
   93MOL   H19340857   0.867   6.455   6.517  0.9999 -1.8670 -2.3144
   93MOL   H19440858   0.909   6.419   6.736  2.0022  0.6012 -1.4565
   93MOL   H19540859   0.949   6.274   6.649 -0.2644  0.6800  1.1979
   93MOL   H19640860   0.743   6.173   6.689  4.7014 -2.0106  1.1720
   93MOL   H19740861   0.805   6.199   6.839 -1.9103 -1.6270 -0.8087
   93MOL   H19840862   0.549   6.080   6.808  0.9279  1.7803 -0.0594
   93MOL   H19940863   0.551   6.052   6.970  0.0555  0.8864  1.6842
   93MOL   C20040864   0.357   6.079   6.916 -0.4766  0.3154 -0.1559
   93MOL   C20140865   0.263   6.139   6.807  0.4077 -0.6512 -1.2592
   93MOL   C20240866   0.286   6.086   6.664  0.5503  0.2655 -0.1903
   93MOL   C20340867   0.208   6.183   6.564 -0.0771 -0.3299 -0.6045
   93MOL   C20440868   0.056   6.178   6.595 -0.4901 -0.0096 -0.0333
   93MOL   C20540869   0.034   6.223   6.740  0.1942 -0.3062 -0.7695
   93MOL   C20640870   0.112   6.139   6.842 -0.3071 -0.0331 -0.1887
   93MOL   C20740871   0.343   5.930   6.904 -0.5204  0.1296  0.0179
   93MOL   H20840872   0.323   6.108   7.015  1.5918  1.6889  0.1725
   93MOL   H20940873   0.286   6.246   6.815  0.9414 -0.9127  1.2371
   93MOL   H21040874   0.260   5.982   6.644  0.2599  0.1303  0.8251
   93MOL   H21140875   0.393   6.085   6.649  0.9320 -0.9030  2.3216
   93MOL   H21240876   0.252   6.283   6.559 -2.9949  1.2053  2.5753
   93MOL   H21340877   0.231   6.142   6.466 -1.4474  1.6692 -1.7925
   93MOL   H21440878   7.766   6.237   6.529 -0.1200 -1.9037 -2.1376
   93MOL   H21540879   0.036   6.073   6.573  1.8367 -0.3687 -0.5772
   93MOL   H21640880   0.068   6.325   6.755  1.5344 -0.5012 -2.3567
   93MOL   H21740881   7.699   6.223   6.762  0.5929  0.1299  1.2203
   93MOL   H21840882   0.094   6.182   6.940  3.3404  2.9586 -0.7031
   93MOL   H21940883   0.077   6.036   6.849  2.9531 -1.0893  1.8048
   93MOL   H22040884   0.245   5.901   6.867 -1.8607  1.6919  2.2582
   93MOL   H22140885   0.408   5.909   6.819 -0.8003 -1.1633  0.1213
   93MOL   C22240886   0.375   5.844   7.032 -0.3894  0.1127  0.6605
   93MOL   C22340887   0.261   5.865   7.141  0.2163  0.5354 -0.1010
   93MOL   C22440888   0.291   5.791   7.269 -0.5886 -0.3913 -0.0999
   93MOL   C22540889   0.197   5.832   7.385 -0.2090  0.1932 -0.1717
   93MOL   C22640890   0.058   5.793   7.340 -0.1845  0.3722 -0.6869
   93MOL   C22740891   0.010   5.865   7.209 -0.2257 -1.1031 -0.4342
   93MOL   C22840892   0.116   5.838   7.101 -0.1892  0.5434  0.1117
   93MOL   C22940893   0.404   5.693   6.997 -0.0212 -0.6084 -0.7309
   93MOL   H23040894   0.465   5.883   7.080 -0.0525  2.3801 -1.6881
   93MOL   H23140895   0.266   5.966   7.180  0.7693  0.4121  0.1650
   93MOL   H23240896   0.279   5.683   7.259 -1.7501 -0.3419  0.6359
   93MOL   H23340897   0.394   5.806   7.302  0.2471 -1.9936 -1.9149
   93MOL   H23440898   0.212   5.935   7.419 -0.8553  1.3069 -3.1242
   93MOL   H23540899   0.222   5.765   7.467 -0.5409 -0.2595 -0.4361
   93MOL   H23640900   0.062   5.684   7.327 -0.5713  0.0704  1.6084
   93MOL   H23740901   7.755   5.810   7.417 -1.8944  3.1371 -2.8920
   93MOL   H23840902   7.763   5.972   7.201 -3.2207 -1.6332 -0.9356
   93MOL   H23940903   7.695   5.811   7.173 -0.6025 -0.0897 -1.0654
   93MOL   H24040904   0.099   5.736   7.069 -0.4350  0.4324  0.5942
   93MOL   H24140905   0.082   5.906   7.022  0.6573  0.1322 -0.6187
   93MOL   H24240906   0.313   5.645   6.960 -0.3823  0.2648 -0.9965
   93MOL   H24340907   0.426   5.635   7.086  0.1616 -0.3524 -0.6101
   93MOL   C24440908   0.522   5.661   6.898  0.7901 -0.3494  0.2468
   93MOL   C24540909   0.642   5.755   6.923 -0.5408 -1.2554  0.5351
   93MOL   C24640910   0.759   5.752   6.814  0.3050  1.0792 -0.0160
   93MOL   C24740911   0.872   5.847   6.826  0.4105 -0.7343  0.4728
   93MOL   C24840912   0.934   5.855   6.968 -0.5169  0.1719 -0.8204
   93MOL   C24940913   0.821   5.871   7.076 -0.2937  0.9335 -0.4075
   93MOL   C25040914   0.713   5.760   7.060  0.0403  0.1343  0.6036
   93MOL   C25140915   0.493   5.647   6.742 -0.8508 -0.0265  0.4123
   93MOL   H25240916   0.555   5.562   6.929 -2.2856 -1.2633  0.8167
   93MOL   H25340917   0.600   5.855   6.916  1.6735 -0.1919  1.8571
   93MOL   H25440918   0.721   5.782   6.717  1.1177 -3.3336 -1.8334
   93MOL   H25540919   0.790   5.647   6.816 -2.6346  0.0937 -1.4048
   93MOL   H25640920   0.949   5.824   6.752  2.6121  0.6939  2.2633
   93MOL   H25740921   0.835   5.947   6.800  0.4494 -1.3663 -2.1024
   93MOL   H25840922   0.981   5.760   6.995 -1.3512  0.3588  1.4208
   93MOL   H25940923   1.018   5.923   6.979  1.0483 -1.6669 -1.0808
   93MOL   H26040924   0.778   5.971   7.069 -0.5973  0.8389  0.0972
   93MOL   H26140925   0.854   5.871   7.180  0.0940  0.3510 -0.5257
   93MOL   H26240926   0.767   5.668   7.080 -0.4129 -0.0644  0.9087
   93MOL   H26340927   0.647   5.779   7.144 -0.4207  2.8296 -0.2944
   93MOL   H26440928   0.584   5.621   6.688  1.6957  2.8802  3.1292
   93MOL   H26540929   0.461   5.744   6.705 -0.6153  0.2640  0.9663
   93MOL   C26640930   0.391   5.530   6.695 -0.5862  0.2908 -0.5076
   93MOL   C26740931   0.342   5.567   6.551 -1.0159  0.1738 -0.4213
   93MOL   C26840932   0.231   5.476   6.508  0.0138 -0.5225 -0.2845
   93MOL   C26940933   0.162   5.521   6.368  0.1067  0.8466  0.4980
   93MOL   C27040934   0.269   5.549   6.263 -0.5048  0.6347 -0.2434
   93MOL   C27140935   0.390   5.637   6.312  0.1943 -0.1373  0.0167
   93MOL   C27240936   0.453   5.574   6.435 -0.1818 -0.4996  0.1644
   93MOL   C27340937   0.457   5.388   6.703  0.4229  0.3221 -0.8908
   93MOL   H27440938   0.304   5.532   6.761  0.3824 -1.0174  0.8418
   93MOL   H27540939   0.295   5.664   6.561  0.1596  0.6418  0.7810
   93MOL   H27640940   0.268   5.376   6.488  1.4539 -0.3515  1.4474
   93MOL   H27740941   0.154   5.462   6.583  0.1393  1.9491  0.3505
   93MOL   H27840942   0.103   5.609   6.393 -0.8123  0.7034 -1.1286
   93MOL   H27940943   0.091   5.448   6.330  2.9558 -1.8294  0.1783
   93MOL   H28040944   0.319   5.461   6.223  1.7013  0.6121  2.4157
   93MOL   H28140945   0.233   5.610   6.180  0.2259  1.2117 -0.1392
   93MOL   H28240946   0.371   5.740   6.339 -0.6068 -0.3725  0.3824
   93MOL   H28340947   0.473   5.637   6.242 -0.7791  1.6085 -1.1590
   93MOL   H28440948   0.520   5.653   6.468 -2.2530  1.9397 -1.2109
   93MOL   H28540949   0.492   5.473   6.420 -1.0365 -0.7811 -0.2412
   93MOL   H28640950   0.548   5.393   6.763 -0.0137  0.8962 -0.2749
   93MOL   H28740951   0.498   5.361   6.606 -1.4466 -1.7651 -1.1456
   93MOL   C28840952   0.368   5.278   6.757  0.4965 -0.3653  0.3059
   93MOL   C28940953   0.347   5.286   6.908  0.0686 -0.1749  0.1074
   93MOL   C29040954   0.221   5.220   6.957 -0.0341 -0.2017 -0.3597
   93MOL   C29140955   0.195   5.265   7.105 -0.0342  0.3214  0.3752
   93MOL   C29240956   0.306   5.211   7.190  0.1171 -0.2138  0.6431
   93MOL   C29340957   0.450   5.263   7.142 -0.1625 -0.0312  0.6812
   93MOL   C29440958   0.469   5.240   6.994 -0.1081  0.2336 -0.1283
   93MOL   C29540959   0.423   5.139   6.712 -0.0151 -0.5974 -0.6615
   93MOL   H29640960   0.270   5.293   6.711  1.5572  1.0866 -1.5197
   93MOL   H29740961   0.340   5.392   6.931 -0.1812 -0.5303  1.7628
   93MOL   H29840962   0.153   5.261   6.882 -1.5033  1.0849  1.6080
   93MOL   H29940963   0.216   5.111   6.953 -2.8277 -0.0708 -2.6221
   93MOL   H30040964   0.198   5.373   7.113 -1.3003  0.2032  3.0450
   93MOL   H30140965   0.108   5.229   7.160 -0.4422  2.3817  1.0889
   93MOL   H30240966   0.315   5.104   7.171 -1.8250 -0.0201 -1.5595
   93MOL   H30340967   0.274   5.238   7.291 -3.4170  1.5129 -0.8685
   93MOL   H30440968   0.533   5.226   7.202  1.0600  2.6883  0.6957
   93MOL   H30540969   0.443   5.369   7.163 -0.5522  0.3224 -1.1849
   93MOL   H30640970   0.508   5.143   6.962 -0.8860 -0.1122 -0.0316
   93MOL   H30740971   0.557   5.297   6.964 -0.0747  0.5156  0.5099
   93MOL   H30840972   0.531   5.151   6.703 -0.1873  1.1521 -0.7217
   93MOL   H30940973   0.398   5.076   6.796 -1.5648  2.0054  0.9195
   93MOL   C31040974   0.357   5.097   6.579  0.1521  0.1802  0.3243
   93MOL   C31140975   0.449   5.000   6.498 -0.0586  0.1089  0.4028
   93MOL   C31240976   0.573   5.075   6.450  0.0229 -0.0756  0.5037
   93MOL   C31340977   0.662   4.972   6.365 -0.5179  0.4881 -0.6772
   93MOL   C31440978   0.700   4.854   6.436  0.4055 -0.6399  0.1911
   93MOL   C31540979   0.572   4.783   6.489  0.0704 -0.3938 -0.1258
   93MOL   C31640980   0.468   4.866   6.563 -0.5693  0.3325 -0.0735
   93MOL   C31740981   0.216   5.044   6.609  0.3819  0.1073  0.2419
   93MOL   H31840982   0.361   5.183   6.513  0.6274  0.0565  0.1934
   93MOL   H31940983   0.397   4.978   6.405  1.4528 -0.0869 -0.4165
   93MOL   H32040984   0.551   5.171   6.405 -1.2536 -1.9460 -3.0206
   93MOL   H32140985   0.630   5.100   6.540 -0.9858 -3.3716  2.1450
   93MOL   H32240986   0.756   5.016   6.334 -0.0366 -2.4635 -3.6333
   93MOL   H32340987   0.606   4.933   6.280  0.7512 -1.1749 -0.7757
   93MOL   H32440988   0.739   4.781   6.364  1.6775  1.4357 -1.2797
   93MOL   H32540989   0.765   4.882   6.519  0.2486  0.0575  0.0786
   93MOL   H32640990   0.537   4.735   6.398  1.5022 -1.5908 -0.0708
   93MOL   H32740991   0.595   4.691   6.543  1.1876 -1.0873 -1.7598
   93MOL   H32840992   0.490   4.868   6.670 -1.2912  0.9744  0.0719
   93MOL   H32940993   0.374   4.811   6.557  0.2220 -1.4301  2.7194
   93MOL   H33040994   0.190   5.069   6.712  1.8345  1.1791  0.3659
   93MOL   H33140995   0.208   4.936   6.601  1.8256  0.1049 -1.3586
   93MOL   C33240996   0.105   5.108   6.520 -0.0256  0.1719  0.3753
   93MOL   C33340997   7.769   5.184   6.604 -0.7825 -0.2415 -0.1324
   93MOL   C33440998   7.687   5.104   6.703  0.6069  0.2290 -0.0424
   93MOL   C33540999   7.599   5.193   6.786  0.0365 -0.4466  0.2526
   93MOL   C33641000   7.505   5.281   6.700  0.6921 -0.1983 -0.1430
   93MOL   C33741001   7.586   5.368   6.598  0.4578  0.3321 -0.4099
   93MOL   C33841002   7.674   5.270   6.513 -0.7557 -0.5998 -0.1295
   93MOL   C33941003   0.040   4.998   6.424  0.4771 -0.6119  0.1901
   93MOL   H34041004   0.157   5.184   6.462 -0.3943  0.0874 -0.0711
   93MOL   H34141005   0.057   5.261   6.653  0.0038 -0.1036 -1.2864
   93MOL   H34241006   7.628   5.028   6.652 -1.7817  1.8215  0.2603
   93MOL   H34341007   7.744   5.031   6.760  1.2662 -0.7940 -1.9671
   93MOL   H34441008   7.547   5.120   6.847  0.5706 -1.4498 -0.4875
   93MOL   H34541009   7.665   5.244   6.857 -0.0270 -0.4861  0.3406
   93MOL   H34641010   7.441   5.223   6.635 -0.7405 -0.8066  1.7581
   93MOL   H34741011   7.442   5.337   6.769  0.0158 -1.0733 -0.0310
   93MOL   H34841012   7.664   5.412   6.661  0.1914 -0.3049  0.3774
   93MOL   H34941013   7.525   5.433   6.536 -0.8384 -0.3747  0.0928
   93MOL   H35041014   7.735   5.314   6.434 -1.7326  1.1584  0.0715
   93MOL   H35141015   7.595   5.206   6.475 -1.8386 -1.5777  3.5176
   93MOL   H35241016   7.725   5.045   6.379  0.2203  0.5691  1.8757
   93MOL   H35341017   7.768   4.919   6.485 -2.5248  0.6271 -0.2914
   93MOL   C35441018   0.122   4.940   6.300 -0.3810  0.4176  0.7558
   93MOL   C35541019   0.184   5.047   6.203  0.2210 -0.3888 -0.2062
   93MOL   C35641020   0.079   5.136   6.135 -0.2917  0.2888 -0.3195
   93MOL   C35741021   0.153   5.239   6.056  0.3080 -0.1696 -0.9578
   93MOL   C35841022   0.244   5.181   5.956 -0.3357  0.9784 -0.1670
   93MOL   C35941023   0.356   5.093   6.018 -0.4529  0.0800 -0.4822
   93MOL   C36041024   0.299   4.987   6.115 -0.7332  0.1783 -0.3855
   93MOL   C36141025   0.033   4.831   6.227  0.0737 -0.1146 -0.0893
   93MOL   H36241026   0.201   4.890   6.356  1.2874 -0.5644 -2.3162
   93MOL   H36341027   0.224   5.123   6.269  0.9055  0.9770 -2.1634
   93MOL   H36441028   0.023   5.186   6.213  0.6653 -1.3034  1.4404
   93MOL   H36541029   0.009   5.088   6.066  0.1823  1.1703 -1.4340
   93MOL   H36641030   0.084   5.315   6.020 -0.4659 -1.4641 -2.2311
   93MOL   H36741031   0.216   5.291   6.128 -0.4971 -1.8118  0.9950
   93MOL   H36841032   0.192   5.118   5.884  3.2994 -0.1668 -1.9117
   93MOL   H36941033   0.288   5.254   5.888 -0.9479  1.4461 -0.0692
   93MOL   H37041034   0.404   5.041   5.935  0.9063 -0.0053  0.3356
   93MOL   H37141035   0.439   5.143   6.069 -2.3054  0.5133  2.2190
   93MOL   H37241036   0.366   4.925   6.174 -1.0374 -0.2111 -0.4514
   93MOL   H37341037   0.252   4.920   6.044  1.1990 -2.5334  0.8003
   93MOL   H37441038   0.051   4.842   6.120 -1.1071  1.0799 -0.1718
   93MOL   H37541039   7.699   4.853   6.233  0.3312  0.7626  1.5470
   93MOL   C37641040   0.032   4.680   6.281 -0.4721 -0.4525  0.3101
   93MOL   C37741041   7.677   4.592   6.235  0.9305 -0.4244 -0.9325
   93MOL   C37841042   7.658   4.554   6.095 -0.2905 -0.2414  0.3756
   93MOL   C37941043   7.538   4.460   6.068  0.3922  0.0780 -0.5080
   93MOL   C38041044   7.406   4.509   6.132 -0.7607  0.2959 -0.5213
   93MOL   C38141045   7.427   4.543   6.283  0.1733 -0.6951 -0.1713
   93MOL   C38241046   7.540   4.644   6.296  0.1665 -0.1199 -0.5244
   93MOL   C38341047   0.169   4.625   6.244  0.5037  0.3186 -0.4149
   93MOL   H38441048   0.025   4.688   6.390 -0.2203  1.9500  0.1830
   93MOL   H38541049   7.702   4.498   6.285  0.4198 -0.5870 -0.9766
   93MOL   H38641050   7.660   4.647   6.038  1.7891 -0.5789 -0.1647
   93MOL   H38741051   7.748   4.510   6.053 -0.6145  1.1074 -1.7917
   93MOL   H38841052   7.554   4.364   6.118 -0.6571 -0.5987 -1.4334
   93MOL   H38941053   7.524   4.440   5.962  0.1914 -0.7210 -0.3330
   93MOL   H39041054   7.378   4.604   6.087 -0.6157  1.9356  2.7175
   93MOL   H39141055   7.331   4.429   6.128  0.4052 -0.9118  1.1688
   93MOL   H39241056   7.332   4.575   6.326  0.9189  1.1048  0.1792
   93MOL   H39341057   7.449   4.446   6.329 -0.0587 -0.4649  0.4293
   93MOL   H39441058   7.515   4.736   6.242  3.3218  1.3492  0.3796
   93MOL   H39541059   7.569   4.681   6.395 -0.5782  2.0102 -1.0733
   93MOL   H39641060   0.251   4.696   6.256  1.9473 -1.5542  1.3940
   93MOL   H39741061   0.168   4.611   6.136  1.2228 -1.7030 -0.1907
   93MOL   C39841062   0.216   4.488   6.304 -0.6322  0.2979  0.3689
   93MOL   C39941063   0.315   4.404   6.212  0.2900 -0.3587 -0.4173
   93MOL   C40041064   0.240   4.333   6.092 -0.9767  0.2320 -0.0144
   93MOL   C40141065   0.337   4.243   6.008  0.3187 -0.3972 -0.4739
   93MOL   C40241066   0.462   4.334   5.967  0.1955  0.5646  0.5542
   93MOL   C40341067   0.533   4.386   6.089  0.1401  0.3898 -0.4070
   93MOL   C40441068   0.442   4.479   6.171 -0.0946 -0.2815  0.3933
   93MOL   C40541069   0.294   4.499   6.447 -0.1590 -0.3949  0.6197
   93MOL   H40641070   0.131   4.420   6.311 -0.6207 -0.0946 -2.4577
   93MOL   H40741071   0.355   4.322   6.272 -2.5241 -1.5469 -0.0934
   93MOL   H40841072   0.189   4.412   6.037 -0.4176 -0.3627 -1.4166
   93MOL   H40941073   0.148   4.276   6.109 -1.2982  0.0095 -2.3543
   93MOL   H41041074   0.289   4.192   5.924  0.3399 -1.6988  0.2963
   93MOL   H41141075   0.361   4.159   6.074  0.4239  1.4426  1.8999
   93MOL   H41241076   0.434   4.419   5.905 -0.7943  0.4021  0.7766
   93MOL   H41341077   0.525   4.269   5.906  1.1965  1.5802  0.4885
   93MOL   H41441078   0.574   4.299   6.140  0.3347  1.6825  1.7354
   93MOL   H41541079   0.614   4.451   6.057  2.0598 -1.5288  0.4814
   93MOL   H41641080   0.492   4.522   6.257  1.1431  1.2019 -1.0278
   93MOL   H41741081   0.414   4.570   6.117  0.5512 -0.5042 -0.3248
   93MOL   H41841082   0.316   4.403   6.494 -0.4790 -0.7418  0.0578
   93MOL   H41941083   0.390   4.550   6.437 -0.6435  0.6555  1.1624
   93MOL   C42041084   0.216   4.564   6.565 -0.9757  0.3135  0.0254
   93MOL   C42141085   0.294   4.585   6.689 -0.3487  0.1111 -0.8064
   93MOL   C42241086   0.324   4.455   6.764 -0.9584  0.3267  0.4658
   93MOL   C42341087   0.413   4.468   6.888 -0.4026 -0.5448 -0.0125
   93MOL   C42441088   0.368   4.568   6.982 -0.2682 -0.6951 -0.3752
   93MOL   C42541089   0.340   4.708   6.915 -0.1247  0.5599  0.8862
   93MOL   C42641090   0.243   4.691   6.793 -0.4273 -0.3736 -0.0186
   93MOL   C42741091   0.080   4.485   6.594  0.5389 -0.5938 -0.2637
   93MOL   H42841092   0.192   4.663   6.528  1.2880  0.9679  0.2304
   93MOL   H42941093   0.390   4.623   6.656 -0.5094  0.2755 -1.0805
   93MOL   H43041094   0.225   4.426   6.797 -1.4637  0.2575 -1.0646
   93MOL   H43141095   0.360   4.371   6.705  0.0864 -0.6596  2.4466
   93MOL   H43241096   0.426   4.374   6.942  0.4160  0.9709  2.5170
   93MOL   H43341097   0.516   4.488   6.859 -0.1859 -0.6551  0.6641
   93MOL   H43441098   0.437   4.599   7.060 -0.6674  0.8975 -0.6437
   93MOL   H43541099   0.276   4.536   7.032 -0.0366 -0.2543  0.3423
   93MOL   H43641100   0.439   4.749   6.895 -0.6078  0.9878 -0.7691
   93MOL   H43741101   0.298   4.774   6.991 -2.5572  1.2766 -0.9770
   93MOL   H43841102   0.149   4.659   6.839 -0.2969  1.0910  1.2963
   93MOL   H43941103   0.231   4.793   6.756  0.7748 -0.1799  0.1287
   93MOL   H44041104   0.036   4.547   6.673  1.2230  1.4754 -1.4749
   93MOL   H44141105   0.008   4.491   6.513  0.5102 -1.3872 -0.2927
   93MOL   H44241106   0.101   4.385   6.632 -0.1755  0.4971  3.2335
   94MOL     C141107   6.814   1.671   6.107  0.2174 -0.6717 -0.7589
   94MOL     C241108   6.798   1.542   6.018  0.0596  0.2971 -0.4904
   94MOL     C341109   6.666   1.473   6.057  1.0461 -0.1221 -0.3772
   94MOL     C441110   6.646   1.355   5.966 -0.1325  0.1585 -0.1903
   94MOL     C541111   6.770   1.261   5.979 -0.0851  0.5265 -0.1130
   94MOL     C641112   6.903   1.325   5.948 -1.3960 -0.2872 -0.9022
   94MOL     C741113   6.918   1.451   6.038 -0.1976  0.6040 -0.3947
   94MOL     C841114   6.701   1.776   6.109  0.1417 -0.0015  0.8942
   94MOL     H941115   6.827   1.643   6.212  2.7842 -0.3556 -0.9605
   94MOL    H1041116   6.790   1.570   5.913 -0.4133  0.9069 -0.2931
   94MOL    H1141117   6.663   1.448   6.163  0.8365  0.7201 -0.1781
   94MOL    H1241118   6.582   1.542   6.042  0.1183 -0.8314  1.4572
   94MOL    H1341119   6.626   1.396   5.867 -1.2457 -0.1167 -0.0887
   94MOL    H1441120   6.557   1.295   5.985  0.1178  0.3994  1.8195
   94MOL    H1541121   6.746   1.179   5.911  1.6106  1.0477 -1.3780
   94MOL    H1641122   6.765   1.206   6.073 -0.2954  0.5465 -0.1116
   94MOL    H1741123   6.987   1.257   5.956 -0.3064  1.0078 -1.0564
   94MOL    H1841124   6.903   1.347   5.841 -0.6779  0.5752 -0.7285
   94MOL    H1941125   7.005   1.511   6.012  0.2498  0.1782  0.1126
   94MOL    H2041126   6.928   1.423   6.143 -0.2682  0.5863 -0.3929
   94MOL    H2141127   6.608   1.729   6.140  0.2365  0.1118  1.3608
   94MOL    H2241128   6.679   1.811   6.008 -1.1371 -0.0002  1.1687
   94MOL    H2341129   6.909   1.714   6.076  1.3692 -1.1924  1.8533
   94MOL    C2441130   6.716   1.895   6.206  0.3598  0.2204  0.7538
   94MOL    C2541131   6.851   1.970   6.192 -0.2842 -0.1805 -0.1886
   94MOL    C2641132   6.886   2.077   6.300 -0.3062  0.2991  0.4340
   94MOL    C2741133   7.032   2.133   6.280 -0.0339 -0.1573  0.1854
   94MOL    C2841134   7.063   2.179   6.140  0.1662 -0.1008  0.6907
   94MOL    C2941135   7.020   2.072   6.036 -0.4700  0.4106 -0.1760
   94MOL    C3041136   6.872   2.030   6.057  0.5465 -0.1681 -0.4067
   94MOL    C3141137   6.594   2.002   6.218 -0.4156 -0.0507  0.5632
   94MOL    H3241138   6.720   1.853   6.306 -0.4566  0.7260  1.0006
   94MOL    H3341139   6.931   1.896   6.201  2.8637  3.3069  2.0793
   94MOL    H3441140   6.892   2.026   6.396  1.0725 -2.1232 -0.8778
   94MOL    H3541141   6.825   2.167   6.302 -1.0071 -0.1265 -1.2177
   94MOL    H3641142   7.062   2.219   6.340  0.7202 -1.5083  1.7564
   94MOL    H3741143   7.101   2.055   6.310 -1.3603 -1.8314 -1.0347
   94MOL    H3841144   7.169   2.177   6.115 -0.2011 -1.8500 -0.8280
   94MOL    H3941145   7.014   2.274   6.116 -0.0480 -0.2023  0.7258
   94MOL    H4041146   7.045   2.108   5.936 -2.1561 -0.4873 -0.9344
   94MOL    H4141147   7.091   1.990   6.052  1.1885  1.1226 -3.4430
   94MOL    H4241148   6.811   2.109   6.014 -1.3051 -1.9465 -1.1340
   94MOL    H4341149   6.863   1.953   5.980  3.9179 -2.2195  1.1141
   94MOL    H4441150   6.579   2.046   6.120 -1.6131 -0.6861  0.4553
   94MOL    H4541151   6.624   2.088   6.279  2.9075  0.1707 -1.2295
   94MOL    C4641152   6.457   1.947   6.272 -0.2120  0.5775 -0.2922
   94MOL    C4741153   6.356   1.899   6.163  0.2293  0.2591 -0.3522
   94MOL    C4841154   6.280   2.002   6.075 -0.9261 -0.4078 -0.8124
   94MOL    C4941155   6.197   1.937   5.965  0.9702 -0.0304  0.0281
   94MOL    C5041156   6.093   1.832   6.026 -0.8413 -0.1311  0.7343
   94MOL    C5141157   6.176   1.731   6.111 -0.2611 -0.3204  0.0328
   94MOL    C5241158   6.256   1.799   6.225 -0.0455  0.0246 -0.0422
   94MOL    C5341159   6.400   2.044   6.380  0.2951 -0.2350 -0.1029
   94MOL    H5441160   6.488   1.861   6.330  2.7273  2.3099  0.7998
   94MOL    H5541161   6.419   1.851   6.087 -0.0544  1.0953 -1.1346
   94MOL    H5641162   6.220   2.068   6.138 -1.5528 -0.8228 -0.9692
   94MOL    H5741163   6.351   2.067   6.023 -3.6417  2.1435 -1.4800
   94MOL    H5841164   6.265   1.893   5.892  0.9791 -2.6745  1.5840
   94MOL    H5941165   6.150   2.017   5.908  3.1292  0.5529 -0.9925
   94MOL    H6041166   6.015   1.879   6.086  0.6756  0.4735  2.2772
   94MOL    H6141167   6.054   1.771   5.944  0.9823  1.5204 -1.4243
   94MOL    H6241168   6.237   1.666   6.049  0.2707  1.0866 -0.9407
   94MOL    H6341169   6.098   1.674   6.162  0.5393 -1.4160  0.0653
   94MOL    H6441170   6.191   1.849   6.296 -2.3797 -0.2518 -1.9451
   94MOL    H6541171   6.307   1.718   6.278 -1.4294 -0.4580  0.5547
   94MOL    H6641172   6.292   2.042   6.388  0.1239  0.4179 -1.8871
   94MOL    H6741173   6.418   2.147   6.349 -0.5875  0.0866  0.4369
   94MOL    C6841174   6.459   2.018   6.524  0.3426  0.4907  0.9327
   94MOL    C6941175   6.477   2.140   6.612  0.0130 -0.5025 -0.5087
   94MOL    C7041176   6.595   2.231   6.568 -0.3750 -0.6902  0.7000
   94MOL    C7141177   6.621   2.334   6.679 -0.4260 -0.6201 -0.6447
   94MOL    C7241178   6.504   2.429   6.694  0.2701  0.4973 -0.2726
   94MOL    C7341179   6.373   2.350   6.721 -0.2289  0.0298  0.0539
   94MOL    C7441180   6.347   2.225   6.631 -0.3252 -0.2657 -0.5880
   94MOL    C7541181   6.383   1.909   6.599  0.4105 -0.2569 -0.3501
   94MOL    H7641182   6.560   1.981   6.508  0.6827  2.2556 -1.4399
   94MOL    H7741183   6.508   2.109   6.712 -1.1974 -2.2500 -0.6508
   94MOL    H7841184   6.567   2.287   6.478 -1.2692 -2.8739 -0.4033
   94MOL    H7941185   6.679   2.167   6.541 -0.2531 -0.2239 -0.0540
   94MOL    H8041186   6.646   2.274   6.766 -0.7953  0.0814 -0.0444
   94MOL    H8141187   6.706   2.399   6.656 -0.8000  1.3290  3.0331
   94MOL    H8241188   6.492   2.490   6.605  1.0348  0.9349 -0.0772
   94MOL    H8341189   6.524   2.491   6.782 -0.6881  0.5620 -0.0940
   94MOL    H8441190   6.289   2.419   6.711 -1.6197 -1.4666  1.0681
   94MOL    H8541191   6.370   2.311   6.823 -0.7208 -0.3195 -0.0912
   94MOL    H8641192   6.315   2.267   6.536 -1.3018  3.9149  1.4696
   94MOL    H8741193   6.267   2.166   6.677 -0.4624 -0.1933 -0.7341
   94MOL    H8841194   6.307   1.962   6.657 -0.7895  1.4429 -3.3558
   94MOL    H8941195   6.323   1.849   6.530 -1.2641  1.2249 -0.1952
   94MOL    C9041196   6.470   1.811   6.678 -0.4987 -0.2355  0.1296
   94MOL    C9141197   6.392   1.737   6.794  0.4046  0.3158  0.1517
   94MOL    C9241198   6.324   1.823   6.902  0.6998  1.0248  0.2861
   94MOL    C9341199   6.249   1.736   7.010 -0.0818  0.0879  0.9068
   94MOL    C9441200   6.140   1.653   6.939 -0.3089 -0.8037  0.0698
   94MOL    C9541201   6.205   1.563   6.834 -0.6681  0.6086  0.0991
   94MOL    C9641202   6.280   1.642   6.728  0.1584  0.8394  0.0743
   94MOL    C9741203   6.551   1.713   6.588 -0.0706  0.4855 -0.0536
   94MOL    H9841204   6.536   1.887   6.720 -0.2512  1.0422 -2.4913
   94MOL    H9941205   6.460   1.671   6.847 -1.2372  0.6315  2.7273
   94MOL   H10041206   6.244   1.881   6.857  0.3099 -0.6594 -1.1927
   94MOL   H10141207   6.383   1.901   6.951  1.4761  0.5098  0.1734
   94MOL   H10241208   6.191   1.796   7.081 -0.9191 -0.2797  0.5372
   94MOL   H10341209   6.325   1.675   7.057  0.2721  0.2071  0.4861
   94MOL   H10441210   6.050   1.701   6.899  0.1010 -0.1338 -0.0590
   94MOL   H10541211   6.084   1.593   7.011 -1.9100 -0.3003 -0.7214
   94MOL   H10641212   6.255   1.478   6.880 -2.1162 -0.4357 -0.2168
   94MOL   H10741213   6.124   1.513   6.781  1.1071  1.6018 -3.6964
   94MOL   H10841214   6.312   1.558   6.666 -0.3202  1.1116 -0.5510
   94MOL   H10941215   6.207   1.697   6.669 -1.5262 -1.4716 -0.0368
   94MOL   H11041216   6.484   1.651   6.529 -0.8598  0.6442  0.6753
   94MOL   H11141217   6.601   1.766   6.507  1.1313  0.0897  0.4115
   94MOL   C11241218   6.656   1.632   6.659 -0.1723  0.6440 -0.2264
   94MOL   C11341219   6.756   1.720   6.740 -0.4144 -0.3591 -0.6742
   94MOL   C11441220   6.837   1.827   6.664 -0.4109  0.4661 -0.2099
   94MOL   C11541221   6.934   1.910   6.751  0.0276 -0.2067 -0.6634
   94MOL   C11641222   7.022   1.834   6.844  0.1668 -0.4815 -0.2211
   94MOL   C11741223   6.945   1.718   6.918 -0.1302 -0.6210  0.2410
   94MOL   C11841224   6.858   1.637   6.828 -0.0508 -0.5455 -0.4321
   94MOL   C11941225   6.719   1.531   6.562  0.4710  0.2508  0.3260
   94MOL   H12041226   6.605   1.568   6.732 -0.3517 -0.8752 -1.6562
   94MOL   H12141227   6.692   1.765   6.817  1.4614 -0.5335  1.0331
   94MOL   H12241228   6.773   1.889   6.600  0.2748 -0.4126 -1.7846
   94MOL   H12341229   6.893   1.777   6.585 -0.4926 -1.8697  1.1742
   94MOL   H12441230   6.974   1.980   6.677 -0.5902 -0.3580 -1.1516
   94MOL   H12541231   6.867   1.972   6.811  1.4245  1.4429 -0.7741
   94MOL   H12641232   7.102   1.795   6.782  0.6466  0.1733 -0.0247
   94MOL   H12741233   7.058   1.911   6.912 -3.3683  2.6092 -1.6247
   94MOL   H12841234   7.016   1.649   6.963  1.4646  0.8198 -0.0207
   94MOL   H12941235   6.875   1.763   6.989  0.4359  1.1934 -0.3230
   94MOL   H13041236   6.811   1.556   6.882  0.6670  0.0777  1.1465
   94MOL   H13141237   6.932   1.592   6.762  0.9791  1.1421 -0.4727
   94MOL   H13241238   6.826   1.548   6.571  0.4061  0.9109 -0.1247
   94MOL   H13341239   6.693   1.554   6.459 -0.3171 -0.5894  0.3294
   94MOL   C13441240   6.681   1.384   6.589 -1.1672  0.4510  0.0528
   94MOL   C13541241   6.798   1.289   6.541  0.1564 -0.8172  0.4279
   94MOL   C13641242   6.931   1.293   6.633 -0.3464  0.3112  0.6686
   94MOL   C13741243   7.016   1.169   6.600  0.0943  0.0075  0.2870
   94MOL   C13841244   7.044   1.183   6.448  0.3581  0.3605  0.0482
   94MOL   C13941245   6.922   1.161   6.359  0.3768  0.3450 -0.1333
   94MOL   C14041246   6.828   1.279   6.384 -0.1403  0.3594  0.8005
   94MOL   C14141247   6.551   1.345   6.530  0.1365 -0.1770  0.1011
   94MOL   H14241248   6.676   1.371   6.697 -1.6967 -0.1800 -0.0450
   94MOL   H14341249   6.755   1.190   6.553  0.7387 -1.0874  0.3368
   94MOL   H14441250   6.994   1.378   6.606 -0.9414 -0.1076 -2.1396
   94MOL   H14541251   6.907   1.302   6.739  0.6578 -0.8961  1.0090
   94MOL   H14641252   6.963   1.079   6.631 -1.6257  0.8237 -0.2023
   94MOL   H14741253   7.113   1.170   6.650  0.8508  1.8995 -1.1298
   94MOL   H14841254   7.087   1.275   6.409 -0.2338  0.4319 -0.4357
   94MOL   H14941255   7.129   1.117   6.429  0.0871 -0.3662  1.2954
   94MOL   H15041256   6.874   1.064   6.376 -0.0728  0.6452  0.3399
   94MOL   H15141257   6.948   1.177   6.255 -1.1719 -1.2541 -0.7994
   94MOL   H15241258   6.882   1.368   6.350  1.2166 -0.9417 -0.5417
   94MOL   H15341259   6.742   1.256   6.321 -0.2022  4.4071 -0.7434
   94MOL   H15441260   6.568   1.335   6.423  0.8146  0.8579  0.1042
   94MOL   H15541261   6.479   1.423   6.555  1.0715  0.5405  0.5929
   94MOL   C15641262   6.467   1.217   6.577  0.1946 -0.6522 -0.3165
   94MOL   C15741263   6.338   1.215   6.490  0.2763  0.6661  0.3626
   94MOL   C15841264   6.269   1.076   6.501  0.4486  0.1968  0.3812
   94MOL   C15941265   6.129   1.070   6.431  0.1135 -0.1606 -0.0244
   94MOL   C16041266   6.047   1.194   6.463  0.2631  1.0187 -0.5559
   94MOL   C16141267   6.123   1.320   6.423  0.7820  0.1401  0.1459
   94MOL   C16241268   6.244   1.333   6.509  0.2862 -0.4155 -0.3569
   94MOL   C16341269   6.428   1.220   6.727  0.1081  0.6491 -0.1818
   94MOL   H16441270   6.535   1.137   6.547 -0.5932 -1.2098 -0.6091
   94MOL   H16541271   6.375   1.209   6.388  1.7830 -4.4362  1.0477
   94MOL   H16641272   6.335   1.003   6.453 -0.6784 -2.4053  2.6347
   94MOL   H16741273   6.259   1.059   6.608  0.9816 -1.5337  0.1758
   94MOL   H16841274   6.147   1.063   6.324 -1.6951  0.9403 -0.4165
   94MOL   H16941275   6.079   0.976   6.455  0.7839 -0.0960  1.7330
   94MOL   H17041276   6.007   1.197   6.564 -1.2531  0.1512 -1.1071
   94MOL   H17141277   5.958   1.189   6.400 -0.4269 -0.3648  0.5205
   94MOL   H17241278   6.061   1.409   6.434  0.0459 -0.2444 -0.7754
   94MOL   H17341279   6.154   1.337   6.320  1.6520  1.6530  0.6514
   94MOL   H17441280   6.289   1.429   6.481  0.4262 -0.7253 -1.2286
   94MOL   H17541281   6.210   1.327   6.612 -0.1394  1.1708 -0.3911
   94MOL   H17641282   6.332   1.181   6.761  1.1715  0.8380  3.2368
   94MOL   H17741283   6.419   1.325   6.754 -0.0846  0.0732  2.0802
   94MOL   C17841284   6.530   1.150   6.818 -0.7940 -0.3446 -0.0134
   94MOL   C17941285   6.525   1.202   6.961  0.0271  0.0617 -0.2754
   94MOL   C18041286   6.397   1.160   7.037  0.7072 -0.5536 -0.6784
   94MOL   C18141287   6.424   1.177   7.187 -0.2603 -0.7066  0.2150
   94MOL   C18241288   6.451   1.326   7.224 -0.0870 -0.6768  0.3587
   94MOL   C18341289   6.564   1.381   7.138 -0.0384 -0.8006  0.1283
   94MOL   C18441290   6.556   1.357   6.983 -0.1356  0.7652  0.4367
   94MOL   C18541291   6.513   0.994   6.802  0.3171 -0.5596 -0.9054
   94MOL   H18641292   6.630   1.177   6.784 -1.2241 -0.5941 -1.4907
   94MOL   H18741293   6.603   1.146   7.012  0.9112  0.9911 -0.5749
   94MOL   H18841294   6.301   1.205   7.009 -0.3867 -0.4114  3.0159
   94MOL   H18941295   6.381   1.052   7.028 -0.8755 -0.4123  0.1522
   94MOL   H19041296   6.508   1.113   7.217 -0.1642 -0.1068  1.2462
   94MOL   H19141297   6.342   1.138   7.247  0.9466 -2.2234  0.9265
   94MOL   H19241298   6.363   1.386   7.201  0.0900 -0.6146 -0.1773
   94MOL   H19341299   6.477   1.335   7.329  1.2072  0.2757 -0.0225
   94MOL   H19441300   6.657   1.335   7.171  0.7656  0.0339 -0.9250
   94MOL   H19541301   6.590   1.484   7.163  1.3443 -1.0629 -0.1915
   94MOL   H19641302   6.477   1.422   6.945 -1.1376  1.2791  3.2605
   94MOL   H19741303   6.656   1.370   6.942 -0.4462 -2.2779 -1.4296
   94MOL   H19841304   6.407   0.969   6.815  0.0588  0.3564 -1.1677
   94MOL   H19941305   6.536   0.980   6.696  0.4761  2.7264 -1.3772
   94MOL   C20041306   6.600   0.900   6.886  0.0636  0.8978  0.4906
   94MOL   C20141307   6.559   0.750   6.869 -0.3078 -0.7344 -0.2465
   94MOL   C20241308   6.419   0.708   6.926 -0.3742  0.2677  0.0349
   94MOL   C20341309   6.389   0.565   6.905 -0.2164  0.1024  0.0273
   94MOL   C20441310   6.402   0.526   6.756  0.5963  0.1243  0.1097
   94MOL   C20541311   6.540   0.554   6.706  0.2039  0.0059  0.2078
   94MOL   C20641312   6.571   0.704   6.718 -0.7328 -0.5846  0.3305
   94MOL   C20741313   6.754   0.917   6.855  0.2789 -0.6260  0.0948
   94MOL   H20841314   6.580   0.936   6.987  0.3502  0.4251  0.7207
   94MOL   H20941315   6.636   0.697   6.925  0.4837  0.5236 -0.1044
   94MOL   H21041316   6.334   0.764   6.887 -1.0868 -0.0487  1.0945
   94MOL   H21141317   6.407   0.741   7.030  1.9720 -0.9362  0.7341
   94MOL   H21241318   6.453   0.508   6.973  1.2295  0.6546 -0.8543
   94MOL   H21341319   6.288   0.552   6.944  0.3644  1.1122  1.9112
   94MOL   H21441320   6.378   0.422   6.733 -0.4232  0.0297  1.5247
   94MOL   H21541321   6.327   0.580   6.698  1.0793 -0.2012 -0.8326
   94MOL   H21641322   6.603   0.485   6.761  1.3192  1.1022  0.3289
   94MOL   H21741323   6.554   0.531   6.600 -0.3470  2.0197 -0.3351
   94MOL   H21841324   6.674   0.717   6.685 -1.0849  1.9605  0.1233
   94MOL   H21941325   6.506   0.765   6.655  0.0499 -3.1594 -3.1369
   94MOL   H22041326   6.777   0.906   6.749 -2.2579  0.0903 -0.5745
   94MOL   H22141327   6.774   1.024   6.862  1.7485 -0.8702 -0.1582
   94MOL   C22241328   6.857   0.859   6.949 -0.5111  0.5530  0.2969
   94MOL   C22341329   6.997   0.844   6.883 -0.9782  0.9714  0.0231
   94MOL   C22441330   6.995   0.731   6.780  0.2585  0.6339  0.3826
   94MOL   C22541331   7.129   0.704   6.716  0.0386  0.1884  0.1823
   94MOL   C22641332   7.236   0.680   6.812 -0.2403 -0.1991 -0.8899
   94MOL   C22741333   7.254   0.804   6.901  0.1676  0.4045 -0.0794
   94MOL   C22841334   7.120   0.822   6.975  0.1675 -0.0322  0.0627
   94MOL   C22941335   6.856   0.935   7.083 -0.7006  0.3907  0.0484
   94MOL   H23041336   6.824   0.761   6.984  0.5412  0.4805  1.1278
   94MOL   H23141337   7.012   0.939   6.831 -0.0676  1.1636  0.6262
   94MOL   H23241338   6.954   0.644   6.830  0.9808  0.8070  1.2961
   94MOL   H23341339   6.932   0.764   6.698  0.7067 -2.1992 -1.1630
   94MOL   H23441340   7.151   0.788   6.650  0.6925 -0.9589 -1.0955
   94MOL   H23541341   7.121   0.619   6.648  1.6091  0.2956 -0.1392
   94MOL   H23641342   7.212   0.590   6.869  1.7457 -0.3559 -0.2478
   94MOL   H23741343   7.325   0.670   6.750  1.4245  0.6709  1.2677
   94MOL   H23841344   7.266   0.894   6.841  4.4656  0.1948  0.3191
   94MOL   H23941345   7.329   0.803   6.980  0.0324  0.3141  0.0485
   94MOL   H24041346   7.112   0.741   7.047 -0.9888  0.7692  0.8739
   94MOL   H24141347   7.120   0.910   7.041 -0.6193 -0.4289  0.6003
   94MOL   H24241348   6.754   0.973   7.092 -1.3063 -1.1117 -0.3842
   94MOL   H24341349   6.923   1.020   7.063  0.0484 -0.2732 -0.3036
   94MOL   C24441350   6.888   0.858   7.218  0.0338  0.2245  0.1842
   94MOL   C24541351   6.787   0.739   7.249 -0.4411  0.2667 -0.6322
   94MOL   C24641352   6.642   0.786   7.281  0.0396  0.0546  0.7066
   94MOL   C24741353   6.548   0.667   7.282  0.7285  0.1848  0.0228
   94MOL   C24841354   6.590   0.562   7.389  0.6642 -0.5072  0.3245
   94MOL   C24941355   6.742   0.526   7.374  0.5038  0.2851  0.5645
   94MOL   C25041356   6.830   0.648   7.363  0.6624  0.7720  0.2141
   94MOL   C25141357   6.874   0.963   7.332  0.9362 -0.3242  0.2508
   94MOL   H25241358   6.992   0.828   7.227 -0.7483 -2.9251 -0.7302
   94MOL   H25341359   6.775   0.670   7.166 -1.8952 -0.0227 -0.2108
   94MOL   H25441360   6.611   0.853   7.201 -0.9227  0.0656  1.0788
   94MOL   H25541361   6.634   0.835   7.378  2.4605  1.4089  0.2410
   94MOL   H25641362   6.446   0.691   7.311  0.4442 -0.3335 -0.5216
   94MOL   H25741363   6.544   0.617   7.185  0.1174 -0.7972  0.5450
   94MOL   H25841364   6.563   0.614   7.482 -3.2897  1.4095 -1.7818
   94MOL   H25941365   6.531   0.473   7.369  0.7321 -0.9061  1.8244
   94MOL   H26041366   6.755   0.467   7.283 -1.1203 -0.6224  0.8965
   94MOL   H26141367   6.758   0.465   7.464 -0.9175  0.4231  0.9263
   94MOL   H26241368   6.826   0.703   7.457 -0.0558  2.9791 -1.0528
   94MOL   H26341369   6.932   0.620   7.334  0.7258  0.7760  0.4394
   94MOL   H26441370   6.844   0.910   7.422  2.2599 -0.3602  0.6883
   94MOL   H26541371   6.791   1.032   7.318 -0.5600 -1.6848  2.2193
   94MOL   C26641372   6.998   1.043   7.381  0.2171  0.1614 -0.1319
   94MOL   C26741373   7.007   1.181   7.310  0.7272  0.2615 -0.0442
   94MOL   C26841374   7.154   1.237   7.322 -0.3623 -0.8703  0.1894
   94MOL   C26941375   7.175   1.364   7.244  0.0615 -0.2144 -0.4733
   94MOL   C27041376   7.065   1.469   7.276 -0.5036 -0.1622  0.1461
   94MOL   C27141377   6.918   1.415   7.270  0.8077  0.7053 -0.6597
   94MOL   C27241378   6.910   1.297   7.361  0.2171  0.0582 -0.2267
   94MOL   C27341379   6.997   1.066   7.539  0.1362  0.5345 -0.3489
   94MOL   H27441380   7.091   0.992   7.356 -0.2529 -0.3284 -0.8998
   94MOL   H27541381   6.987   1.153   7.207  0.6636  0.5022 -0.0976
   94MOL   H27641382   7.179   1.254   7.426 -0.3017  1.6265 -0.2149
   94MOL   H27741383   7.222   1.156   7.295 -0.4091 -0.4920 -1.1321
   94MOL   H27841384   7.183   1.358   7.136  0.0600 -1.3961 -0.4091
   94MOL   H27941385   7.269   1.416   7.266  0.0483  1.4998 -4.1608
   94MOL   H28041386   7.086   1.513   7.373  0.8582  0.9834 -0.6454
   94MOL   H28141387   7.075   1.547   7.200  0.0125 -2.0874 -1.8267
   94MOL   H28241388   6.881   1.386   7.172 -1.1191  0.6875  0.0478
   94MOL   H28341389   6.850   1.495   7.298 -0.3811 -0.5885  0.2008
   94MOL   H28441390   6.808   1.258   7.366  0.2344  0.1601  1.0143
   94MOL   H28541391   6.938   1.320   7.464 -0.4408 -0.1676  0.0126
   94MOL   H28641392   6.897   1.102   7.563 -0.2164  0.2629 -1.3880
   94MOL   H28741393   7.056   1.143   7.588  1.8404 -0.8688 -0.1436
   94MOL   C28841394   7.046   0.946   7.623 -1.0723 -0.5462  0.3081
   94MOL   C28941395   6.978   0.950   7.765 -0.6529 -0.0698 -0.1700
   94MOL   C29041396   7.020   1.079   0.068 -0.8935 -0.1135 -0.0075
   94MOL   C29141397   6.970   1.079   0.212 -0.6314  0.0046  0.4521
   94MOL   C29241398   6.824   1.042   0.228 -0.1936 -0.9841 -0.1343
   94MOL   C29341399   6.779   0.917   0.156  0.8118 -0.5458  0.7627
   94MOL   C29441400   6.829   0.923   0.009  0.2644  0.4243  1.0162
   94MOL   C29541401   7.201   0.931   7.613 -0.9321 -0.2096 -0.4866
   94MOL   H29641402   7.008   0.854   7.580  1.2372 -1.1985 -0.3954
   94MOL   H29741403   7.023   0.874   0.056 -0.6466  1.9257  2.3282
   94MOL   H29841404   7.128   1.094   0.062 -1.1522  0.6142 -3.5444
   94MOL   H29941405   6.984   1.167   0.015  0.9868 -0.8298 -2.6020
   94MOL   H30041406   7.021   0.999   0.267  1.3502  0.3627 -0.8166
   94MOL   H30141407   6.989   1.178   0.252 -2.2156 -0.2886  1.9887
   94MOL   H30241408   6.769   1.131   0.197  2.2714 -0.0847 -2.0681
   94MOL   H30341409   6.811   1.029   0.336  1.5649 -0.6051  0.1385
   94MOL   H30441410   6.670   0.906   0.160  0.7225  0.8671  2.5469
   94MOL   H30541411   6.822   0.823   0.190  1.1158 -0.5573  0.3593
   94MOL   H30641412   6.779   1.010   7.737 -0.0673 -0.3928 -0.2441
   94MOL   H30741413   6.793   0.833   7.732  0.9133  1.3699 -1.2964
   94MOL   H30841414   7.218   0.907   7.508  1.2566  0.0807 -0.2224
   94MOL   H30941415   7.266   1.019   7.620 -0.2506 -0.8462  1.7205
   94MOL   C31041416   7.265   0.824   7.705  0.1409 -0.2883  1.1518
   94MOL   C31141417   7.195   0.688   7.697 -0.6948  0.0860  0.2287
   94MOL   C31241418   7.201   0.618   7.559  0.2811  0.2663 -0.5977
   94MOL   C31341419   7.112   0.494   7.559 -0.0593  0.6320 -0.8046
   94MOL   C31441420   7.142   0.399   7.679 -0.2666  0.7944 -0.1938
   94MOL   C31541421   7.133   0.482   0.036 -0.1485 -0.4547 -0.0662
   94MOL   C31641422   7.232   0.594   0.038  0.8808 -0.2782 -0.7400
   94MOL   C31741423   7.414   0.819   7.668  0.4317 -0.0154  0.4140
   94MOL   H31841424   7.256   0.855   0.037  0.0195  1.8536  0.5302
   94MOL   H31941425   7.088   0.703   7.713 -1.1211 -0.8166 -1.6037
   94MOL   H32041426   7.163   0.688   7.484 -0.4629  2.3540  1.6426
   94MOL   H32141427   7.304   0.589   7.537 -0.0490  0.5674 -2.5827
   94MOL   H32241428   7.104   0.451   7.459  4.3803 -0.9909 -0.5679
   94MOL   H32341429   7.014   0.537   7.580  0.5230  2.6084 -2.0334
   94MOL   H32441430   7.067   0.321   7.688  1.1149 -0.1472  4.3330
   94MOL   H32541431   7.242   0.358   7.669  0.3679  1.5499  2.5074
   94MOL   H32641432   7.033   0.523   0.049  0.7881  1.8410  0.1482
   94MOL   H32741433   7.164   0.415   0.117  0.3995 -0.5916 -0.3879
   94MOL   H32841434   7.332   0.554   0.019  0.7879 -0.0505 -1.7610
   94MOL   H32941435   7.239   0.640   0.137  3.1272 -2.6376  0.2445
   94MOL   H33041436   7.405   0.828   7.560 -2.8314  4.6516  0.9302
   94MOL   H33141437   7.451   0.720   7.692 -0.0810  0.5027  3.4797
   94MOL   C33241438   7.496   0.945   7.723  0.1298  0.6576 -0.2940
   94MOL   C33341439   7.612   0.989   7.629 -0.3206  0.4180  0.2839
   94MOL   C33441440   7.568   1.090   7.524  0.2260 -0.1652  0.4774
   94MOL   C33541441   7.689   1.150   7.458 -0.4413 -0.1902 -0.5015
   94MOL   C33641442   0.017   1.049   7.398  0.2691  0.5374 -0.2658
   94MOL   C33741443   0.052   0.929   7.489 -0.5835  0.2466 -0.5062
   94MOL   C33841444   7.688   0.876   7.556  0.4092 -0.2273 -0.2060
   94MOL   C33941445   7.534   0.925   0.102 -1.1753 -0.5864 -0.5819
   94MOL   H34041446   7.437   1.037   7.719 -0.1664  0.7640  3.9772
   94MOL   H34141447   7.687   1.029   7.697 -0.5947 -0.5396  1.1535
   94MOL   H34241448   7.503   1.038   7.453 -0.8434  0.3293  1.0900
   94MOL   H34341449   7.507   1.174   7.557 -0.8101 -0.4494 -0.6483
   94MOL   H34441450   7.652   1.225   7.388 -1.6441  0.4430  0.7916
   94MOL   H34541451   7.746   1.207   7.532  0.2156 -2.0991  0.5040
   94MOL   H34641452   7.759   1.007   7.302 -1.5411 -0.2215  0.6163
   94MOL   H34741453   0.103   1.110   7.370  1.6385 -1.0955  0.3054
   94MOL   H34841454   0.106   0.972   7.573 -1.7518 -0.1521  0.4741
   94MOL   H34941455   0.109   0.854   7.435  1.2232  2.2367 -1.4058
   94MOL   H35041456   7.710   0.798   7.629 -0.4302  1.8218  2.2813
   94MOL   H35141457   7.628   0.831   7.477 -1.5672  0.7256  0.7368
   94MOL   H35241458   7.611   0.847   0.105  0.9379  1.4910  1.6836
   94MOL   H35341459   7.449   0.886   0.157 -1.1564  1.2164  0.7648
   94MOL   C35441460   7.582   1.046   0.186 -0.3892  0.3745  0.0043
   94MOL   C35541461   7.630   0.997   0.327  0.5239 -0.3775  0.2268
   94MOL   C35641462   0.001   0.934   0.322 -0.0008 -0.6226 -0.8945
   94MOL   C35741463   0.057   0.920   0.460 -1.2189  0.2400 -0.4046
   94MOL   C35841464   7.737   0.843   0.555  0.3240  0.0478 -0.0560
   94MOL   C35941465   7.587   0.884   0.546  0.0248  0.0811  0.1388
   94MOL   C36041466   7.540   0.903   0.405 -0.5140  0.1164 -0.1628
   94MOL   C36141467   7.487   1.171   0.194  0.0854 -1.0315 -0.3768
   94MOL   H36241468   7.675   1.081   0.139  0.2605 -0.6849  0.4765
   94MOL   H36341469   7.639   1.084   0.392  0.6122 -0.0045 -0.2809
   94MOL   H36441470   0.070   0.982   0.253  1.3697 -0.6919  0.4073
   94MOL   H36541471   7.765   0.833   0.282 -1.6198 -0.1551 -1.7907
   94MOL   H36641472   0.159   0.883   0.464 -1.3247 -0.3409 -2.6457
   94MOL   H36741473   0.074   1.021   0.496 -0.0458 -0.0804 -0.0577
   94MOL   H36841474   7.742   0.737   0.532  1.1042  0.2018 -0.5801
   94MOL   H36941475   7.771   0.858   0.658  1.5359  0.1313 -0.4649
   94MOL   H37041476   7.526   0.816   0.606  0.8828  0.8595  1.9283
   94MOL   H37141477   7.564   0.975   0.603 -0.1187 -0.3149  0.7197
   94MOL   H37241478   7.435   0.932   0.413 -0.6953 -0.7540  0.8838
   94MOL   H37341479   7.542   0.809   0.351  0.0003  0.4096 -0.6546
   94MOL   H37441480   7.463   1.196   0.297  2.2707 -0.2163 -0.0311
   94MOL   H37541481   7.388   1.143   0.158 -0.3052  0.9807 -0.9295
   94MOL   C37641482   7.539   1.301   0.118 -0.7381 -0.6932  0.0691
   94MOL   C37741483   7.425   1.347   0.024 -0.7111  0.5960  0.7143
   94MOL   C37841484   7.481   1.435   7.681  0.0636 -0.3030  0.4854
   94MOL   C37941485   7.368   1.465   7.578 -0.2941 -0.1679 -0.0219
   94MOL   C38041486   7.252   1.528   7.649 -0.6229 -0.2605 -0.2356
   94MOL   C38141487   7.193   1.445   7.759  0.0436 -0.4239  0.2577
   94MOL   C38241488   7.298   1.406   0.093  0.4226 -0.2238 -0.7597
   94MOL   C38341489   7.569   1.422   0.216 -0.1622  0.4112 -0.3664
   94MOL   H38441490   7.625   1.272   0.057  0.3799  0.8867  0.8491
   94MOL   H38541491   7.392   1.257   7.744  0.4960  0.6293 -0.1239
   94MOL   H38641492   7.525   1.531   7.707  0.4469  0.2936 -2.2745
   94MOL   H38741493   7.559   1.379   7.629 -1.0364  0.9861 -2.6484
   94MOL   H38841494   7.340   1.374   7.525 -0.0058  0.4891 -1.3157
   94MOL   H38941495   7.405   1.528   7.497 -2.0345  0.2205 -0.5158
   94MOL   H39041496   7.303   1.616   7.687 -2.5626  0.2371  1.2915
   94MOL   H39141497   7.183   1.562   7.572 -1.5668 -2.8922 -0.6066
   94MOL   H39241498   7.112   1.503   0.032 -1.6042 -1.2691 -1.5726
   94MOL   H39341499   7.161   1.349   7.719 -1.9536  1.0543 -1.7537
   94MOL   H39441500   7.321   1.499   0.147 -1.7992  0.1432 -0.4079
   94MOL   H39541501   7.266   1.342   0.175  1.4177  0.5040  0.2083
   94MOL   H39641502   7.498   1.445   0.295 -0.0947 -0.2974 -0.0908
   94MOL   H39741503   7.572   1.519   0.168  1.2894  0.3250 -0.4739
   94MOL   C39841504   7.706   1.413   0.276 -0.1854 -0.3228  0.2474
   94MOL   C39941505   0.038   1.478   0.180 -0.0848  0.7967  0.3916
   94MOL   C40041506   0.030   1.632   0.168  0.3184 -0.2518 -1.0398
   94MOL   C40141507   0.145   1.686   0.086  0.1677 -0.8016  0.1364
   94MOL   C40241508   0.278   1.644   0.131 -0.3975 -0.1130 -0.5933
   94MOL   C40341509   0.285   1.490   0.106  0.1806 -0.4764  0.1240
   94MOL   C40441510   0.177   1.419   0.195  0.4993 -0.2412  0.7699
   94MOL   C40541511   7.701   1.480   0.417  0.0243  0.1345  0.2286
   94MOL   H40641512   7.721   1.305   0.280  1.8207 -0.0411  0.8614
   94MOL   H40741513   0.002   1.451   0.080  0.0869  0.6567  0.3679
   94MOL   H40841514   0.055   1.670   0.267  0.3506 -1.7665 -0.4504
   94MOL   H40941515   7.709   1.684   0.148 -0.2536 -0.1043  1.7460
   94MOL   H41041516   0.127   1.794   0.080 -2.4333 -1.2992 -1.9900
   94MOL   H41141517   0.130   1.652   7.756  2.8649  1.7038 -1.1516
   94MOL   H41241518   0.284   1.673   0.236 -1.9353 -1.0962 -0.2107
   94MOL   H41341519   0.353   1.700   0.075 -0.3311  0.1325 -0.2576
   94MOL   H41441520   0.270   1.473   0.000  0.0593 -2.5817  0.4694
   94MOL   H41541521   0.385   1.461   0.140 -0.5573 -1.0605  1.8515
   94MOL   H41641522   0.170   1.311   0.205 -0.3741 -0.2895 -0.2833
   94MOL   H41741523   0.199   1.450   0.298  1.3998  1.9840 -0.0745
   94MOL   H41841524   0.031   1.506   0.443 -0.3916  1.6729  0.3908
   94MOL   H41941525   7.655   1.579   0.423  1.1602  0.7661 -1.1561
   94MOL   C42041526   7.650   1.386   0.516  1.0241  0.3430 -0.0627
   94MOL   C42141527   7.578   1.454   0.642  0.0016 -0.3679  1.1341
   94MOL   C42241528   7.596   1.386   0.782  0.2737 -0.4777  0.0054
   94MOL   C42341529   7.498   1.454   0.883 -0.2229 -0.2500  0.3936
   94MOL   C42441530   7.351   1.457   0.847  0.2785 -0.5529 -0.1475
   94MOL   C42541531   7.339   1.531   0.717  0.2161  0.0021  0.0964
   94MOL   C42641532   7.428   1.474   0.600 -0.1815  0.6894  0.1006
   94MOL   C42741533   7.758   1.299   0.561 -0.1859 -1.0744 -0.4807
   94MOL   H42841534   7.575   1.327   0.463  1.3836 -0.4687  0.3182
   94MOL   H42941535   7.613   1.557   0.650 -0.2013 -0.1810 -0.4161
   94MOL   H43041536   7.583   1.278   0.782 -2.5111 -0.2154  2.2393
   94MOL   H43141537   7.699   1.407   0.811 -0.0656 -1.3766  1.9530
   94MOL   H43241538   7.504   1.412   0.983  0.8339 -0.4741  0.2435
   94MOL   H43341539   7.532   1.557   0.879  0.9844 -0.7013 -2.3153
   94MOL   H43441540   7.290   1.500   0.927 -0.3566 -0.0251 -0.9129
   94MOL   H43541541   7.320   1.354   0.834 -1.2191 -0.0280 -0.8173
   94MOL   H43641542   7.360   1.636   0.736 -0.6402 -0.0253  1.2537
   94MOL   H43741543   7.236   1.521   0.683  0.4202  1.3830 -0.9744
   94MOL   H43841544   7.382   1.379   0.574 -1.4419  2.3748 -4.2089
   94MOL   H43941545   7.421   1.533   0.510 -0.6993  0.5983  0.0826
   94MOL   H44041546   7.722   1.206   0.605  0.7182 -2.1694 -2.0169
   94MOL   H44141547   0.048   1.268   0.477  0.4741 -0.3754 -0.2541
   94MOL   H44241548   0.053   1.354   0.627 -0.9267  0.8002 -1.2722
   95MOL     C141549   3.331   6.664   7.527  0.4681  0.0633 -0.7888
   95MOL     C241550   3.349   6.800   7.594  0.5157  0.0603 -0.1147
   95MOL     C341551   3.375   6.799   7.741 -0.2482  0.6748  0.0892
   95MOL     C441552   3.399   6.937   0.011  0.1484  0.7303  0.2069
   95MOL     C541553   3.271   7.021   7.761 -0.3220 -0.0308  0.5298
   95MOL     C641554   3.230   7.030   7.616  0.5279 -0.5200  0.0877
   95MOL     C741555   3.227   6.892   7.555  1.1073  0.4462 -0.2343
   95MOL     C841556   3.459   6.574   7.536  0.3040 -0.4351 -0.0397
   95MOL     H941557   3.248   6.616   7.579  0.8045 -2.2173 -2.2716
   95MOL    H1041558   3.436   6.848   7.549  1.2557 -1.3411 -0.2118
   95MOL    H1141559   3.309   6.734   0.026  0.1828 -1.8272 -2.2055
   95MOL    H1241560   3.473   6.751   7.742  0.2336  1.6366 -0.2263
   95MOL    H1341561   3.480   6.983   7.727 -0.5499  0.1914 -1.2561
   95MOL    H1441562   3.416   6.951   0.118 -0.1267  1.0661  0.2107
   95MOL    H1541563   3.294   7.117   0.035  2.0091 -0.3581  0.1289
   95MOL    H1641564   3.188   6.974   0.041 -1.7761 -0.7167 -2.3094
   95MOL    H1741565   3.139   7.084   7.591  0.8510  0.5036  1.0985
   95MOL    H1841566   3.302   7.099   7.573 -0.8451  0.5538 -0.5138
   95MOL    H1941567   3.217   6.889   7.446 -1.6457  0.3731 -0.0284
   95MOL    H2041568   3.136   6.849   7.597  2.7697 -2.0187  0.9888
   95MOL    H2141569   3.477   6.533   7.636  0.5709  0.3026  0.2139
   95MOL    H2241570   3.541   6.642   7.514 -1.3115  1.2811 -0.8282
   95MOL    H2341571   3.301   6.669   7.422  0.6419  1.7033 -0.7708
   95MOL    C2441572   3.462   6.445   7.439 -0.3909 -0.0942  0.6748
   95MOL    C2541573   3.596   6.387   7.422 -0.1362  0.3149 -0.0179
   95MOL    C2641574   3.673   6.359   7.549 -0.2383  0.1678 -0.1212
   95MOL    C2741575   3.825   6.321   7.527 -0.0521  0.1163  0.7492
   95MOL    C2841576   3.895   6.429   7.444  0.0378 -0.2461  0.2014
   95MOL    C2941577   3.824   6.450   7.303 -0.0258  0.1566  0.0259
   95MOL    C3041578   3.678   6.479   7.321  0.3339 -0.2441  0.6820
   95MOL    C3141579   3.352   6.342   7.480 -0.3296 -0.0620  0.4908
   95MOL    H3241580   3.432   6.469   7.337  2.2104 -2.1116 -0.6403
   95MOL    H3341581   3.586   6.293   7.367 -1.2399  0.3988  0.0295
   95MOL    H3441582   3.621   6.279   7.602  0.5308 -1.8403 -2.3409
   95MOL    H3541583   3.683   6.445   7.616 -1.8969 -0.9032  1.5511
   95MOL    H3641584   3.867   6.304   7.627 -0.8604  0.6533  1.1855
   95MOL    H3741585   3.832   6.224   7.477 -0.7172  1.1121 -1.2853
   95MOL    H3841586   3.996   6.392   7.428 -0.1891 -0.8847  0.2455
   95MOL    H3941587   3.902   6.522   7.501  1.5950  1.0461 -2.0419
   95MOL    H4041588   3.876   6.532   7.255 -1.5071  0.8103 -0.5073
   95MOL    H4141589   3.840   6.357   7.248  1.4954 -0.8316  2.0776
   95MOL    H4241590   3.670   6.585   7.346  1.0349 -0.5210  2.1173
   95MOL    H4341591   3.630   6.474   7.223  0.2470  0.8972  0.6618
   95MOL    H4441592   3.262   6.397   7.507 -1.5482 -1.1375 -1.2815
   95MOL    H4541593   3.381   6.291   7.572  1.5206  0.2790  0.1103
   95MOL    C4641594   3.301   6.239   7.386  0.2382  0.1260  0.2820
   95MOL    C4741595   3.273   6.276   7.236  0.1306  0.6658 -0.4377
   95MOL    C4841596   3.164   6.386   7.236 -0.5125 -0.2119  0.3010
   95MOL    C4941597   3.137   6.428   7.093 -0.0584  0.1115  0.1443
   95MOL    C5041598   3.103   6.317   6.989  0.1625  0.2631 -0.3877
   95MOL    C5141599   3.212   6.210   6.991 -0.3180 -0.0375 -0.1183
   95MOL    C5241600   3.238   6.158   7.142 -0.3189 -0.2584 -0.3802
   95MOL    C5341601   3.176   6.167   7.453 -0.1836  0.5388 -0.3064
   95MOL    H5441602   3.380   6.166   7.371 -0.5837 -0.6938 -0.1169
   95MOL    H5541603   3.359   6.329   7.195 -0.2056  0.9958 -0.7199
   95MOL    H5641604   3.067   6.357   7.279 -2.1928 -3.0960 -4.9070
   95MOL    H5741605   3.212   6.466   7.292  0.8747  0.3852 -1.7001
   95MOL    H5841606   3.231   6.468   7.055 -0.5931  0.5438 -0.7360
   95MOL    H5941607   3.054   6.498   7.097  0.4011  0.6022  1.3334
   95MOL    H6041608   3.015   6.258   7.015  1.3522 -1.5220 -0.2886
   95MOL    H6141609   3.085   6.355   6.889 -1.7487 -0.1850 -0.2442
   95MOL    H6241610   3.311   6.242   6.958 -0.4017  1.7064  1.2456
   95MOL    H6341611   3.181   6.129   6.925 -0.2490 -1.8986  2.0894
   95MOL    H6441612   3.145   6.109   7.172  0.0149 -1.0522 -0.6292
   95MOL    H6541613   3.312   6.077   7.144 -0.3837 -0.3357 -1.0959
   95MOL    H6641614   3.097   6.129   7.387 -0.3591  2.0294 -0.9673
   95MOL    H6741615   3.118   6.239   7.511 -0.0745 -1.0355  1.7940
   95MOL    C6841616   3.225   6.043   7.530  0.7426  0.2987 -0.4259
   95MOL    C6941617   3.122   6.018   7.640  0.2690 -0.7308 -0.1511
   95MOL    C7041618   3.109   6.126   7.741  0.1665 -0.4093 -0.4705
   95MOL    C7141619   3.047   6.070   0.097  0.1577 -0.2596 -0.2130
   95MOL    C7241620   2.906   6.019   0.073 -0.2726 -0.2355  0.4057
   95MOL    C7341621   2.910   5.916   7.725 -0.8017 -0.6956 -1.4399
   95MOL    C7441622   2.981   5.969   7.604 -0.8906 -0.5761 -0.7191
   95MOL    C7541623   3.259   5.922   7.434  0.5628  0.5625 -0.2379
   95MOL    H7641624   3.319   6.072   7.576  1.5951 -1.1452 -1.2140
   95MOL    H7741625   3.166   5.943   7.706  3.4879  0.9091 -0.3461
   95MOL    H7841626   3.052   6.215   7.711  1.4475  0.8088  0.6233
   95MOL    H7941627   3.207   6.161   0.001 -0.2183 -1.0098  1.4193
   95MOL    H8041628   3.108   5.990   0.139 -2.7108 -1.1919  2.3596
   95MOL    H8141629   3.037   6.149   0.171  1.7481 -0.9639  0.7818
   95MOL    H8241630   2.848   6.108   0.048  0.4481  0.1955  0.2786
   95MOL    H8341631   2.857   5.966   0.155 -0.6987 -0.5854 -0.0739
   95MOL    H8441632   2.805   5.891   7.709 -1.5918  1.7749 -0.4298
   95MOL    H8541633   2.952   5.819   7.752  0.4382  0.9201  2.7121
   95MOL    H8641634   2.919   6.043   7.553 -1.8882  1.6633  3.5400
   95MOL    H8741635   2.990   5.895   7.524 -0.9498  0.8123 -2.0424
   95MOL    H8841636   3.170   5.913   7.371  1.6431  0.0858 -1.7172
   95MOL    H8941637   3.341   5.943   7.365  2.6490  0.3930  2.1255
   95MOL    C9041638   3.298   5.783   7.498  0.4952  0.6052  0.3949
   95MOL    C9141639   3.290   5.668   7.388 -0.2476 -0.1812  0.6720
   95MOL    C9241640   3.144   5.630   7.347 -0.0384  0.0560  0.0774
   95MOL    C9341641   3.126   5.507   7.256 -0.7459 -0.4313  0.1563
   95MOL    C9441642   3.199   5.544   7.124  0.1753 -0.2793  0.0073
   95MOL    C9541643   3.348   5.560   7.157  0.0175  0.5654 -0.2818
   95MOL    C9641644   3.372   5.679   7.257 -0.4854 -0.9634 -0.2600
   95MOL    C9741645   3.439   5.794   7.566  0.6519  0.3586 -0.1531
   95MOL    H9841646   3.220   5.750   7.566  1.1783 -1.6943  0.0811
   95MOL    H9941647   3.328   5.584   7.445  1.4276  0.7150  0.9138
   95MOL   H10041648   3.096   5.716   7.300  1.2504  0.4262 -0.5702
   95MOL   H10141649   3.088   5.602   7.436 -0.2770 -1.3354 -0.5092
   95MOL   H10241650   3.023   5.492   7.224 -0.4632  2.1838 -2.2330
   95MOL   H10341651   3.169   5.413   7.291 -0.4966 -0.2626  0.3036
   95MOL   H10441652   3.151   5.634   7.087  2.1587  0.5916 -0.5210
   95MOL   H10541653   3.170   5.463   7.058 -2.4286  0.7600 -0.1736
   95MOL   H10641654   3.389   5.467   7.195  0.1149 -0.7047 -3.3743
   95MOL   H10741655   3.397   5.583   7.062  0.5649  0.5160 -0.0150
   95MOL   H10841656   3.478   5.672   7.281 -1.3064 -0.8586  3.5822
   95MOL   H10941657   3.361   5.769   7.196 -1.1458  0.0256  1.2960
   95MOL   H11041658   3.501   5.708   7.542 -0.7009 -0.7923  0.3308
   95MOL   H11141659   3.493   5.867   7.507  0.0170  1.4182  0.5453
   95MOL   C11241660   3.439   5.813   7.717 -0.3151 -0.0302 -0.1002
   95MOL   C11341661   3.575   5.866   7.771 -0.5447  0.2504 -0.1391
   95MOL   C11441662   3.627   6.000   7.713  0.5237  0.4993 -0.5201
   95MOL   C11541663   3.757   6.053   0.011  0.2175 -0.1954  0.1882
   95MOL   C11641664   3.871   5.956   7.755  0.4244  0.0360  0.4014
   95MOL   C11741665   3.826   5.819   0.043 -0.3869 -0.3073  0.0933
   95MOL   C11841666   3.691   5.769   7.769  0.7506  0.5513 -0.1892
   95MOL   C11941667   3.375   5.691   0.021 -0.3848 -0.2337  0.1927
   95MOL   H12041668   3.374   5.897   7.741  2.8950  3.1125 -1.9085
   95MOL   H12141669   3.553   5.887   0.103  1.1132 -0.9614  0.4746
   95MOL   H12241670   3.549   6.076   7.723 -0.7748 -1.1971  3.3003
   95MOL   H12341671   3.649   5.989   7.607  0.5245  2.3807 -0.7292
   95MOL   H12441672   3.776   6.156   7.753  0.1238 -0.3567 -0.4296
   95MOL   H12541673   3.749   6.056   0.120 -0.5263 -0.1547  0.1307
   95MOL   H12641674   3.867   5.943   7.647 -0.9878  0.3692  0.4108
   95MOL   H12741675   3.963   5.998   0.025  0.7346  1.0069 -1.2234
   95MOL   H12841676   3.903   5.742   0.042  2.1298  2.1604 -1.7843
   95MOL   H12941677   3.821   5.840   0.150 -2.2525 -1.3470  0.2387
   95MOL   H13041678   3.667   5.679   0.054  2.2890  0.0813 -0.2513
   95MOL   H13141679   3.703   5.736   7.665 -0.4105 -0.2876 -0.0661
   95MOL   H13241680   3.429   5.601   7.762 -0.3376 -0.0404 -0.2828
   95MOL   H13341681   3.276   5.660   7.759 -0.0441 -0.5051 -0.5570
   95MOL   C13441682   3.366   5.690   0.170 -0.9683  0.5173 -0.0419
   95MOL   C13541683   3.344   5.562   0.240 -0.1444  0.0545  0.8350
   95MOL   C13641684   3.478   5.490   0.242 -0.6869 -0.0486 -0.2430
   95MOL   C13741685   3.467   5.358   0.330  0.0531 -0.0862 -0.3701
   95MOL   C13841686   3.352   5.269   0.290  0.0162 -0.3959  0.5551
   95MOL   C13941687   3.214   5.341   0.263  0.2128  0.1136 -0.3296
   95MOL   C14041688   3.239   5.472   0.183  0.7340  0.3998  0.2371
   95MOL   C14141689   3.269   5.810   0.217 -0.2977 -0.2979 -0.1317
   95MOL   H14241690   3.457   5.738   0.206  0.0134 -0.5647 -1.0312
   95MOL   H14341691   3.311   5.594   0.339  0.3516  2.4902  0.2682
   95MOL   H14441692   3.501   5.469   0.138 -1.1582 -0.9008 -0.1765
   95MOL   H14541693   3.555   5.551   0.290  2.2306 -3.2648 -0.6829
   95MOL   H14641694   3.465   5.384   0.436  1.7879 -1.7173  0.0768
   95MOL   H14741695   3.557   5.298   0.322 -0.6535 -1.1661 -0.3211
   95MOL   H14841696   3.374   5.211   0.200 -2.4556  0.6172 -0.7470
   95MOL   H14941697   3.347   5.185   0.360  1.7856  1.2448  2.7285
   95MOL   H15041698   3.171   5.373   0.359  0.8548 -0.8322  0.2744
   95MOL   H15141699   3.138   5.272   0.227 -1.4265  0.8931  1.5217
   95MOL   H15241700   3.256   5.435   0.082 -2.9960 -0.0801 -0.2589
   95MOL   H15341701   3.147   5.530   0.183  0.9659  0.7778  1.4249
   95MOL   H15441702   3.170   5.789   0.176 -0.4587 -0.6753  0.4337
   95MOL   H15541703   3.306   5.905   0.178 -0.3942 -0.1688  0.0840
   95MOL   C15641704   3.245   5.840   0.373  0.2370 -0.7673 -0.2934
   95MOL   C15741705   3.114   5.771   0.430  0.1369  0.2799  0.2974
   95MOL   C15841706   3.111   5.741   0.580  0.7568  0.1425  0.5880
   95MOL   C15941707   2.993   5.664   0.635 -0.1647 -0.2929  0.3399
   95MOL   C16041708   2.861   5.734   0.598  1.0631 -0.6961 -0.0714
   95MOL   C16141709   2.855   5.773   0.451  0.2856 -0.2455 -0.2392
   95MOL   C16241710   2.974   5.849   0.406 -0.5588 -0.6080 -0.2740
   95MOL   C16341711   3.248   5.992   0.406  0.0812  0.5760  0.3538
   95MOL   H16441712   3.329   5.793   0.424  0.2871 -2.5317 -1.9371
   95MOL   H16541713   3.111   5.672   0.384  2.3633 -0.3985  1.5050
   95MOL   H16641714   3.206   5.689   0.593  0.4074 -0.5790  0.2968
   95MOL   H16741715   3.124   5.834   0.635 -0.6223  0.2567  0.7255
   95MOL   H16841716   2.987   5.571   0.579  2.1889  0.6896 -1.6381
   95MOL   H16941717   2.988   5.640   0.741 -1.1196 -5.9415 -0.8621
   95MOL   H17041718   2.848   5.810   0.675 -2.0881 -1.8874  0.6194
   95MOL   H17141719   2.776   5.669   0.615 -0.4983  1.6140  1.2030
   95MOL   H17241720   2.762   5.826   0.432  1.1193  0.8233 -1.3239
   95MOL   H17341721   2.839   5.679   0.398  0.5947 -1.0656  1.0734
   95MOL   H17441722   2.958   5.853   0.298 -1.6303 -1.5676 -0.1638
   95MOL   H17541723   2.988   5.950   0.444 -0.6628 -0.5200 -0.4678
   95MOL   H17641724   3.214   6.006   0.508  1.2559  0.3903  0.7766
   95MOL   H17741725   3.170   6.045   0.350  0.8383  1.3800  0.0525
   95MOL   C17841726   3.387   6.069   0.377 -0.0954  0.2207 -0.2374
   95MOL   C17941727   3.354   6.201   0.290 -0.5382 -0.0031 -0.2182
   95MOL   C18041728   3.485   6.259   0.232  0.1091 -0.2211  0.2550
   95MOL   C18141729   3.457   6.393   0.163  0.6753  0.2151  0.4091
   95MOL   C18241730   3.390   6.495   0.258  0.0199 -0.0681  0.3005
   95MOL   C18341731   3.254   6.443   0.304  0.8524  0.0780  0.1879
   95MOL   C18441732   3.283   6.308   0.379 -0.4139 -0.1885 -0.6247
   95MOL   C18541733   3.452   6.102   0.518 -0.1515  0.4654 -0.0776
   95MOL   H18641734   3.450   6.006   0.314  1.5702  0.5134  1.0991
   95MOL   H18741735   3.290   6.183   0.204 -1.7240  4.1328 -0.3287
   95MOL   H18841736   3.561   6.286   0.305 -0.9042 -2.4333  2.1965
   95MOL   H18941737   3.533   6.189   0.163  0.6608  0.6538 -0.2527
   95MOL   H19041738   3.388   6.384   0.079  0.8804  0.5175  0.2042
   95MOL   H19141739   3.552   6.440   0.134  0.5591  0.5201  0.5191
   95MOL   H19241740   3.449   6.525   0.345  0.2661 -0.3788  0.2424
   95MOL   H19341741   3.393   6.580   0.191 -1.1915 -0.4108 -0.2072
   95MOL   H19441742   3.189   6.419   0.220  0.2148 -0.2327  0.7685
   95MOL   H19541743   3.208   6.509   0.377  0.2391  2.1926 -2.0522
   95MOL   H19641744   3.322   6.329   0.479  0.0405  1.1481 -1.0607
   95MOL   H19741745   3.189   6.259   0.405 -0.0487 -1.4083 -1.5648
   95MOL   H19841746   3.501   6.199   0.517  2.9252 -1.0003  1.5564
   95MOL   H19941747   3.371   6.118   0.589 -0.9984  0.8645 -1.1136
   95MOL   C20041748   3.555   5.997   0.576  0.6929  0.2194 -0.5417
   95MOL   C20141749   3.693   6.004   0.507  0.4461  0.0927  0.1511
   95MOL   C20241750   3.770   6.139   0.517  0.0565  0.1765 -0.4483
   95MOL   C20341751   3.894   6.150   0.432  0.6947  0.4124 -0.3816
   95MOL   C20441752   3.988   6.028   0.458 -0.1568  0.3763 -0.3003
   95MOL   C20541753   3.919   5.889   0.451 -0.0458 -0.0606 -0.0982
   95MOL   C20641754   3.793   5.882   0.535 -0.3156  0.0676 -0.1852
   95MOL   C20741755   3.559   5.990   0.731 -0.4772 -0.7969  0.1684
   95MOL   H20841756   3.503   5.906   0.546 -1.2067  1.0689  0.0468
   95MOL   H20941757   3.683   5.994   0.399  1.2354 -0.4080  0.1149
   95MOL   H21041758   3.790   6.165   0.621  1.6811 -2.4394 -0.0755
   95MOL   H21141759   3.707   6.223   0.484 -3.0055 -2.0505 -0.5083
   95MOL   H21241760   3.856   6.154   0.330  0.5380 -0.8463 -0.3737
   95MOL   H21341761   3.958   6.235   0.458  1.4613 -0.0279 -0.8153
   95MOL   H21441762   4.086   6.020   0.410  1.1163  2.5344  1.7875
   95MOL   H21541763   4.025   6.035   0.561  0.2886 -2.4816 -0.2185
   95MOL   H21641764   3.904   5.870   0.344  0.1482  0.5039 -0.2284
   95MOL   H21741765   3.989   5.818   0.493  0.9507 -1.1786 -3.4641
   95MOL   H21841766   3.744   5.788   0.512 -0.4859  0.4845 -1.5544
   95MOL   H21941767   3.827   5.880   0.639  0.0023  1.3546 -0.2571
   95MOL   H22041768   3.661   5.962   0.759  0.1681  2.4143  1.1325
   95MOL   H22141769   3.542   6.090   0.769 -0.9794 -0.9184  0.2761
   95MOL   C22241770   3.453   5.896   0.802 -0.4936  0.1076 -0.3669
   95MOL   C22341771   3.461   5.738   0.776  0.6594  0.2881 -0.5678
   95MOL   C22441772   3.355   5.650   0.846  0.3766  0.6824 -0.5674
   95MOL   C22541773   3.356   5.494   0.811  0.5000 -0.6587 -0.4646
   95MOL   C22641774   3.505   5.445   0.831  0.0476 -0.1562 -0.2557
   95MOL   C22741775   3.611   5.528   0.751 -0.2680 -0.3042 -0.1780
   95MOL   C22841776   3.601   5.680   0.786  1.0777 -0.4022 -0.5185
   95MOL   C22941777   3.436   5.927   0.952  0.2089  0.1457 -0.1697
   95MOL   H23041778   3.365   5.926   0.745 -1.0612  0.2245  0.5460
   95MOL   H23141779   3.442   5.717   0.670  0.0056 -0.6849 -0.2679
   95MOL   H23241780   3.365   5.664   0.954  2.4199 -1.5032 -0.4379
   95MOL   H23341781   3.254   5.690   0.838  0.5829  1.5037  0.7270
   95MOL   H23441782   3.329   5.485   0.705  1.7031 -1.1435 -0.7445
   95MOL   H23541783   3.286   5.442   0.876  1.1981  0.3060  1.0594
   95MOL   H23641784   3.535   5.455   0.936 -1.6114  1.5516  0.0807
   95MOL   H23741785   3.525   5.341   0.807 -0.2677 -0.3093  0.1490
   95MOL   H23841786   3.590   5.518   0.644 -0.9591 -1.9719  0.0922
   95MOL   H23941787   3.712   5.489   0.759 -0.5167 -0.8823  0.1697
   95MOL   H24041788   3.641   5.689   0.887  0.3975 -1.1380 -0.1833
   95MOL   H24141789   3.667   5.738   0.721 -0.0627  0.3182 -1.0518
   95MOL   H24241790   3.492   6.018   0.974  2.5754 -0.2630 -3.9371
   95MOL   H24341791   3.487   5.847   1.005 -2.1881  0.3850  2.5669
   95MOL   C24441792   3.291   5.953   1.013 -0.0744  0.4331 -0.1042
   95MOL   C24541793   3.202   6.050   0.932  0.1671 -0.1067  0.0426
   95MOL   C24641794   3.246   6.195   0.920 -0.0505 -0.0641 -0.1950
   95MOL   C24741795   3.153   6.287   0.835  0.8902 -0.0360 -0.0804
   95MOL   C24841796   3.013   6.279   0.902 -0.7567 -0.7846  0.1541
   95MOL   C24941797   2.955   6.138   0.905  0.0427 -0.5585  0.7277
   95MOL   C25041798   3.056   6.049   0.984  0.1704  0.1245 -0.1081
   95MOL   C25141799   3.309   5.986   1.159  0.1746  0.5304  0.4941
   95MOL   H25241800   3.233   5.861   1.015  0.6773 -0.0963 -1.6692
   95MOL   H25341801   3.194   6.021   0.828  1.9694  0.1888 -0.1828
   95MOL   H25441802   3.350   6.200   0.888 -0.5809 -0.1997 -2.0193
   95MOL   H25541803   3.242   6.245   1.017 -0.0848  1.4965 -0.9794
   95MOL   H25641804   3.176   6.393   0.847 -0.4298 -0.0369  2.8800
   95MOL   H25741805   3.153   6.263   0.729 -0.0511 -0.6794  0.0613
   95MOL   H25841806   3.014   6.321   1.002 -0.5920 -2.1869  0.7557
   95MOL   H25941807   2.954   6.348   0.842  3.7677  1.3160 -2.1772
   95MOL   H26041808   2.943   6.107   0.801  1.3607  0.7201  0.1708
   95MOL   H26141809   2.856   6.129   0.948 -1.0511 -2.2703 -2.0043
   95MOL   H26241810   3.047   6.074   1.089  0.0527  2.2468 -0.6048
   95MOL   H26341811   3.037   5.942   0.980 -1.0701  0.3763 -4.0252
   95MOL   H26441812   3.224   6.049   1.189 -0.8388 -1.0013  0.8682
   95MOL   H26541813   3.402   6.038   1.183  0.4694 -0.6982  2.0878
   95MOL   C26641814   3.305   5.859   1.249  0.3325  0.3336  0.2326
   95MOL   C26741815   3.405   5.853   1.366 -0.1026 -0.5473 -0.1134
   95MOL   C26841816   3.384   5.978   1.461  0.0943 -0.3457  0.1117
   95MOL   C26941817   3.489   5.998   1.565 -0.7624 -0.2674  0.7198
   95MOL   C27041818   3.625   5.989   1.509 -0.3315  0.1809 -0.0472
   95MOL   C27141819   3.644   5.854   1.432  0.0426  0.1627 -0.1439
   95MOL   C27241820   3.550   5.835   1.314  0.1220  0.2170 -0.3236
   95MOL   C27341821   3.152   5.845   1.290  0.3869 -0.5569 -0.0623
   95MOL   H27441822   3.325   5.772   1.187 -2.1607 -0.5486  0.6229
   95MOL   H27541823   3.384   5.770   1.432 -1.8610 -0.5873 -0.6951
   95MOL   H27641824   3.371   6.074   1.410 -1.3255 -1.0272 -0.8359
   95MOL   H27741825   3.288   5.971   1.513 -0.9904  1.2898 -1.5947
   95MOL   H27841826   3.476   5.922   1.643 -2.6789 -0.9418 -0.2487
   95MOL   H27941827   3.465   6.091   1.616 -1.2303 -0.8111  1.5194
   95MOL   H28041828   3.644   6.068   1.436  3.1758 -1.6809 -1.3183
   95MOL   H28141829   3.707   6.009   1.579 -1.8869  0.8305  1.6155
   95MOL   H28241830   3.616   5.775   1.502 -0.4564  0.2890 -0.2011
   95MOL   H28341831   3.748   5.845   1.399 -0.4057 -1.0376 -1.2585
   95MOL   H28441832   3.563   5.739   1.264  1.0879 -0.5564  1.3766
   95MOL   H28541833   3.566   5.920   1.247 -0.5135  0.0336 -0.7072
   95MOL   H28641834   3.082   5.865   1.210  1.1524  0.4424 -0.4916
   95MOL   H28741835   3.135   5.925   1.362 -0.6192  0.0943 -1.0304
   95MOL   C28841836   3.119   5.707   1.358  0.1891 -0.0779  0.4989
   95MOL   C28941837   3.021   5.611   1.291  0.5367 -0.4204  0.0167
   95MOL   C29041838   2.870   5.654   1.287  0.0367 -0.0200 -0.4461
   95MOL   C29141839   2.787   5.548   1.212 -0.1878  0.3671  0.3098
   95MOL   C29241840   2.842   5.528   1.074  0.1653 -0.6160  0.6341
   95MOL   C29341841   2.987   5.484   1.074 -1.0853  0.5352 -0.1715
   95MOL   C29441842   3.071   5.580   1.152 -1.1763  0.1071 -0.4485
   95MOL   C29541843   3.090   5.752   1.501 -0.4922  0.2386 -0.1053
   95MOL   H29641844   3.213   5.651   1.356 -0.0031 -0.4268  1.0289
   95MOL   H29741845   3.024   5.520   1.350  3.7829 -0.8189 -0.7075
   95MOL   H29841846   2.829   5.664   1.388  0.3465 -1.4558 -0.1691
   95MOL   H29941847   2.867   5.751   1.238 -1.1742  0.4203  0.4748
   95MOL   H30041848   2.777   5.454   1.265  2.6144 -0.4218 -0.4724
   95MOL   H30141849   2.689   5.591   1.190  0.1997  1.3433  0.4492
   95MOL   H30241850   2.835   5.621   1.018  0.2799  0.0111  1.6412
   95MOL   H30341851   2.788   5.454   1.015 -1.0080  0.5062  0.2700
   95MOL   H30441852   3.016   5.466   0.970  0.2070 -1.1806  0.4740
   95MOL   H30541853   2.982   5.390   1.129 -1.9326  0.5515 -0.2132
   95MOL   H30641854   3.082   5.671   1.092  0.4744 -0.3352 -0.8391
   95MOL   H30741855   3.177   5.556   1.155 -1.3975 -0.6056  2.9058
   95MOL   H30841856   3.159   5.827   1.541  0.5011 -0.6863 -0.0796
   95MOL   H30941857   2.996   5.807   1.503 -2.1515 -2.5162 -0.2398
   95MOL   C31041858   3.059   5.637   1.601  0.7350  0.2861 -0.4995
   95MOL   C31141859   3.167   5.523   1.604 -0.6985 -0.0503 -0.3504
   95MOL   C31241860   3.304   5.566   1.673  0.3712 -0.3355 -0.8252
   95MOL   C31341861   3.402   5.449   1.674 -0.4338 -0.4131  0.2480
   95MOL   C31441862   3.342   5.336   1.761 -0.6136  0.0650  0.5603
   95MOL   C31541863   3.212   5.290   1.684 -0.2412 -0.4161  0.1399
   95MOL   C31641864   3.106   5.399   1.669  0.7026  0.6634  0.1403
   95MOL   C31741865   3.051   5.708   1.737 -0.4115 -0.1907 -0.6560
   95MOL   H31841866   2.962   5.601   1.568  0.2505  2.1680 -1.2047
   95MOL   H31941867   3.184   5.496   1.500 -1.4838  1.7009 -0.9608
   95MOL   H32041868   3.349   5.655   1.628  1.4495  0.1270  1.1051
   95MOL   H32141869   3.284   5.599   1.775  0.4772  0.3660 -1.0291
   95MOL   H32241870   3.494   5.490   1.716  1.2932 -0.7157 -3.0343
   95MOL   H32341871   3.433   5.417   1.574  2.9787  3.4391 -0.0763
   95MOL   H32441872   3.416   5.256   1.753 -0.6472 -0.0020  0.8948
   95MOL   H32541873   3.327   5.367   1.865  0.5940 -2.5693  1.5765
   95MOL   H32641874   3.241   5.253   1.586 -0.3302 -1.0771  0.3629
   95MOL   H32741875   3.163   5.204   1.729  0.0776  0.7328  2.8007
   95MOL   H32841876   3.078   5.430   1.770 -0.2511 -0.9884  0.4226
   95MOL   H32941877   3.022   5.354   1.616  1.0582 -0.3596  0.4230
   95MOL   H33041878   3.124   5.785   1.762  1.5802 -1.9919 -0.8680
   95MOL   H33141879   3.063   5.639   1.820  0.1777 -2.3385 -2.4824
   95MOL   C33241880   2.901   5.754   1.762  0.5795  0.4261  0.1584
   95MOL   C33341881   2.890   5.879   1.841  0.7483 -0.4527  0.4923
   95MOL   C33441882   2.955   5.878   1.983 -0.2224 -0.2693 -0.6096
   95MOL   C33541883   2.948   6.021   2.048  0.2440  0.0341  0.1522
   95MOL   C33641884   2.806   6.067   2.056  0.4710 -0.7150 -0.5498
   95MOL   C33741885   2.748   6.074   1.909  0.0656 -0.6014  0.3376
   95MOL   C33841886   2.744   5.939   1.845  0.8914  0.5178 -0.3503
   95MOL   C33941887   2.818   5.632   1.819  0.3791  0.5988 -0.5085
   95MOL   H34041888   2.857   5.784   1.667  0.5095 -0.1606  0.0037
   95MOL   H34141889   2.952   5.954   1.791  1.2312 -0.8657  0.4759
   95MOL   H34241890   2.910   5.812   2.057  2.2504  0.0770  1.2678
   95MOL   H34341891   3.058   5.843   1.983 -0.3000 -0.5705  1.3089
   95MOL   H34441892   2.987   6.013   2.149  0.6001  0.5871  0.0657
   95MOL   H34541893   3.009   6.096   1.997 -0.6930 -0.6490 -2.0190
   95MOL   H34641894   2.766   5.986   2.116  3.5442 -1.2129  0.8921
   95MOL   H34741895   2.789   6.152   2.122  0.4960  0.8076 -2.4451
   95MOL   H34841896   2.801   6.140   1.840 -1.6383 -1.2966 -1.7199
   95MOL   H34941897   2.645   6.111   1.905 -0.0291 -0.7728  1.0798
   95MOL   H35041898   2.709   5.957   1.743 -0.3308  0.6974  0.0943
   95MOL   H35141899   2.675   5.876   1.901  0.5264  1.1418 -0.0988
   95MOL   H35241900   2.821   5.635   1.927 -0.6276 -1.4547 -0.4053
   95MOL   H35341901   2.872   5.541   1.795  0.0661  0.0177  0.9959
   95MOL   C35441902   2.670   5.607   1.783  0.4978 -0.1778  0.0836
   95MOL   C35541903   2.599   5.498   1.876 -0.3618 -0.7324 -0.5314
   95MOL   C35641904   2.572   5.570   2.009 -0.1074  0.6222  0.6442
   95MOL   C35741905   2.503   5.469   2.103 -0.4982  0.4049 -0.0629
   95MOL   C35841906   2.566   5.325   2.109 -0.9697  0.1612 -1.0059
   95MOL   C35941907   2.611   5.276   1.986  0.2519 -0.4612  0.8950
   95MOL   C36041908   2.685   5.371   1.896 -0.3658 -0.0248  0.4913
   95MOL   C36141909   2.648   5.562   1.641 -0.0333  0.3631 -0.0418
   95MOL   H36241910   2.620   5.702   1.803  1.1438  0.0748  0.5297
   95MOL   H36341911   2.501   5.472   1.835 -1.0609  0.6294  0.2530
   95MOL   H36441912   2.506   5.655   1.994  0.4663  1.2737  1.7007
   95MOL   H36541913   2.660   5.609   2.061  0.1783  0.9653 -0.1006
   95MOL   H36641914   2.476   5.510   2.200  1.6557  1.7486 -0.0007
   95MOL   H36741915   2.400   5.461   2.068 -0.1176  0.0245 -1.1279
   95MOL   H36841916   2.647   5.339   2.180 -0.5820 -1.8154 -1.0333
   95MOL   H36941917   2.501   5.252   2.157 -2.0862  0.9081 -1.3489
   95MOL   H37041918   2.662   5.181   2.002 -2.2520 -1.6527  2.0227
   95MOL   H37141919   2.524   5.239   1.934  0.2505  0.9297 -0.1222
   95MOL   H37241920   2.707   5.322   1.801  1.0387  1.0099  0.2623
   95MOL   H37341921   2.778   5.394   1.948 -0.3798 -0.0957  0.5475
   95MOL   H37441922   2.677   5.459   1.619 -1.2726 -0.4541  1.9868
   95MOL   H37541923   2.709   5.623   1.575 -0.0909  1.6060  1.0119
   95MOL   C37641924   2.511   5.575   1.573 -0.9591 -0.6402 -0.5577
   95MOL   C37741925   2.454   5.730   1.555 -0.4866 -0.1053  0.3684
   95MOL   C37841926   2.308   5.739   1.512  0.6015  0.1015  0.2084
   95MOL   C37941927   2.262   5.887   1.502  0.7966  0.4428  0.2344
   95MOL   C38041928   2.349   5.974   1.419  0.3252  0.3202  0.8898
   95MOL   C38141929   2.491   5.960   1.475  0.0451 -0.1399  0.3760
   95MOL   C38241930   2.543   5.817   1.473  0.0960  0.1108  0.6534
   95MOL   C38341931   2.511   5.497   1.442  0.1337  0.3012  0.2690
   95MOL   H38441932   2.431   5.531   1.632 -1.3717  0.4320 -0.2946
   95MOL   H38541933   2.460   5.768   1.657  1.0061  0.5809  0.0507
   95MOL   H38641934   2.305   5.692   1.414 -1.4725  0.2050  0.1998
   95MOL   H38741935   2.257   5.690   1.595  2.0851  0.8007  1.5661
   95MOL   H38841936   2.243   5.927   1.602 -1.4767  1.8585 -0.7174
   95MOL   H38941937   2.162   5.888   1.459  1.1902 -2.1773 -0.8503
   95MOL   H39041938   2.356   5.937   1.317  0.5369  0.4820  0.8461
   95MOL   H39141939   2.322   6.079   1.423  0.2710  0.4586 -1.8350
   95MOL   H39241940   2.549   6.021   1.406 -0.5892 -0.3031 -0.3051
   95MOL   H39341941   2.507   6.001   1.575 -0.3279 -1.1095  0.8446
   95MOL   H39441942   2.561   5.786   1.370  1.5508 -1.0913  1.2453
   95MOL   H39541943   2.646   5.812   1.509  0.3106 -0.6944 -0.0319
   95MOL   H39641944   2.594   5.429   1.423  0.3595  1.1176 -1.8894
   95MOL   H39741945   2.523   5.563   1.355 -0.3096 -0.7932 -0.6407
   95MOL   C39841946   2.389   5.408   1.419 -0.0795  0.5854 -0.4869
   95MOL   C39941947   2.387   5.350   1.275  0.4625  0.2554 -0.4355
   95MOL   C40041948   2.376   5.451   1.168 -0.0671 -0.1422 -0.1927
   95MOL   C40141949   2.364   5.398   1.026 -0.0908  0.1763  0.4979
   95MOL   C40241950   2.474   5.293   0.992 -0.5003  0.0081  0.4616
   95MOL   C40341951   2.472   5.186   1.101  0.2463 -0.3366 -1.0251
   95MOL   C40441952   2.495   5.245   1.236 -0.0885  0.3124 -0.3882
   95MOL   C40541953   2.371   5.302   1.531 -0.6431 -0.2331 -0.0030
   95MOL   H40641954   2.304   5.475   1.432  0.6465  1.3853  0.2103
   95MOL   H40741955   2.292   5.298   1.264 -0.1647  1.1273  0.7246
   95MOL   H40841956   2.462   5.517   1.155 -0.2890  0.8265  2.9194
   95MOL   H40941957   2.292   5.519   1.185 -0.8668 -0.9652 -0.8354
   95MOL   H41041958   2.373   5.481   0.957 -1.5564  1.3748  1.7094
   95MOL   H41141959   2.262   5.358   1.029 -0.4153  1.0859  2.5319
   95MOL   H41241960   2.573   5.338   0.978  1.3894 -3.4143  2.1726
   95MOL   H41341961   2.450   5.247   0.896  1.0984 -1.0810  0.5607
   95MOL   H41441962   2.374   5.139   1.099  0.0951 -0.0122 -1.3478
   95MOL   H41541963   2.549   5.113   1.076 -0.5605 -1.1908 -1.0524
   95MOL   H41641964   2.493   5.168   1.313 -1.5154 -0.6353 -1.3596
   95MOL   H41741965   2.598   5.282   1.242  0.6474 -1.9670  1.7832
   95MOL   H41841966   2.359   5.204   1.484 -0.9145  0.0021 -0.4158
   95MOL   H41941967   2.455   5.294   1.600 -0.2107  0.9382 -0.3871
   95MOL   C42041968   2.241   5.322   1.614 -0.1215  0.5730  0.0729
   95MOL   C42141969   2.241   5.249   1.747 -0.2625 -0.1896  0.1726
   95MOL   C42241970   2.217   5.099   1.737 -0.3754  0.8371 -0.6502
   95MOL   C42341971   2.219   5.029   1.878  0.2218 -0.2224  0.3324
   95MOL   C42441972   2.116   5.102   1.970  0.3367  0.7495 -0.9117
   95MOL   C42541973   2.143   5.248   1.990 -0.4647  0.0934 -0.3789
   95MOL   C42641974   2.142   5.311   1.847 -0.0105  0.4050 -0.3918
   95MOL   C42741975   2.106   5.309   1.540  0.1445 -0.4432  0.5862
   95MOL   H42841976   2.243   5.428   1.636 -2.6305  0.8806 -1.0376
   95MOL   H42941977   2.339   5.256   1.794 -0.9795  0.7963  1.5538
   95MOL   H43041978   2.121   5.066   1.697 -0.9362 -1.7901  2.6123
   95MOL   H43141979   2.286   5.056   1.664 -1.5098  1.3084 -2.0292
   95MOL   H43241980   2.196   4.923   1.862 -2.3894  0.6619 -2.3006
   95MOL   H43341981   2.321   5.034   1.914  0.4857 -0.8180 -0.3056
   95MOL   H43441982   2.114   5.043   2.062 -1.1529  2.2862  0.0602
   95MOL   H43541983   2.013   5.092   1.937  0.4287 -0.0409 -0.9787
   95MOL   H43641984   2.240   5.265   2.036 -1.2633 -1.8987  2.1614
   95MOL   H43741985   2.065   5.289   2.055  0.4866 -1.6379  1.9109
   95MOL   H43841986   2.040   5.307   1.810 -0.3072  2.3653  0.1522
   95MOL   H43941987   2.167   5.417   1.855  1.3818  0.1413 -0.9996
   95MOL   H44041988   2.112   5.363   1.446 -0.1033 -0.9896  0.2553
   95MOL   H44141989   2.092   5.204   1.516  1.0435 -0.3819 -0.2365
   95MOL   H44241990   2.021   5.351   1.593  0.8019  1.6230  0.0643
   96MOL     C141991   5.970   0.770   5.557  0.0249  0.3986  0.3599
   96MOL     C241992   5.859   0.684   5.495 -0.3956  0.5449  0.2600
   96MOL     C341993   5.730   0.710   5.560  0.7126 -0.1878 -0.2705
   96MOL     C441994   5.608   0.624   5.508 -0.2493 -0.1751 -0.3074
   96MOL     C541995   5.640   0.474   5.508  0.1623  0.0541 -0.7949
   96MOL     C641996   5.777   0.449   5.437  0.0639  0.5891  0.0161
   96MOL     C741997   5.896   0.535   5.491 -0.1053  0.2596  1.2472
   96MOL     C841998   5.952   0.918   5.565 -0.2126  0.0658 -0.4673
   96MOL     H941999   6.005   0.719   5.647  0.0376 -1.7482 -0.8344
   96MOL    H1042000   5.839   0.719   5.394  0.9947  1.0874  0.1671
   96MOL    H1142001   5.731   0.679   5.665 -2.8944  1.1265  0.2115
   96MOL    H1242002   5.700   0.815   5.551  2.6310  0.2713 -1.6256
   96MOL    H1342003   5.601   0.660   5.405  0.8028  1.7824  0.2661
   96MOL    H1442004   5.519   0.647   5.566  0.3673  1.9972 -0.1631
   96MOL    H1542005   5.555   0.420   5.465 -2.3599  1.6867  1.9103
   96MOL    H1642006   5.648   0.432   5.608 -1.3640  0.7553 -0.3658
   96MOL    H1742007   5.797   0.342   5.437  1.4584  0.8122 -2.5016
   96MOL    H1842008   5.752   0.470   5.333 -2.1261 -0.9738  0.1870
   96MOL    H1942009   5.978   0.518   5.421 -0.4286  1.5248  0.5496
   96MOL    H2042010   5.920   0.505   5.593  3.8839  4.5046  1.7193
   96MOL    H2142011   5.881   0.934   5.647  0.8204  0.4520  0.3541
   96MOL    H2242012   5.898   0.946   5.474 -0.8433 -1.4846 -0.5737
   96MOL    H2342013   6.051   0.760   5.484 -1.2032  2.7521 -1.3934
   96MOL    C2442014   6.085   1.000   5.595 -0.0679  0.5023  0.2672
   96MOL    C2542015   6.093   1.141   5.538 -0.0797  0.2884 -0.3247
   96MOL    C2642016   5.986   1.232   5.599  0.3012 -0.4902  0.3819
   96MOL    C2742017   6.010   1.383   5.563 -0.6066 -0.1864 -0.8710
   96MOL    C2842018   6.010   1.393   5.407  0.4966 -0.2384  1.1592
   96MOL    C2942019   6.111   1.301   5.339 -0.3750  0.2334  0.4106
   96MOL    C3042020   6.080   1.155   5.386  0.1576  0.0710  0.4939
   96MOL    C3142021   6.139   1.002   5.739  0.0286 -0.1128 -0.2205
   96MOL    H3242022   6.166   0.965   5.531 -1.3195  2.3032 -2.3844
   96MOL    H3342023   6.189   1.184   5.569  0.4806 -0.0173 -1.6377
   96MOL    H3442024   5.984   1.209   5.705 -2.5425  2.3247  1.0160
   96MOL    H3542025   5.883   1.205   5.575  0.4788  0.6776 -1.8588
   96MOL    H3642026   5.926   1.443   5.598  0.0038 -1.4292  3.0056
   96MOL    H3742027   6.098   1.433   5.604  0.5101 -0.5873 -2.7216
   96MOL    H3842028   6.034   1.492   5.370 -0.7461 -0.0494  0.8395
   96MOL    H3942029   5.913   1.373   5.362  0.7267  1.5401 -0.1762
   96MOL    H4042030   6.095   1.299   5.231 -1.2261 -2.0003  0.5598
   96MOL    H4142031   6.214   1.334   5.345 -1.2384  3.0267  0.6525
   96MOL    H4242032   5.976   1.138   5.357  0.4256 -0.2975 -0.2596
   96MOL    H4342033   6.145   1.082   5.338 -0.0146  1.0061 -1.1816
   96MOL    H4442034   6.066   0.965   5.811  2.3972 -1.5411  1.5015
   96MOL    H4542035   6.145   1.105   5.773 -0.0872  0.7447 -2.6679
   96MOL    C4642036   6.286   0.948   5.759  0.7859 -0.3638  0.4941
   96MOL    C4742037   6.299   0.898   5.906  0.6369  0.6805  0.1449
   96MOL    C4842038   6.301   1.001   6.019 -0.2461 -0.7053 -0.4858
   96MOL    C4942039   6.303   0.941   6.167  0.1689  0.3234 -0.1242
   96MOL    C5042040   6.411   0.827   6.180  0.5419 -0.6532  0.2465
   96MOL    C5142041   6.416   0.730   6.058 -1.4674 -0.2696 -0.3415
   96MOL    C5242042   6.411   0.798   5.924 -0.3242 -0.2086  0.2698
   96MOL    C5342043   6.397   1.038   5.709 -0.3682  0.9479 -0.6120
   96MOL    H5442044   6.296   0.857   5.701  2.7903 -0.8877  1.6431
   96MOL    H5542045   6.210   0.834   5.914 -0.0895  1.8207  1.6466
   96MOL    H5642046   6.385   1.069   6.003 -0.8216  0.1865  0.2233
   96MOL    H5742047   6.221   1.074   6.008  2.0974  1.7346 -2.1779
   96MOL    H5842048   6.208   0.897   6.195 -0.8594  2.3183 -0.4088
   96MOL    H5942049   6.324   1.023   6.236  2.0316  1.3103 -1.7876
   96MOL    H6042050   6.504   0.878   6.207 -0.5850  1.3449  0.4734
   96MOL    H6142051   6.381   0.775   6.271  0.9747  0.3469  0.9646
   96MOL    H6242052   6.326   0.670   6.069 -1.0059 -1.2156 -1.5360
   96MOL    H6342053   6.502   0.663   6.064 -0.4597  0.9465 -0.8876
   96MOL    H6442054   6.509   0.842   5.909 -1.7029  2.0219 -2.9321
   96MOL    H6542055   6.393   0.720   5.849  1.1072  0.4254 -0.7507
   96MOL    H6642056   6.462   1.052   5.795  0.9607 -2.8018 -0.9093
   96MOL    H6742057   6.355   1.136   5.689  0.7001  1.5989  0.3028
   96MOL    C6842058   6.466   0.981   5.582  0.6396  0.1585 -0.1093
   96MOL    C6942059   6.559   1.088   5.520  0.3826 -0.5253  0.8297
   96MOL    C7042060   6.471   1.187   5.447  0.9568  0.0761  0.7580
   96MOL    C7142061   6.557   1.278   5.358  0.1180  0.7049  0.0589
   96MOL    C7242062   6.661   1.353   5.435 -0.0269 -0.2552  0.1088
   96MOL    C7342063   6.751   1.257   5.514 -0.4355 -0.0770  0.1495
   96MOL    C7442064   6.663   1.160   5.599  0.5467  0.4903 -0.0728
   96MOL    C7542065   6.546   0.856   5.622  0.8286 -0.1928 -0.5719
   96MOL    H7642066   6.379   0.948   5.525  0.0613  0.4751  0.5878
   96MOL    H7742067   6.616   1.043   5.439  1.0831  0.8119  0.5693
   96MOL    H7842068   6.414   1.247   5.518 -1.3687  0.9687 -1.8050
   96MOL    H7942069   6.395   1.138   5.387  1.6992 -0.7661  0.4956
   96MOL    H8042070   6.607   1.219   5.281  0.9619 -1.8828  2.5599
   96MOL    H8142071   6.489   1.343   5.302 -0.0482 -0.5582 -1.2183
   96MOL    H8242072   6.622   1.431   5.500 -1.1153 -0.5474 -0.1767
   96MOL    H8342073   6.739   1.403   5.378  0.0513  0.2311  0.6375
   96MOL    H8442074   6.828   1.312   5.569  1.1439 -2.3735  0.2858
   96MOL    H8542075   6.813   1.195   5.450 -1.4222 -1.0398  0.1159
   96MOL    H8642076   6.621   1.201   5.691 -0.1485  0.6585 -0.4610
   96MOL    H8742077   6.725   1.083   5.645  0.9353  0.3491 -0.8294
   96MOL    H8842078   6.635   0.889   5.675  0.4607 -0.2175  0.0627
   96MOL    H8942079   6.495   0.787   5.689  3.2800 -1.0575  0.4926
   96MOL    C9042080   6.576   0.767   5.497  0.2777  0.0338  1.1418
   96MOL    C9142081   6.722   0.718   5.503  0.4036  0.9119  0.5295
   96MOL    C9242082   6.817   0.828   5.462 -0.5047 -0.9819  0.3413
   96MOL    C9342083   6.958   0.779   5.452 -0.1263  0.1628  0.0804
   96MOL    C9442084   7.007   0.726   5.591  0.2302 -0.1825 -0.2053
   96MOL    C9542085   6.924   0.600   5.626 -0.4086  0.1205  0.1438
   96MOL    C9642086   6.773   0.645   5.633  0.2960 -1.0024 -0.1172
   96MOL    C9742087   6.469   0.651   5.498 -0.2259 -0.5898  0.1394
   96MOL    H9842088   6.575   0.830   5.408  0.5018  1.9064  2.4309
   96MOL    H9942089   6.723   0.642   5.424 -0.9143  1.9562 -0.5067
   96MOL   H10042090   6.797   0.914   5.526 -0.9344 -0.0416 -1.0435
   96MOL   H10142091   6.813   0.870   5.361  0.8171  0.7279  0.9645
   96MOL   H10242092   7.018   0.851   5.397  2.7845 -2.8827 -0.8319
   96MOL   H10342093   6.966   0.691   5.389  1.4336  0.3201  0.0424
   96MOL   H10442094   6.996   0.806   5.664  3.0800  1.1608 -1.1763
   96MOL   H10542095   7.112   0.699   5.596  0.1808 -0.7351 -1.8952
   96MOL   H10642096   6.944   0.522   5.553 -1.4236 -0.4737  0.4973
   96MOL   H10742097   6.956   0.567   5.724 -0.1381  3.1519  1.1416
   96MOL   H10842098   6.725   0.547   5.642 -0.9275 -0.4472 -0.4127
   96MOL   H10942099   6.748   0.699   5.724  1.7811 -2.9740  1.5199
   96MOL   H11042100   6.496   0.575   5.571  1.1935 -1.6348 -1.4228
   96MOL   H11142101   6.377   0.690   5.541  0.3478  1.6825 -0.5797
   96MOL   C11242102   6.435   0.570   5.363 -0.5731  0.2083  1.1331
   96MOL   C11342103   6.389   0.658   5.244  0.6134  0.2039 -0.2545
   96MOL   C11442104   6.264   0.738   5.271  0.6050  0.1519 -0.0123
   96MOL   C11542105   6.265   0.847   5.157 -0.7236  0.2777 -0.3513
   96MOL   C11642106   6.263   0.793   5.016  0.1522  0.3654  0.0072
   96MOL   C11742107   6.369   0.694   4.992 -0.0579  0.5428 -1.3968
   96MOL   C11842108   6.376   0.595   5.106  0.3206  0.1371 -0.2985
   96MOL   C11942109   6.353   0.434   5.384  0.4029 -0.2932  0.5376
   96MOL   H12042110   6.532   0.532   5.332 -2.3452 -2.2926 -1.6174
   96MOL   H12142111   6.469   0.731   5.233  0.0295  0.6500 -1.6526
   96MOL   H12242112   6.254   0.794   5.364  1.5263  0.0964  0.1278
   96MOL   H12342113   6.186   0.663   5.259  0.9307 -0.3313  0.7890
   96MOL   H12442114   6.176   0.905   5.177 -3.0698 -2.9929 -0.8811
   96MOL   H12542115   6.351   0.913   5.167 -0.4870  0.1953 -1.7113
   96MOL   H12642116   6.160   0.758   5.004  0.4629 -0.0180 -1.6937
   96MOL   H12742117   6.264   0.883   4.956  0.2566  0.4706  0.1681
   96MOL   H12842118   6.347   0.634   4.903  2.1338  1.2540 -2.4528
   96MOL   H12942119   6.469   0.735   4.988  0.9033 -1.2108  2.8529
   96MOL   H13042120   6.464   0.536   5.080 -0.2179 -0.3494 -1.0487
   96MOL   H13142121   6.298   0.519   5.105 -1.1558  1.5474  2.5757
   96MOL   H13242122   6.349   0.384   5.287  0.9875 -0.7155  0.7279
   96MOL   H13342123   6.252   0.458   5.416 -0.9880  0.4938 -4.0408
   96MOL   C13442124   6.407   0.337   5.494  0.3604 -0.0802  0.9093
   96MOL   C13542125   6.420   0.186   5.442  0.5966  0.8518  0.2463
   96MOL   C13642126   6.527   0.178   5.328 -0.2842  0.0852 -1.0337
   96MOL   C13742127   6.544   0.030   5.280  0.2368  0.1129 -0.0078
   96MOL   C13842128   6.408   7.732   5.250  0.4004  0.3993  0.5239
   96MOL   C13942129   6.318   7.733   5.371 -0.3168  0.1910 -0.2161
   96MOL   C14042130   6.289   0.110   5.416  0.6034 -0.1923  0.7909
   96MOL   C14142131   6.339   0.352   5.633 -0.3831 -0.0687 -0.0068
   96MOL   H14242132   6.512   0.367   5.505  1.2700 -1.0122 -4.1879
   96MOL   H14342133   6.463   0.126   5.522  0.5948  1.0195  0.3749
   96MOL   H14442134   6.505   0.235   5.238  2.6144 -1.8585 -3.0552
   96MOL   H14542135   6.624   0.213   5.364 -0.3730  2.0518 -2.6393
   96MOL   H14642136   6.604   7.742   5.349 -1.8583 -0.1065  1.6578
   96MOL   H14742137   6.591   0.041   5.182  1.4774 -1.5812  0.3848
   96MOL   H14842138   6.364   0.012   5.165  1.7517  1.2740  0.3433
   96MOL   H14942139   6.425   7.630   5.216 -1.5811  0.9548 -2.3432
   96MOL   H15042140   6.374   7.679   5.448  0.2044  0.1188 -0.6494
   96MOL   H15142141   6.221   7.683   5.361  1.0694 -2.1658 -2.4607
   96MOL   H15242142   6.239   0.168   5.339  0.9671 -0.7027  0.1696
   96MOL   H15342143   6.228   0.130   5.505 -0.2770  0.2766  0.0861
   96MOL   H15442144   6.238   0.338   5.596  0.1189  1.5091 -2.0728
   96MOL   H15542145   6.344   0.458   5.658 -0.0530 -0.0856  0.0091
   96MOL   C15642146   6.368   0.250   5.746 -0.4968 -0.2827 -0.5706
   96MOL   C15742147   6.259   0.258   5.869 -0.3410 -0.7678 -0.8398
   96MOL   C15842148   6.241   0.399   5.916  0.0568  0.2221 -0.6458
   96MOL   C15942149   6.122   0.418   6.018  0.2599  0.5100  0.9684
   96MOL   C16042150   5.989   0.361   5.965 -0.2633  0.2306 -0.4392
   96MOL   C16142151   6.015   0.218   5.924 -0.5900 -0.2360  0.1504
   96MOL   C16242152   6.125   0.220   5.811  0.0995  0.1367  0.4243
   96MOL   C16342153   6.516   0.272   5.790 -0.2328  0.9177 -0.4900
   96MOL   H16442154   6.358   0.151   5.704 -2.0761 -1.2590  1.9687
   96MOL   H16542155   6.295   0.192   5.948  1.4853  1.7714  0.5214
   96MOL   H16642156   6.326   0.435   5.974 -0.5374 -1.7080  1.4752
   96MOL   H16742157   6.220   0.462   5.829  3.0914  2.8023  0.3796
   96MOL   H16842158   6.149   0.368   6.112 -1.0954 -0.5004  0.8291
   96MOL   H16942159   6.110   0.522   6.048  0.2240  1.6871 -2.9248
   96MOL   H17042160   5.944   0.400   5.874 -1.5136 -1.2139 -0.4715
   96MOL   H17142161   5.914   0.365   6.044  1.7105 -0.6844  1.5346
   96MOL   H17242162   5.926   0.175   5.878 -0.5170 -3.0970  2.5009
   96MOL   H17342163   6.044   0.148   6.002  1.3388  1.4201  0.9869
   96MOL   H17442164   6.133   0.119   5.773 -4.3623  0.2740 -1.2435
   96MOL   H17542165   6.092   0.281   5.727 -0.0300 -0.3353  0.1348
   96MOL   H17642166   6.514   0.361   5.853  0.9901  0.5093  0.1382
   96MOL   H17742167   6.587   0.299   5.713  2.4677 -1.6651  0.9920
   96MOL   C17842168   6.582   0.154   5.874 -0.1331 -0.4648  0.3798
   96MOL   C17942169   6.625   0.028   5.794  0.2269  1.0168  0.5261
   96MOL   C18042170   6.629   7.669   5.877 -0.5709 -0.3455 -0.0701
   96MOL   C18142171   6.673   7.542   5.799 -0.2170  0.2582  0.7927
   96MOL   C18242172   6.807   7.562   5.722 -0.6068  0.1375 -0.5236
   96MOL   C18342173   6.804   7.686   5.634  0.1841  0.1617 -0.2865
   96MOL   C18442174   6.754   0.039   5.708  0.1043  0.1642  0.3366
   96MOL   C18542175   6.705   0.201   5.959  0.2394  0.1848  0.0782
   96MOL   H18642176   6.510   0.114   5.946  0.8126 -1.3227  0.8600
   96MOL   H18742177   6.541   0.009   5.726  3.1373 -1.4770 -2.5437
   96MOL   H18842178   6.696   7.686   5.961 -1.2182  0.2787  0.3243
   96MOL   H18942179   6.529   7.647   5.913 -1.0586 -0.4602 -1.4593
   96MOL   H19042180   6.598   7.514   5.725  0.1344 -0.1922  0.6054
   96MOL   H19142181   6.687   7.455   5.863  1.6568  0.3007  0.4863
   96MOL   H19242182   6.892   7.557   5.789 -1.2571  2.9421  0.5483
   96MOL   H19342183   6.814   7.477   5.653 -1.2429  0.3835 -0.8968
   96MOL   H19442184   6.747   7.653   5.547  0.7207 -0.5178 -0.3899
   96MOL   H19542185   6.901   7.702   5.587  0.5892 -0.6847  0.2409
   96MOL   H19642186   6.833   0.061   5.780 -0.1903  1.4028  0.2915
   96MOL   H19742187   6.748   0.128   5.646 -3.6924 -1.0585 -1.1774
   96MOL   H19842188   6.748   0.112   6.007 -1.3057  0.2475  1.6220
   96MOL   H19942189   6.772   0.240   5.883 -0.7263 -0.4904 -1.1254
   96MOL   C20042190   6.687   0.300   6.076 -0.0908 -0.0912 -0.2073
   96MOL   C20142191   6.568   0.266   6.165 -0.0396  0.8641  0.4804
   96MOL   C20242192   6.575   0.128   6.244 -0.3293  0.0261 -0.1402
   96MOL   C20342193   6.457   0.092   6.341 -0.2425 -0.2529 -0.0397
   96MOL   C20442194   6.409   0.215   6.425  0.5415  0.6378  0.4147
   96MOL   C20542195   6.389   0.331   6.332  0.1100  0.3018  0.5434
   96MOL   C20642196   6.521   0.373   6.263 -0.5376 -0.5014  0.0132
   96MOL   C20742197   6.818   0.309   6.166  0.6117 -0.2386 -0.2669
   96MOL   H20842198   6.656   0.390   6.024 -0.0554  0.5851  0.9192
   96MOL   H20942199   6.484   0.254   6.095 -0.5995  0.0845  1.2771
   96MOL   H21042200   6.655   0.133   6.319  1.4314 -1.3118 -1.8812
   96MOL   H21142201   6.598   0.041   6.183  1.1703 -0.6436  1.3539
   96MOL   H21242202   6.376   0.090   6.269 -0.4983  1.9228  0.1347
   96MOL   H21342203   6.456   7.766   6.388 -1.5158  0.8820  2.4381
   96MOL   H21442204   6.323   0.185   6.485 -3.0750  2.6879 -3.4832
   96MOL   H21542205   6.486   0.239   6.499 -0.1168  0.4889  1.1577
   96MOL   H21642206   6.318   0.306   6.254  1.3133 -1.2817 -0.0632
   96MOL   H21742207   6.331   0.404   6.389  0.9559  1.7681 -0.4688
   96MOL   H21842208   6.499   0.462   6.204 -1.3742 -1.8983 -1.8521
   96MOL   H21942209   6.602   0.402   6.330 -1.7424  0.2454  1.1690
   96MOL   H22042210   6.803   0.364   6.259 -2.0591  0.0675 -0.8192
   96MOL   H22142211   6.848   0.210   6.198 -1.4454 -0.8443 -0.1404
   96MOL   C22242212   6.943   0.384   6.116  0.2405 -0.5451  0.2138
   96MOL   C22342213   6.906   0.535   6.084  0.2244 -0.8563  0.2655
   96MOL   C22442214   7.022   0.605   6.017  0.0369  0.6477 -0.0964
   96MOL   C22542215   6.989   0.749   5.978 -0.0278  0.0886  0.1352
   96MOL   C22642216   6.954   0.832   6.103  0.4267  0.2496 -0.1779
   96MOL   C22742217   6.834   0.765   6.167 -0.4649  0.1105  0.6402
   96MOL   C22842218   6.854   0.615   6.202 -0.3232  0.1060  0.6185
   96MOL   C22942219   7.071   0.370   6.203 -0.1108 -1.2505  0.1854
   96MOL   H23042220   6.963   0.331   6.023 -1.3287  1.6709 -1.4182
   96MOL   H23142221   6.831   0.538   6.004  1.3497  1.3282 -0.7374
   96MOL   H23242222   7.111   0.614   6.079  0.2025  0.6825 -0.3377
   96MOL   H23342223   7.043   0.541   5.931 -0.0998 -1.0458  1.1024
   96MOL   H23442224   6.899   0.750   5.917  1.4096  1.9904 -2.0543
   96MOL   H23542225   7.069   0.777   5.909  0.3096 -2.2094 -0.4539
   96MOL   H23642226   7.044   0.829   6.164  2.1666  2.4569 -2.5775
   96MOL   H23742227   6.943   0.939   6.091 -3.4180  0.1241  1.3386
   96MOL   H23842228   6.746   0.788   6.107 -3.0326 -0.2160  4.0715
   96MOL   H23942229   6.811   0.822   6.257 -0.3004  0.1329  0.6681
   96MOL   H24042230   6.928   0.603   6.281  0.3959  1.2718  0.1451
   96MOL   H24142231   6.757   0.580   6.236  1.0360 -3.8470  0.7367
   96MOL   H24242232   7.054   0.428   6.294  0.9312  1.2687 -1.1753
   96MOL   H24342233   7.150   0.420   6.148 -1.8443 -0.6933 -1.8768
   96MOL   C24442234   7.099   0.221   6.242 -0.4652  0.1320 -0.1284
   96MOL   C24542235   7.052   0.198   6.395  0.1233  0.3660 -0.2429
   96MOL   C24642236   7.134   0.269   6.512 -0.1071  0.1962  0.3988
   96MOL   C24742237   7.061   0.245   6.652 -0.1974  0.7759 -0.3723
   96MOL   C24842238   7.039   0.099   6.678  0.9966 -0.4086 -0.5405
   96MOL   C24942239   6.950   0.050   6.565 -0.3630  0.8435  0.2462
   96MOL   C25042240   7.017   0.054   6.426  0.7542 -0.6041 -0.7905
   96MOL   C25142241   7.250   0.192   6.215  0.0478  0.0341 -0.2115
   96MOL   H25242242   7.048   0.149   6.178 -1.6045  1.3526 -0.5913
   96MOL   H25342243   6.955   0.245   6.405  0.7732  1.3758  1.5329
   96MOL   H25442244   7.156   0.370   6.478  2.9585 -0.8701 -1.0370
   96MOL   H25542245   7.228   0.213   6.507 -0.7290 -0.9898  1.6323
   96MOL   H25642246   7.130   0.288   6.724  1.2010 -0.5148 -0.9111
   96MOL   H25742247   6.975   0.311   6.658  0.5017  1.7557 -0.9541
   96MOL   H25842248   7.129   0.038   6.682  2.2872  1.5718  2.8022
   96MOL   H25942249   6.993   0.086   6.776 -2.7416  0.9992 -1.9775
   96MOL   H26042250   6.857   0.108   6.563 -0.1043  1.2496 -1.9601
   96MOL   H26142251   6.923   7.719   6.584  0.4042  0.4974 -0.4735
   96MOL   H26242252   7.110   7.770   6.438 -1.5576 -4.2793  0.5626
   96MOL   H26342253   6.962   0.011   6.343  0.6397 -1.0217 -0.5024
   96MOL   H26442254   7.270   0.098   6.267  1.2149  0.3886 -0.0189
   96MOL   H26542255   7.304   0.279   6.252  2.4041  0.1501 -3.6046
   96MOL   C26642256   7.297   0.167   6.063  0.5032  0.5582 -0.4224
   96MOL   C26742257   7.454   0.162   6.060  0.3168  0.1414 -0.6606
   96MOL   C26842258   7.509   0.051   6.150  0.6254  0.8466  0.2855
   96MOL   C26942259   7.662   0.045   6.129  0.6104 -0.1679 -0.0520
   96MOL   C27042260   7.733   0.187   6.158  0.6819  0.0853 -0.3649
   96MOL   C27142261   7.682   0.291   6.059  0.0766 -1.0948  0.4429
   96MOL   C27242262   7.527   0.300   6.076  0.0621  0.5611  0.3524
   96MOL   C27342263   7.240   0.041   5.994  0.4191  0.1744  0.3320
   96MOL   H27442264   7.268   0.259   6.010  1.6092  2.4018  2.0662
   96MOL   H27542265   7.483   0.127   5.960  1.6673 -2.0950  0.4593
   96MOL   H27642266   7.489   0.081   6.253 -0.1088 -0.2815  0.4779
   96MOL   H27742267   7.461   7.727   6.132 -0.3325  0.9583  2.0934
   96MOL   H27842268   7.683   0.023   6.025  2.7478  0.7804  0.1485
   96MOL   H27942269   7.705   7.735   6.186  0.4510  0.8616  1.5862
   96MOL   H28042270   7.714   0.225   6.258  2.4447 -3.0704  1.2567
   96MOL   H28142271   0.069   0.177   6.153  0.5875 -1.0492 -0.2360
   96MOL   H28242272   7.706   0.260   5.957  0.9680  1.1378 -0.0474
   96MOL   H28342273   7.726   0.389   6.075 -2.4372 -0.2329  2.3336
   96MOL   H28442274   7.495   0.367   5.996  0.9142  1.7874  1.0123
   96MOL   H28542275   7.498   0.336   6.174  0.2758 -0.8400  0.9426
   96MOL   H28642276   7.131   0.046   5.996  0.3313 -1.2683 -0.0204
   96MOL   H28742277   7.267   7.722   6.047  0.4642 -0.2219 -0.3629
   96MOL   C28842278   7.277   0.019   5.846  0.9847 -0.8240  0.1319
   96MOL   C28942279   7.235   0.132   5.749 -0.0114  0.2614  0.3278
   96MOL   C29042280   7.311   0.124   5.612  0.9145 -0.2514 -0.7899
   96MOL   C29142281   7.273   0.229   5.508  0.0200  0.3974 -0.6532
   96MOL   C29242282   7.121   0.263   5.501  0.4375  0.3863 -0.3491
   96MOL   C29342283   7.054   0.282   5.646  0.0894 -0.2251  1.3324
   96MOL   C29442284   7.089   0.158   5.730  0.0041  0.3713 -0.0688
   96MOL   C29542285   7.224   7.646   5.809  0.1059 -0.5790 -0.4030
   96MOL   H29642286   7.385   0.019   5.834  1.3488 -0.7671  3.0202
   96MOL   H29742287   7.271   0.227   5.789 -0.3882  1.6313 -2.4756
   96MOL   H29842288   7.416   0.117   5.640 -0.0726 -0.6752  2.9676
   96MOL   H29942289   7.291   0.026   5.570 -0.8662 -0.7495  1.1377
   96MOL   H30042290   7.323   0.321   5.539  0.0066  0.4914 -0.9097
   96MOL   H30142291   7.305   0.211   5.405  0.6115  0.5423 -0.4975
   96MOL   H30242292   7.078   0.180   5.446 -0.0279 -1.4403  2.6875
   96MOL   H30342293   7.114   0.352   5.438  1.0239 -0.4289 -1.5536
   96MOL   H30442294   6.946   0.295   5.634  0.3773 -0.3381 -2.0952
   96MOL   H30542295   7.101   0.369   5.692 -0.7984  2.2664 -2.2430
   96MOL   H30642296   7.055   0.063   5.690  2.1828 -1.3215  1.9747
   96MOL   H30742297   7.043   0.163   5.829  1.2342  1.7582  0.4570
   96MOL   H30842298   7.146   7.624   5.883 -0.7303 -0.5606 -1.2661
   96MOL   H30942299   7.174   7.636   5.712  2.2980  1.3609 -1.7783
   96MOL   C31042300   7.336   7.543   5.823 -0.3590 -0.4140 -0.0487
   96MOL   C31142301   7.284   7.400   5.870  0.7635 -0.0355  0.9981
   96MOL   C31242302   7.233   7.400   6.009  0.6340  0.8058  0.2467
   96MOL   C31342303   7.193   7.255   6.054 -0.0396 -0.4181  0.2492
   96MOL   C31442304   7.104   7.182   5.952 -0.7176  0.3472 -0.2963
   96MOL   C31542305   7.164   7.193   5.809 -0.4837 -0.2240  0.3837
   96MOL   C31642306   7.184   7.337   5.769  0.7292 -0.1922  0.0431
   96MOL   C31742307   7.413   7.538   5.691 -0.6228  0.0458  0.5225
   96MOL   H31842308   7.403   7.572   5.904 -0.4749  0.3250 -0.2179
   96MOL   H31942309   7.371   7.336   5.878  0.6666 -0.0259  2.1819
   96MOL   H32042310   7.317   7.433   6.070  0.9738  0.9247 -0.2798
   96MOL   H32142311   7.148   7.468   6.019 -0.3319 -0.1964 -0.9365
   96MOL   H32242312   7.150   7.262   6.154 -1.9385 -2.2834 -0.4061
   96MOL   H32342313   7.294   7.212   6.056  0.5833  0.9529 -0.9348
   96MOL   H32442314   7.106   7.079   5.987 -2.0147 -0.5529 -2.7613
   96MOL   H32542315   7.000   7.214   5.955 -0.5286  1.0323 -0.7968
   96MOL   H32642316   7.260   7.140   5.811 -0.6477 -0.5907 -0.8326
   96MOL   H32742317   7.107   7.137   5.735  0.3620 -0.5014 -0.0695
   96MOL   H32842318   7.089   7.391   5.769  2.0015  2.1315  1.1046
   96MOL   H32942319   7.223   7.336   5.668  1.1875 -0.6902  0.2245
   96MOL   H33042320   7.461   7.634   5.672 -1.2284  0.3238  0.3609
   96MOL   H33142321   7.335   7.539   5.616  0.5446 -1.2211 -0.7346
   96MOL   C33242322   7.522   7.425   5.664  0.0087  0.0996 -0.0397
   96MOL   C33342323   7.662   7.449   5.736 -0.1760 -0.3595 -0.4353
   96MOL   C33442324   7.662   7.431   5.881  0.3323 -0.0992 -1.2919
   96MOL   C33542325   0.035   7.422   5.934 -0.1231 -0.5491 -0.3682
   96MOL   C33642326   0.119   7.543   5.892 -0.1680  0.0715 -0.0999
   96MOL   C33742327   0.099   7.576   5.742  0.5785  0.3154 -0.1993
   96MOL   C33842328   7.721   7.583   5.699 -0.0811 -0.4881  0.3148
   96MOL   C33942329   7.531   7.406   5.510 -0.2301 -0.2117  0.3361
   96MOL   H34042330   7.478   7.331   5.699 -0.2064 -0.4135 -1.6740
   96MOL   H34142331   7.729   7.375   5.692 -0.1934 -1.2935  1.0910
   96MOL   H34242332   7.612   7.519   5.921  0.7657  0.4021 -1.8537
   96MOL   H34342333   7.607   7.339   5.901  0.0929  0.4917  0.8801
   96MOL   H34442334   0.038   7.421   6.043 -3.3284  0.0514 -0.2159
   96MOL   H34542335   0.067   7.325   5.897  2.0593  0.9852 -2.6397
   96MOL   H34642336   0.103   7.633   5.951 -0.8481 -0.2438  0.1926
   96MOL   H34742337   0.224   7.522   5.910 -0.3347 -1.4312 -0.7972
   96MOL   H34842338   0.137   7.500   5.673 -0.6094  0.2738 -0.8244
   96MOL   H34942339   0.142   7.672   5.713 -1.5517  0.9499 -1.3422
   96MOL   H35042340   7.712   7.608   5.593  2.5129  3.1734  0.8458
   96MOL   H35142341   7.673   7.668   5.748 -0.5334 -0.0495 -0.8528
   96MOL   H35242342   7.541   7.504   5.464  5.2423 -1.5557 -1.7564
   96MOL   H35342343   7.434   7.374   5.473 -0.4250  0.6637  0.0896
   96MOL   C35442344   7.630   7.306   5.450 -0.3751 -0.3551 -0.1256
   96MOL   C35542345   7.643   7.310   5.292 -0.2275 -0.2595  0.8787
   96MOL   C35642346   7.714   7.438   5.249 -0.4109  0.0449 -0.0553
   96MOL   C35742347   7.767   7.436   5.104  0.1471 -0.7611  0.0592
   96MOL   C35842348   7.644   7.408   5.011  0.2328 -0.1164 -0.0232
   96MOL   C35942349   7.549   7.288   5.053  0.0178  0.2731 -0.0940
   96MOL   C36042350   7.510   7.294   5.212  0.6831  0.5318 -0.0490
   96MOL   C36142351   7.600   7.168   5.504  0.1151 -0.5553  0.0908
   96MOL   H36242352   7.728   7.332   5.491 -1.4639  1.9333  1.0514
   96MOL   H36342353   7.712   7.233   5.257  0.9234  0.9514  0.4488
   96MOL   H36442354   0.025   7.462   5.315  1.5505  1.4168 -2.9461
   96MOL   H36542355   7.642   7.520   5.247 -0.5804 -0.0658  1.2341
   96MOL   H36642356   0.032   7.538   5.093  0.9721 -1.0115  0.4563
   96MOL   H36742357   0.072   7.362   5.085  0.3499 -0.8432  1.1737
   96MOL   H36842358   7.571   7.489   5.009  0.0964 -0.2680 -1.7329
   96MOL   H36942359   7.661   7.411   4.904  3.0430  2.2618  0.4082
   96MOL   H37042360   7.456   7.302   4.997 -1.0481  0.0145  1.5904
   96MOL   H37142361   7.589   7.194   5.015  3.0113  1.4778  0.0074
   96MOL   H37242362   7.463   7.208   5.260  2.2914  1.3066  3.0645
   96MOL   H37342363   7.446   7.378   5.237 -1.2216 -0.5750 -1.0751
   96MOL   H37442364   7.495   7.147   5.482 -0.2330 -0.4266  1.5906
   96MOL   H37542365   7.603   7.183   5.611 -1.6617  0.5487  0.0122
   96MOL   C37642366   7.695   7.053   5.465 -0.2135 -0.3574 -0.2168
   96MOL   C37742367   0.061   7.064   5.533  0.9133  0.2853 -0.5510
   96MOL   C37842368   0.172   7.000   5.454 -0.3575 -0.4990 -0.2509
   96MOL   C37942369   0.312   7.031   5.528  0.3466 -0.0285  0.2766
   96MOL   C38042370   0.308   6.996   5.677 -0.0635  0.4120 -0.1937
   96MOL   C38142371   0.187   7.050   5.747 -0.0280 -0.0791  0.5560
   96MOL   C38242372   0.056   7.013   5.674  0.1673 -0.3440 -0.0311
   96MOL   C38342373   7.628   6.914   5.480 -0.9299 -0.1646  0.2093
   96MOL   H38442374   7.719   7.051   5.359  0.0291  1.7048 -0.2212
   96MOL   H38542375   0.081   7.172   5.537 -0.8583  0.7359 -2.8883
   96MOL   H38642376   0.160   6.892   5.452 -0.0753 -0.5458  0.3156
   96MOL   H38742377   0.174   7.044   5.355  0.1345  0.6258  0.2474
   96MOL   H38842378   0.332   7.137   5.512 -0.5381 -0.2152 -2.2251
   96MOL   H38942379   0.396   6.978   5.483 -1.0073 -1.1045 -1.0593
   96MOL   H39042380   0.301   6.887   5.677 -3.7227  0.5873 -1.6768
   96MOL   H39142381   0.400   7.023   5.728 -0.4201  1.5786 -0.1607
   96MOL   H39242382   0.197   7.010   5.848  1.3192 -3.3825 -0.8402
   96MOL   H39342383   0.198   7.159   5.755  1.3357 -0.2176  0.6411
   96MOL   H39442384   0.022   6.909   5.678  0.7264 -0.5287 -0.0463
   96MOL   H39542385   7.761   7.081   5.726  0.9813 -0.9598  1.8505
   96MOL   H39642386   7.575   6.918   5.575 -2.8241  3.9822 -0.9239
   96MOL   H39742387   7.705   6.837   5.487  0.7045  1.3769 -0.4091
   96MOL   C39842388   7.521   6.874   5.377 -0.0106 -0.1620  0.3060
   96MOL   C39942389   7.572   6.767   5.268 -0.0920 -0.9514  0.1229
   96MOL   C40042390   7.698   6.812   5.201  0.0101  0.0408 -0.4136
   96MOL   C40142391   7.753   6.702   5.097  0.5249 -0.0429  0.3985
   96MOL   C40242392   7.770   6.563   5.161  0.0536  0.4263  0.1041
   96MOL   C40342393   7.628   6.529   5.209  0.8063 -0.4245  0.3405
   96MOL   C40442394   7.577   6.625   5.318 -0.2732 -0.1248  0.1546
   96MOL   C40542395   7.392   6.822   5.443 -0.0743 -0.1812  0.1569
   96MOL   H40642396   7.496   6.967   5.326  0.1676  0.2060  0.8811
   96MOL   H40742397   7.498   6.762   5.188 -0.4939 -0.0809  0.4354
   96MOL   H40842398   0.002   6.830   5.277 -0.2788  1.9244 -0.5635
   96MOL   H40942399   7.671   6.908   5.159 -0.6154 -0.2715 -0.7216
   96MOL   H41042400   0.068   6.740   5.044  0.7666  0.6340  1.2503
   96MOL   H41142401   7.678   6.701   5.018  0.0651  3.7429  0.6845
   96MOL   H41242402   0.075   6.561   5.238 -2.0972 -1.3449  2.2550
   96MOL   H41342403   0.034   6.491   5.087 -0.9221  0.8699 -0.8214
   96MOL   H41442404   7.553   6.529   5.130  0.5128  2.1754  0.5712
   96MOL   H41542405   7.625   6.429   5.253 -0.4923 -0.6238 -0.2037
   96MOL   H41642406   7.475   6.592   5.340 -0.4788  0.8638  0.6881
   96MOL   H41742407   7.635   6.617   5.410 -0.3103 -1.0900  0.1069
   96MOL   H41842408   7.338   6.762   5.370 -2.8225  0.9174  1.2204
   96MOL   H41942409   7.423   6.748   5.517  1.4248  0.0586 -0.2154
   96MOL   C42042410   7.288   6.921   5.500  0.4654  0.1076  0.1511
   96MOL   C42142411   7.186   6.852   5.592 -0.1193  0.7166 -0.1214
   96MOL   C42242412   7.254   6.789   5.719 -0.4936  0.8530 -0.4332
   96MOL   C42342413   7.146   6.726   5.810 -0.5688 -0.1372 -0.9315
   96MOL   C42442414   7.047   6.633   5.733  0.5142 -0.2708 -0.6446
   96MOL   C42542415   6.990   6.701   5.605 -0.4329 -0.1894  0.9543
   96MOL   C42642416   7.101   6.749   5.511 -0.3935 -0.4112 -0.2137
   96MOL   C42742417   7.215   7.013   5.388 -0.6175 -0.3935  0.0782
   96MOL   H42842418   7.330   6.990   5.573 -1.9327  0.2324  1.4822
   96MOL   H42942419   7.115   6.925   5.631  1.4586  2.3108 -0.1352
   96MOL   H43042420   7.321   6.707   5.691 -2.3269 -1.2602  1.2251
   96MOL   H43142421   7.315   6.863   5.770  0.2214  1.9804 -2.8571
   96MOL   H43242422   7.197   6.682   5.895 -0.2385  1.0710 -0.4942
   96MOL   H43342423   7.086   6.802   5.859 -1.3602 -0.6896 -1.0280
   96MOL   H43442424   6.970   6.595   5.800 -0.5793  0.3222 -1.5469
   96MOL   H43542425   7.095   6.539   5.704  1.5340 -0.7757  2.5300
   96MOL   H43642426   6.917   6.781   5.613 -1.6333 -1.2862  1.1176
   96MOL   H43742427   6.936   6.628   5.545 -0.3029 -0.3435  1.0239
   96MOL   H43842428   7.158   6.661   5.482 -0.2725 -0.4920  0.2689
   96MOL   H43942429   7.065   6.790   5.417  0.6754 -0.7343 -0.7654
   96MOL   H44042430   7.275   7.104   5.381  1.1280 -1.4937  0.4251
   96MOL   H44142431   7.206   6.960   5.293 -0.9784  2.1401 -1.3545
   96MOL   H44242432   7.116   7.048   5.417 -0.0196  0.4852  1.1199
   97MOL     C142433   0.887   3.828   6.201  0.0047 -0.3420  0.1810
   97MOL     C242434   0.834   3.681   6.176 -0.5904 -0.5453 -0.6269
   97MOL     C342435   0.873   3.589   6.297  0.3374  0.0225  0.2681
   97MOL     C442436   0.798   3.456   6.285 -0.1915 -0.1344  0.0694
   97MOL     C542437   0.837   3.385   6.157  0.1449 -0.4566 -0.2561
   97MOL     C642438   0.817   3.474   6.034 -0.4178  0.1348  0.2081
   97MOL     C742439   0.876   3.622   6.047 -0.4781 -0.2759  0.0277
   97MOL     C842440   0.839   3.895   6.329 -0.0676  0.2990 -0.1486
   97MOL     H942441   0.995   3.837   6.190  0.1351 -1.5650  0.3808
   97MOL    H1042442   0.727   3.699   6.167 -0.7031  0.1453  1.7750
   97MOL    H1142443   0.980   3.574   6.309  0.5589  0.6348 -0.8830
   97MOL    H1242444   0.838   3.629   6.392 -0.4628 -1.0063  0.4202
   97MOL    H1342445   0.690   3.466   6.284 -0.1872 -0.1148 -0.1868
   97MOL    H1442446   0.820   3.396   6.374  0.7872  0.6922  0.3978
   97MOL    H1542447   0.773   3.298   6.149  1.1531 -1.1572 -0.8437
   97MOL    H1642448   0.942   3.357   6.164  0.7844  2.3070  2.1890
   97MOL    H1742449   0.871   3.427   5.951 -1.1122 -0.3766  0.0464
   97MOL    H1842450   0.711   3.477   6.011 -0.2813  1.4211 -0.3078
   97MOL    H1942451   0.842   3.680   5.961  1.0412  0.2259 -0.2483
   97MOL    H2042452   0.985   3.621   6.038 -0.5025  0.2420 -0.3411
   97MOL    H2142453   0.893   3.843   6.408  1.1294  1.7796  0.0244
   97MOL    H2242454   0.731   3.881   6.343 -0.2074  1.1566 -0.3952
   97MOL    H2342455   0.841   3.882   6.118 -2.2083 -1.5319  0.5754
   97MOL    C2442456   0.878   4.041   6.341 -0.5003  0.0655 -0.4177
   97MOL    C2542457   0.797   4.144   6.436 -0.1769 -0.3287  0.2550
   97MOL    C2642458   0.819   4.298   6.399 -0.0884 -0.0206 -0.5994
   97MOL    C2742459   0.725   4.378   6.482 -0.1996  0.0864 -0.2337
   97MOL    C2842460   0.752   4.359   6.633 -0.3917  0.5979  0.2615
   97MOL    C2942461   0.710   4.215   6.675  0.1569 -0.3698  0.6281
   97MOL    C3042462   0.800   4.119   6.587  0.8168 -0.1569 -0.4782
   97MOL    C3142463   1.029   4.057   6.375 -0.0834 -0.0471 -0.3472
   97MOL    H3242464   0.861   4.075   6.239  1.5006 -0.1372 -0.8436
   97MOL    H3342465   0.694   4.121   6.408 -0.4586 -1.1001  1.9074
   97MOL    H3442466   0.798   4.303   6.293  2.6989 -3.3394 -1.4270
   97MOL    H3542467   0.921   4.335   6.411 -0.6645  1.5552 -0.4952
   97MOL    H3642468   0.733   4.477   6.436 -0.7893 -0.2298 -1.0440
   97MOL    H3742469   0.621   4.346   6.470  0.1861 -1.0513 -0.5968
   97MOL    H3842470   0.689   4.420   6.697 -0.1504 -1.4885  2.5940
   97MOL    H3942471   0.856   4.373   6.661 -0.1836  0.1316 -0.2889
   97MOL    H4042472   0.737   4.198   6.780  2.0784 -4.1049 -0.3750
   97MOL    H4142473   0.605   4.206   6.651  0.6336  0.0789 -1.6860
   97MOL    H4242474   0.902   4.131   6.623  0.5754  1.8862 -0.4360
   97MOL    H4342475   0.768   4.016   6.605 -2.9127  0.9733 -0.2629
   97MOL    H4442476   1.062   3.969   6.431  3.1980  1.1185 -0.3544
   97MOL    H4542477   1.031   4.133   6.453  0.1295 -2.3372  1.9503
   97MOL    C4642478   1.125   4.091   6.257 -0.0033  0.7574 -0.2280
   97MOL    C4742479   1.272   4.090   6.306  0.0543 -0.4279 -0.0042
   97MOL    C4842480   1.316   4.210   6.406  0.1395  0.5499 -0.0540
   97MOL    C4942481   1.461   4.190   6.457  0.0346 -0.6072 -0.6385
   97MOL    C5042482   1.571   4.163   6.350  0.0395 -0.4162 -0.2675
   97MOL    C5142483   1.527   4.049   6.257  0.0445  0.8679  0.4281
   97MOL    C5242484   1.386   4.066   6.201  0.1943 -0.0765  0.0016
   97MOL    C5342485   1.088   4.219   6.179 -0.4108 -0.3535 -0.1353
   97MOL    H5442486   1.122   4.003   6.194 -1.8126  0.1460  0.6768
   97MOL    H5542487   1.286   4.003   6.369  0.0679 -1.1171 -0.9469
   97MOL    H5642488   1.299   4.307   6.360  0.6120  1.2996  1.3267
   97MOL    H5742489   1.254   4.208   6.495  0.6825 -0.7931  0.3053
   97MOL    H5842490   1.467   4.115   6.535  0.2192  0.8659  0.8083
   97MOL    H5942491   1.500   4.279   6.508 -2.0727  0.1517 -0.3013
   97MOL    H6042492   1.591   4.253   6.292 -1.5897  0.9519  1.2362
   97MOL    H6142493   1.668   4.143   6.394  0.4225  0.0503 -0.8829
   97MOL    H6242494   1.520   3.961   6.321 -0.6014  0.4792 -0.1719
   97MOL    H6342495   1.591   4.032   6.171  0.1715 -1.5373  0.9517
   97MOL    H6442496   1.401   4.164   6.154 -2.4027 -0.3654 -1.5213
   97MOL    H6542497   1.366   3.988   6.127  2.7049 -1.9769  1.2183
   97MOL    H6642498   1.117   4.305   6.240 -0.4726  0.7934 -1.7048
   97MOL    H6742499   0.980   4.235   6.174 -0.2209  0.6694 -1.1988
   97MOL    C6842500   1.127   4.237   6.026  0.0822  0.7480 -0.3549
   97MOL    C6942501   1.043   4.143   5.935 -0.8739 -0.6388  0.1122
   97MOL    C7042502   0.890   4.187   5.915  0.4591 -0.3171 -0.0905
   97MOL    C7142503   0.826   4.086   5.820 -0.1338 -0.1365 -0.6606
   97MOL    C7242504   0.898   4.054   5.691  0.5944  0.2151 -0.0423
   97MOL    C7342505   1.043   4.027   5.702  0.7280  0.1891  0.1558
   97MOL    C7442506   1.107   4.127   5.796  0.9603 -0.8013  0.0544
   97MOL    C7542507   1.116   4.389   5.985 -0.8225 -0.4045  0.0448
   97MOL    H7642508   1.232   4.210   6.016  0.1400 -0.3233  2.5114
   97MOL    H7742509   1.054   4.043   5.976 -1.9649 -1.1230 -0.7252
   97MOL    H7842510   0.887   4.290   5.879  0.9648 -0.5797 -0.9107
   97MOL    H7942511   0.831   4.179   6.006  1.6166  1.4609  0.8446
   97MOL    H8042512   0.820   3.992   5.875  1.5551  0.0045 -0.2229
   97MOL    H8142513   0.719   4.102   5.808 -1.0037 -3.1496  2.5905
   97MOL    H8242514   0.878   4.138   5.623 -1.2413 -1.2887 -1.4373
   97MOL    H8342515   0.854   3.968   5.640 -0.4107  0.6573  0.0508
   97MOL    H8442516   1.092   4.031   5.605  0.0349 -0.9620 -0.2541
   97MOL    H8542517   1.066   3.924   5.729 -0.8865 -0.8496 -2.2639
   97MOL    H8642518   1.109   4.227   5.753 -1.5816 -0.7514 -0.0084
   97MOL    H8742519   1.214   4.105   5.803  0.8475 -0.8280  1.9763
   97MOL    H8842520   1.121   4.388   5.876  0.8375  0.6742  0.1033
   97MOL    H8942521   1.014   4.410   6.017 -0.3551 -0.6142  1.7385
   97MOL    C9042522   1.221   4.488   6.049  0.3651 -0.4249 -0.0929
   97MOL    C9142523   1.361   4.447   6.002 -1.1240  0.4886 -0.4307
   97MOL    C9242524   1.387   4.453   5.849 -0.5126  0.4563  0.0910
   97MOL    C9342525   1.526   4.397   5.817  0.0756 -0.5465  0.2364
   97MOL    C9442526   1.635   4.473   5.895  0.0028  1.3078  0.2571
   97MOL    C9542527   1.608   4.470   6.045 -0.2310 -0.5007  0.7854
   97MOL    C9642528   1.471   4.520   6.077 -0.2144  0.0625 -0.5491
   97MOL    C9742529   1.179   4.635   6.018  0.1379  0.1517 -0.1467
   97MOL    H9842530   1.223   4.480   6.157 -1.6000 -0.7289 -0.0547
   97MOL    H9942531   1.383   4.348   6.040  0.4341  1.1705  0.5006
   97MOL   H10042532   1.379   4.557   5.817 -3.3011  0.4934  0.7654
   97MOL   H10142533   1.314   4.389   5.799  0.3597 -0.3066 -0.2163
   97MOL   H10242534   1.551   4.408   5.711  0.5564  0.0505  0.4093
   97MOL   H10342535   1.528   4.290   5.837 -0.5996 -0.5433  0.3216
   97MOL   H10442536   1.631   4.577   5.864  0.4676  0.9863 -0.8777
   97MOL   H10542537   1.730   4.426   5.872 -0.5225  0.0647  0.5611
   97MOL   H10642538   1.624   4.368   6.080  0.1012 -0.9039 -0.5217
   97MOL   H10742539   1.680   4.523   6.108 -1.3652 -0.5698  2.1936
   97MOL   H10842540   1.449   4.518   6.184  0.6208  2.3473 -0.3071
   97MOL   H10942541   1.473   4.622   6.040  0.3702  0.2572 -0.0021
   97MOL   H11042542   1.265   4.701   6.033 -1.0760  1.9352 -0.9217
   97MOL   H11142543   1.167   4.632   5.910  2.7427  0.8078 -0.4971
   97MOL   C11242544   1.060   4.692   6.100 -0.0703 -1.1030  0.4076
   97MOL   C11342545   0.945   4.725   5.994 -0.1841  0.1295  0.5935
   97MOL   C11442546   0.954   4.854   5.909 -0.3190 -0.1564  0.4697
   97MOL   C11542547   0.837   4.878   5.818 -0.2094  0.4648  0.1842
   97MOL   C11642548   0.709   4.874   5.910  0.0625  0.5745  0.4404
   97MOL   C11742549   0.694   4.740   5.982  0.4720 -0.0338 -0.5718
   97MOL   C11842550   0.812   4.728   6.075 -0.1071  0.4949 -0.7056
   97MOL   C11942551   1.109   4.812   6.189  0.1569 -0.4722 -0.1765
   97MOL   H12042552   1.024   4.610   6.163 -2.7500 -0.2857 -0.0094
   97MOL   H12142553   0.933   4.655   5.911  1.7129 -0.4625  0.7893
   97MOL   H12242554   1.043   4.849   5.845 -0.9320  1.1882 -0.5176
   97MOL   H12342555   0.967   4.944   5.970  0.2033  2.2751 -3.0975
   97MOL   H12442556   0.845   4.981   5.785  1.4372  0.0798 -0.6755
   97MOL   H12542557   0.838   4.808   5.735  2.3973  0.1839  0.4218
   97MOL   H12642558   0.707   4.962   5.973  0.0257 -0.0151  1.2765
   97MOL   H12742559   0.618   4.882   5.851 -0.1274  0.5466  0.7338
   97MOL   H12842560   0.606   4.719   6.043  0.1284  1.9076 -0.3707
   97MOL   H12942561   0.706   4.659   5.910 -1.5642 -0.4439 -0.4731
   97MOL   H13042562   0.785   4.650   6.147 -0.0227  2.7710  1.8664
   97MOL   H13142563   0.798   4.816   6.137 -2.2937 -1.4165  1.6255
   97MOL   H13242564   1.028   4.864   6.241 -0.7438 -4.2459  2.3684
   97MOL   H13342565   1.143   4.889   6.119  0.7182 -1.8284 -1.4072
   97MOL   C13442566   1.221   4.782   6.291  0.3254  0.4635  0.2070
   97MOL   C13542567   1.176   4.692   6.406  0.1204 -0.4011  0.2008
   97MOL   C13642568   1.074   4.750   6.503  0.1893  0.2214  0.1094
   97MOL   C13742569   1.028   4.651   6.616 -0.0472  0.0264 -0.2174
   97MOL   C13842570   1.143   4.584   6.691  0.1055 -1.7011 -0.6493
   97MOL   C13942571   1.237   4.521   6.594  0.1582  0.7057 -0.9535
   97MOL   C14042572   1.289   4.627   6.493 -0.1527  0.5687 -0.8261
   97MOL   C14142573   1.273   4.919   6.343  0.4629  0.3671  0.2957
   97MOL   H14242574   1.310   4.734   6.249 -1.0212 -1.0051 -1.0107
   97MOL   H14342575   1.117   4.614   6.358  0.6059 -0.5683 -0.1386
   97MOL   H14442576   1.122   4.833   6.557 -0.0099  1.3230 -1.3861
   97MOL   H14542577   0.985   4.784   6.452 -0.5789 -1.2184  0.4673
   97MOL   H14642578   0.969   4.579   6.559  0.7307  0.3242 -1.4222
   97MOL   H14742579   0.953   4.707   6.672  0.2867 -1.0478  1.3124
   97MOL   H14842580   1.190   4.652   6.762 -0.5508 -1.4251 -0.4701
   97MOL   H14942581   1.089   4.504   6.740  1.1662 -1.5296  0.8217
   97MOL   H15042582   1.193   4.437   6.539  0.3672  0.0565 -0.1380
   97MOL   H15142583   1.313   4.462   6.646 -0.5603  0.2931 -0.3535
   97MOL   H15242584   1.337   4.698   6.560 -3.6439  1.6112  0.6922
   97MOL   H15342585   1.370   4.581   6.437 -1.4947 -0.7912 -1.6884
   97MOL   H15442586   1.318   4.911   6.442 -0.1893 -1.1643  0.4737
   97MOL   H15542587   1.182   4.977   6.360 -0.3969 -0.8180 -0.1727
   97MOL   C15642588   1.375   5.006   6.258  0.5379  0.2033 -0.0518
   97MOL   C15742589   1.520   4.968   6.280 -0.4790  0.1570  0.4884
   97MOL   C15842590   1.566   4.959   6.427 -0.3413 -0.5333  0.5243
   97MOL   C15942591   1.712   4.970   6.439 -0.8425  0.0211  0.6763
   97MOL   C16042592   1.795   4.880   6.344  0.3946  0.2005 -0.0865
   97MOL   C16142593   1.728   4.864   6.206 -0.2433  0.6346 -0.5428
   97MOL   C16242594   1.574   4.844   6.216 -0.3186 -0.7769  0.0989
   97MOL   C16342595   1.328   5.147   6.288  0.3898 -0.5655 -0.0702
   97MOL   H16442596   1.351   4.987   6.153 -0.9347 -0.2134  0.3451
   97MOL   H16542597   1.578   5.046   6.231 -1.7384  0.4041 -0.6351
   97MOL   H16642598   1.510   5.035   6.482  0.4112 -0.3169  1.0037
   97MOL   H16742599   1.530   4.866   6.472 -2.7007 -1.0137 -2.2496
   97MOL   H16842600   1.742   5.073   6.421 -1.8428  0.2639  0.3933
   97MOL   H16942601   1.744   4.956   6.542 -1.0258  0.1359  0.7490
   97MOL   H17042602   1.799   4.786   6.399  0.9653  0.1799 -0.1602
   97MOL   H17142603   1.898   4.914   6.335  0.6470 -0.2791  0.9419
   97MOL   H17242604   1.753   4.771   6.155 -3.7152 -0.1605 -0.8798
   97MOL   H17342605   1.747   4.942   6.132 -1.5793  0.1533 -1.3923
   97MOL   H17442606   1.534   4.835   6.115  1.7415  1.3317 -0.9491
   97MOL   H17542607   1.547   4.767   6.289  0.5268 -0.4241  0.8024
   97MOL   H17642608   1.343   5.162   6.395  4.3841  0.1008 -0.6546
   97MOL   H17742609   1.225   5.168   6.259  0.7761 -0.3968 -1.3297
   97MOL   C17842610   1.409   5.257   6.221 -0.0663  0.0835  0.8616
   97MOL   C17942611   1.400   5.264   6.062  0.4503  0.5924 -0.3050
   97MOL   C18042612   1.524   5.341   6.000  0.2675  0.9572  1.2854
   97MOL   C18142613   1.520   5.341   5.845  0.3385 -0.2882  0.8341
   97MOL   C18242614   1.388   5.390   5.794 -0.4809 -0.0842 -0.1735
   97MOL   C18342615   1.273   5.310   5.857  0.5092  0.3892  0.3547
   97MOL   C18442616   1.272   5.317   6.002 -0.1856 -0.0695  0.5815
   97MOL   C18542617   1.386   5.397   6.288 -0.5954 -0.5169 -0.3163
   97MOL   H18642618   1.515   5.244   6.243 -0.4315 -0.8454  2.1027
   97MOL   H18742619   1.418   5.162   6.029 -1.3592  0.4400 -0.9103
   97MOL   H18842620   1.526   5.444   6.036 -0.6070  1.1849  0.7027
   97MOL   H18942621   1.612   5.286   6.031  1.5595  0.8596 -2.3225
   97MOL   H19042622   1.548   5.246   5.799  2.7403  1.3145 -1.1220
   97MOL   H19142623   1.597   5.407   5.805 -0.0085  0.1874  0.9426
   97MOL   H19242624   1.384   5.497   5.817 -1.0693 -0.5307  1.9230
   97MOL   H19342625   1.388   5.372   5.687  1.8339 -2.8337  0.2300
   97MOL   H19442626   1.290   5.209   5.819  2.5825  1.2653 -1.1209
   97MOL   H19542627   1.178   5.346   5.818 -1.4421 -1.3905  3.1995
   97MOL   H19642628   1.254   5.422   6.024  0.6149  0.8415 -2.7183
   97MOL   H19742629   1.200   5.248   6.046 -2.3947  0.9345 -1.3315
   97MOL   H19842630   1.448   5.476   6.244  0.1837 -1.4155 -0.8315
   97MOL   H19942631   1.284   5.428   6.263  0.0746  0.1090 -2.3140
   97MOL   C20042632   1.390   5.414   6.446  1.0162  0.0877  0.1406
   97MOL   C20142633   1.518   5.347   6.510  0.2552 -0.1699  0.1726
   97MOL   C20242634   1.646   5.428   6.469 -0.3840  0.7430 -0.3339
   97MOL   C20342635   1.771   5.356   6.525 -0.1598  0.4129  1.2437
   97MOL   C20442636   1.766   5.305   6.672  0.2205  0.1308 -0.3347
   97MOL   C20542637   1.631   5.237   6.705 -0.4041 -0.5678  0.1480
   97MOL   C20642638   1.514   5.324   6.661  0.4328 -0.8010  0.5636
   97MOL   C20742639   1.358   5.554   6.502  0.1708  0.0771 -0.1529
   97MOL   H20842640   1.303   5.359   6.482  0.3394  0.1389 -1.3814
   97MOL   H20942641   1.527   5.250   6.460 -1.6377  0.1948 -0.9127
   97MOL   H21042642   1.642   5.525   6.517 -1.4806 -0.0370  1.2158
   97MOL   H21142643   1.650   5.439   6.361  2.5404  0.5109 -0.2703
   97MOL   H21242644   1.790   5.274   6.456  2.7873  1.4424  0.7672
   97MOL   H21342645   1.855   5.426   6.520 -0.0192  0.0913 -1.4867
   97MOL   H21442646   1.846   5.249   6.720 -1.8778 -1.6421  1.1916
   97MOL   H21542647   1.756   5.400   6.726  0.0216  0.1869 -0.4681
   97MOL   H21642648   1.624   5.137   6.662 -0.8350 -0.1588 -0.7639
   97MOL   H21742649   1.629   5.215   6.812 -2.9949 -1.2854  0.0071
   97MOL   H21842650   1.428   5.279   6.712  0.3451 -2.3147 -0.8763
   97MOL   H21942651   1.527   5.427   6.694 -2.8582  1.0406 -3.4420
   97MOL   H22042652   1.354   5.547   6.610  0.2533  0.6745 -0.1109
   97MOL   H22142653   1.443   5.620   6.490  1.0559 -1.2297 -1.3349
   97MOL   C22242654   1.225   5.621   6.467  0.3801  0.4613 -0.2268
   97MOL   C22342655   1.090   5.539   6.479 -0.0279  0.4673  0.2871
   97MOL   C22442656   0.975   5.584   6.388 -0.1519 -0.3544  0.4588
   97MOL   C22542657   0.861   5.480   6.382  0.4098 -0.0706 -0.0832
   97MOL   C22642658   0.812   5.442   6.528 -0.3472  0.5960  0.6927
   97MOL   C22742659   0.926   5.411   6.625  0.2103  0.5631 -0.0569
   97MOL   C22842660   1.035   5.515   6.623 -0.1707  0.3809  0.3317
   97MOL   C22942661   1.207   5.768   6.513  0.4862  0.2973  0.2550
   97MOL   H23042662   1.232   5.626   6.359  4.0232  0.4509 -0.0405
   97MOL   H23142663   1.114   5.444   6.430 -3.6133 -1.0821  1.4034
   97MOL   H23242664   0.941   5.685   6.410  0.3931  0.1669 -0.9875
   97MOL   H23342665   1.014   5.601   6.287  0.0826  0.8728  0.7444
   97MOL   H23442666   0.896   5.388   6.336  0.3206  0.2336 -0.7632
   97MOL   H23542667   0.770   5.514   6.333  0.8363  0.5295 -0.4731
   97MOL   H23642668   0.734   5.498   6.579 -0.1423  0.6386  0.9642
   97MOL   H23742669   0.747   5.355   6.519 -1.0021  1.0407  1.0830
   97MOL   H23842670   0.968   5.314   6.601  1.6680  1.0487  0.4629
   97MOL   H23942671   0.887   5.395   6.725 -0.6744 -0.2927 -0.5298
   97MOL   H24042672   0.995   5.601   6.676 -3.3909 -0.2080 -1.0492
   97MOL   H24142673   1.121   5.478   6.680 -1.6873 -0.9168  1.8086
   97MOL   H24242674   1.251   5.752   6.612 -1.7607  0.0544  1.2344
   97MOL   H24342675   1.102   5.795   6.521  0.3128 -0.9768  2.7185
   97MOL   C24442676   1.295   5.876   6.441 -0.9340 -0.7149  0.5247
   97MOL   C24542677   1.336   6.011   6.513 -1.0207  0.1482 -0.3253
   97MOL   C24642678   1.431   5.991   6.632  0.3630 -0.7185 -0.1632
   97MOL   C24742679   1.490   6.126   6.673 -0.3740 -0.0793 -0.5474
   97MOL   C24842680   1.381   6.231   6.702  0.0460  0.2720  0.2462
   97MOL   C24942681   1.269   6.239   6.596 -0.7042  0.0539 -0.1524
   97MOL   C25042682   1.216   6.104   6.548  0.4566 -0.3279 -0.3133
   97MOL   C25142683   1.238   5.903   6.298  0.5639 -0.3207 -0.1642
   97MOL   H25242684   1.396   5.835   6.445 -0.2367  0.5370 -2.2306
   97MOL   H25342685   1.394   6.064   6.437 -0.8033  1.5490  0.7968
   97MOL   H25442686   1.513   5.921   6.614  1.3408  0.6543 -1.1945
   97MOL   H25542687   1.370   5.943   6.708  0.8822 -2.0971 -0.5937
   97MOL   H25642688   1.538   6.112   6.770  0.9470 -0.6200 -1.2636
   97MOL   H25742689   1.563   6.168   6.603  1.3547  1.6971  2.2420
   97MOL   H25842690   1.334   6.204   6.797 -0.4059  1.2816  0.3166
   97MOL   H25942691   1.429   6.329   6.700  0.7841 -0.0630  1.1777
   97MOL   H26042692   1.303   6.303   6.514  0.7183 -0.6205 -0.1085
   97MOL   H26142693   1.194   6.306   6.638  0.3171  0.8119  0.5072
   97MOL   H26242694   1.153   6.052   6.621  1.3295 -0.3806  0.4150
   97MOL   H26342695   1.157   6.141   6.465 -3.3036  1.6822  3.0769
   97MOL   H26442696   1.190   6.001   6.301  0.0852 -0.5561 -0.0670
   97MOL   H26542697   1.155   5.833   6.289 -0.5285  1.2221 -2.3466
   97MOL   C26642698   1.324   5.874   6.180 -1.0714 -0.0754 -0.0947
   97MOL   C26742699   1.249   5.839   6.047 -0.2709 -0.0521 -0.9759
   97MOL   C26842700   1.136   5.928   6.025  0.3000 -0.0195 -0.1069
   97MOL   C26942701   1.073   5.894   5.887  0.1572 -0.3447  0.2393
   97MOL   C27042702   1.005   5.762   5.893 -0.1173  0.6099 -0.1569
   97MOL   C27142703   1.115   5.651   5.924 -0.1471 -0.1773  0.5873
   97MOL   C27242704   1.203   5.686   6.053  0.0790  0.2115 -1.0524
   97MOL   C27342705   1.430   5.984   6.157 -0.8595  0.3227  0.0551
   97MOL   H27442706   1.374   5.781   6.208 -0.0601  0.6071  0.3832
   97MOL   H27542707   1.326   5.833   5.970  1.1035 -1.5169  0.4499
   97MOL   H27642708   1.058   5.917   6.100  2.7367 -0.1321  2.4948
   97MOL   H27742709   1.169   6.032   6.021  0.8075 -0.2153 -1.1451
   97MOL   H27842710   1.144   5.896   5.805 -2.6260  1.5645 -2.2111
   97MOL   H27942711   0.993   5.966   5.870 -0.6430 -1.7651 -2.1169
   97MOL   H28042712   0.940   5.783   5.978 -0.5497  1.1566 -0.6235
   97MOL   H28142713   0.942   5.744   5.806  1.2449  0.2210 -1.0701
   97MOL   H28242714   1.181   5.653   5.837  1.3777  1.2674  1.7511
   97MOL   H28342715   1.064   5.555   5.928 -1.0564  0.2025 -1.4549
   97MOL   H28442716   1.299   5.636   6.060  0.6239  1.2514 -0.9338
   97MOL   H28542717   1.153   5.662   6.146 -0.9961  1.1512 -1.3753
   97MOL   H28642718   1.463   6.027   6.252 -0.7580  0.2297  0.0629
   97MOL   H28742719   1.370   6.066   6.117 -2.1579 -1.0637 -0.8995
   97MOL   C28842720   1.554   5.946   6.078  0.0893 -0.1072 -0.1169
   97MOL   C28942721   1.673   5.872   6.147 -0.2451  0.1317 -0.3172
   97MOL   C29042722   1.710   5.933   6.285 -0.5362 -0.0765 -0.4669
   97MOL   C29142723   1.833   5.861   6.344  0.6041 -0.1923 -0.0678
   97MOL   C29242724   1.829   5.706   6.347  0.1260  0.6606  0.2815
   97MOL   C29342725   1.779   5.655   6.210 -0.0505  0.1682  0.0454
   97MOL   C29442726   1.646   5.716   6.161  0.6354  0.1485 -0.4688
   97MOL   C29542727   1.596   6.074   5.994  0.8631 -0.1211 -0.0118
   97MOL   H29642728   1.533   5.870   6.003 -3.8091 -2.3236  3.0216
   97MOL   H29742729   1.761   5.873   6.083 -0.1365 -1.1501 -0.2133
   97MOL   H29842730   1.717   6.042   6.290 -0.3178 -0.1603  1.2318
   97MOL   H29942731   1.623   5.908   6.345 -0.8970  1.1209 -0.4875
   97MOL   H30042732   1.920   5.894   6.287 -1.1008 -0.2973 -2.8092
   97MOL   H30142733   1.855   5.899   6.444 -0.6015  2.3609 -0.7119
   97MOL   H30242734   1.753   5.670   6.417 -0.2361 -0.2843 -0.5712
   97MOL   H30342735   1.915   5.651   6.385 -1.0387 -1.8338 -0.5524
   97MOL   H30442736   1.769   5.546   6.207  1.7651  0.0023 -0.4106
   97MOL   H30542737   1.857   5.671   6.135  0.3446  1.3106  0.6905
   97MOL   H30642738   1.571   5.699   6.239 -1.9821 -1.7416 -3.2805
   97MOL   H30742739   1.621   5.670   6.065  1.1269  1.0884 -1.0549
   97MOL   H30842740   1.511   6.124   5.948  1.8761  2.7752  1.1327
   97MOL   H30942741   1.621   6.153   6.065 -3.0312 -0.4914  1.9028
   97MOL   C31042742   1.706   6.066   5.886  1.1107 -0.2660 -0.3394
   97MOL   C31142743   1.683   5.958   5.779 -0.6733  0.0691  0.0879
   97MOL   C31242744   1.554   5.972   5.697  0.5203  0.3997  0.5896
   97MOL   C31342745   1.536   5.843   5.604 -0.0054  0.1864  0.2024
   97MOL   C31442746   1.655   5.812   5.512 -0.4409 -0.2261  0.8926
   97MOL   C31542747   1.791   5.816   5.592  0.3372 -0.3394  0.5391
   97MOL   C31642748   1.800   5.944   5.679 -0.3900  0.3284  0.7304
   97MOL   C31742749   1.722   6.209   5.817  0.3252  0.1292 -0.4255
   97MOL   H31842750   1.791   6.036   5.947  1.5533  0.8687 -0.3791
   97MOL   H31942751   1.674   5.868   5.840 -3.3685  0.3763  0.2047
   97MOL   H32042752   1.461   5.984   5.753  0.6340  1.5261  0.5386
   97MOL   H32142753   1.569   6.062   5.638 -2.2076  0.0277 -0.7372
   97MOL   H32242754   1.452   5.872   5.541 -1.7700 -2.4881  1.2841
   97MOL   H32342755   1.519   5.750   5.658  3.3952 -1.0892 -0.7625
   97MOL   H32442756   1.626   5.725   5.454 -1.8049  0.9399 -0.2267
   97MOL   H32542757   1.662   5.891   5.437 -2.9371  0.0790  0.9288
   97MOL   H32642758   1.807   5.724   5.648 -0.1566 -1.2246 -0.7473
   97MOL   H32742759   1.877   5.812   5.525 -1.2905 -1.9301 -1.5303
   97MOL   H32842760   1.815   6.022   5.604 -0.6840  1.3096  1.6888
   97MOL   H32942761   1.897   5.939   5.727 -0.1952 -0.3226  0.2872
   97MOL   H33042762   1.630   6.267   5.806  0.5701  0.6383  0.2020
   97MOL   H33142763   1.750   6.197   5.713 -0.6361  1.0711 -0.8021
   97MOL   C33242764   1.827   6.288   5.896 -0.1522  0.2478  0.0496
   97MOL   C33342765   1.826   6.440   5.862 -0.3886 -0.7308 -0.3736
   97MOL   C33442766   1.717   6.513   5.942 -0.0973 -0.1920 -0.1665
   97MOL   C33542767   1.710   6.667   5.905  0.7259  0.7390  0.4223
   97MOL   C33642768   1.700   6.695   5.754  0.3803 -0.8104  0.2846
   97MOL   C33742769   1.806   6.621   5.676  0.9548 -0.5241 -0.1137
   97MOL   C33842770   1.809   6.478   5.712  0.0883 -0.1855  0.0348
   97MOL   C33942771   1.970   6.226   5.869  0.4482  0.4727 -0.1795
   97MOL   H34042772   1.800   6.284   6.002 -0.6153 -0.1162 -0.0786
   97MOL   H34142773   1.919   6.479   5.904  0.3602 -0.6479 -2.0841
   97MOL   H34242774   1.626   6.454   5.935  0.5481 -1.1713 -0.4133
   97MOL   H34342775   1.736   6.515   6.049 -1.2784 -1.5103  0.0833
   97MOL   H34442776   1.632   6.723   5.956 -1.4508  0.1475 -2.1128
   97MOL   H34542777   1.810   6.706   5.925  0.3440  2.4556 -0.8786
   97MOL   H34642778   1.606   6.661   5.711  1.7787 -3.6456 -0.6737
   97MOL   H34742779   1.703   6.803   5.748  2.8384 -0.8566  0.1510
   97MOL   H34842780   1.908   6.660   5.679  0.5246  0.5083  1.9466
   97MOL   H34942781   1.761   6.614   5.577 -0.7697  3.5375  0.2567
   97MOL   H35042782   1.887   6.433   5.650 -1.1168 -2.6595  0.2277
   97MOL   H35142783   1.714   6.434   5.683 -0.2570 -0.2621  1.2400
   97MOL   H35242784   2.012   6.280   5.784  0.8036 -0.5135 -0.6369
   97MOL   H35342785   1.980   6.120   5.846  1.6145  0.1526  1.5957
   97MOL   C35442786   2.071   6.240   5.992 -0.6303  0.1828  1.1826
   97MOL   C35542787   2.218   6.179   5.956  0.3956  0.2726 -0.4781
   97MOL   C35642788   2.294   6.263   5.845  0.3100  0.0769 -0.6262
   97MOL   C35742789   2.441   6.219   5.840  0.0803  0.5923  0.1593
   97MOL   C35842790   2.446   6.067   5.818  0.1233  0.8202  0.3459
   97MOL   C35942791   2.364   5.986   5.919 -0.8161 -0.1149 -0.5974
   97MOL   C36042792   2.217   6.031   5.918  0.3964 -0.3056 -0.0555
   97MOL   C36142793   2.019   6.196   6.130  0.7792  0.2560  0.2438
   97MOL   H36242794   2.087   6.347   6.000 -3.3142  0.7648 -0.9286
   97MOL   H36342795   2.271   6.183   6.051 -0.7815 -0.2201  0.2132
   97MOL   H36442796   2.302   6.369   5.868  2.1803 -0.1936  0.0670
   97MOL   H36542797   2.237   6.239   5.756 -0.2951 -2.5592  0.4108
   97MOL   H36642798   2.496   6.278   5.766 -0.4626 -0.4853 -1.1326
   97MOL   H36742799   2.468   6.260   5.937 -0.5413 -0.3003  0.7048
   97MOL   H36842800   2.427   6.041   5.714  1.1888 -1.0515  0.5840
   97MOL   H36942801   2.548   6.032   5.838 -0.4946 -1.8910 -1.0914
   97MOL   H37042802   2.362   5.882   5.886 -0.8979 -0.1506 -0.4810
   97MOL   H37142803   2.398   5.990   6.023  0.6824 -1.1311 -1.0266
   97MOL   H37242804   2.159   5.967   5.984  3.3934 -1.4240  1.6064
   97MOL   H37342805   2.190   6.010   5.814 -1.8282 -4.1377  1.1924
   97MOL   H37442806   2.056   6.093   6.126  0.6961  0.2358  0.0083
   97MOL   H37542807   1.912   6.179   6.125  1.0614 -1.6084  0.0717
   97MOL   C37642808   2.069   6.266   6.254  0.1029  0.7022  0.1173
   97MOL   C37742809   1.989   6.390   6.279 -0.3255  0.6106  0.1277
   97MOL   C37842810   2.065   6.486   6.373 -0.5915 -0.1531 -0.1153
   97MOL   C37942811   1.998   6.625   6.382  0.2376 -0.4888 -0.5369
   97MOL   C38042812   1.860   6.597   6.439  0.3021 -0.6036 -0.0310
   97MOL   C38142813   1.774   6.501   6.341 -0.1780  0.1148 -0.5642
   97MOL   C38242814   1.845   6.368   6.329 -1.1695 -0.4708 -0.0916
   97MOL   C38342815   2.084   6.169   6.369  0.6152 -0.0696  0.4831
   97MOL   H38442816   2.172   6.289   6.226  0.1599  0.0251 -0.2290
   97MOL   H38542817   1.973   6.447   6.188 -2.5102 -1.6739 -0.9970
   97MOL   H38642818   2.059   6.455   6.477 -0.7299  0.0271 -0.0700
   97MOL   H38742819   2.171   6.502   6.351 -1.0114  0.7592 -1.5339
   97MOL   H38842820   1.999   6.672   6.284 -1.6560 -1.7511 -1.1957
   97MOL   H38942821   2.041   6.701   6.447 -0.3740 -0.9046  0.3798
   97MOL   H39042822   1.860   6.560   6.542 -3.3584 -1.5264 -0.2961
   97MOL   H39142823   1.806   6.691   6.442 -2.4812 -2.1428  0.0342
   97MOL   H39242824   1.675   6.477   6.379  0.3759  0.6994  1.2864
   97MOL   H39342825   1.753   6.546   6.244 -1.3440  0.0732 -0.3434
   97MOL   H39442826   1.851   6.314   6.424  0.2535 -0.7237 -0.3156
   97MOL   H39542827   1.783   6.314   6.258 -2.4537  2.0100 -0.8941
   97MOL   H39642828   2.091   6.067   6.332 -1.3336 -0.6142  1.4874
   97MOL   H39742829   1.998   6.166   6.437 -1.8141  0.7212 -2.4436
   97MOL   C39842830   2.217   6.190   6.454 -0.3684 -0.3500 -0.1392
   97MOL   C39942831   2.204   6.114   6.588 -0.8540 -0.3801  0.0639
   97MOL   C40042832   2.129   6.203   6.694 -0.4675 -0.5836  0.7271
   97MOL   C40142833   2.103   6.133   6.826  0.7893 -0.1066 -0.8163
   97MOL   C40242834   2.034   5.994   6.806 -0.3194 -0.6563  0.0809
   97MOL   C40342835   2.113   5.907   6.709 -0.0110 -0.7203  0.1351
   97MOL   C40442836   2.134   5.979   6.575  0.0554  0.0072  0.1910
   97MOL   C40542837   2.346   6.145   6.380 -0.7656 -0.0093  0.5748
   97MOL   H40642838   2.220   6.297   6.473  1.2926 -0.9516  3.3714
   97MOL   H40742839   2.306   6.098   6.621 -1.1657  1.3364  1.9401
   97MOL   H40842840   2.033   6.223   6.645  2.1605  0.7626 -4.1710
   97MOL   H40942841   2.191   6.291   6.709 -0.2685 -0.5499 -0.2130
   97MOL   H41042842   2.045   6.202   6.886 -2.1678 -3.9775  1.0463
   97MOL   H41142843   2.200   6.110   6.872  0.4381  0.0661  0.0131
   97MOL   H41242844   1.951   6.028   6.744  0.8757  0.2114 -1.0710
   97MOL   H41342845   2.003   5.948   6.900  0.9812 -0.6722  0.5174
   97MOL   H41442846   2.208   5.889   6.760  0.4626  1.6997  0.1368
   97MOL   H41542847   2.056   5.814   6.700  0.8731 -1.1651 -0.9663
   97MOL   H41642848   2.198   5.925   6.505  2.0281  2.4738  0.0159
   97MOL   H41742849   2.041   5.977   6.519  1.2923  0.3554 -1.9260
   97MOL   H41842850   2.386   6.061   6.436 -0.8415 -0.1541  0.4140
   97MOL   H41942851   2.308   6.100   6.288  1.2262 -1.5461  0.4625
   97MOL   C42042852   2.454   6.255   6.354 -0.1653  0.6482 -0.2996
   97MOL   C42142853   2.552   6.216   6.236  0.5500 -0.6123 -0.6753
   97MOL   C42242854   2.606   6.074   6.252 -0.4996 -0.1644  0.0487
   97MOL   C42342855   2.698   6.041   6.137 -0.1592  0.3362  0.3925
   97MOL   C42442856   2.814   6.150   6.135  0.4212  1.0611 -0.0606
   97MOL   C42542857   2.764   6.286   6.101 -0.1400  0.2700 -0.1721
   97MOL   C42642858   2.665   6.331   6.210 -0.2264  0.8232 -0.1916
   97MOL   C42742859   2.521   6.301   6.483  0.0113  0.2073 -0.0511
   97MOL   H42842860   2.408   6.348   6.322 -0.7911  0.3026 -0.4098
   97MOL   H42942861   2.481   6.217   6.154 -2.1534 -2.3436  1.5466
   97MOL   H43042862   2.659   6.067   6.347 -1.2090 -0.0878  0.4533
   97MOL   H43142863   2.526   6.000   6.253 -0.4548 -0.2180 -0.3841
   97MOL   H43242864   2.748   5.946   6.158  1.2529  1.1223  0.7009
   97MOL   H43342865   2.645   6.022   6.044 -1.3504 -3.0188  1.6879
   97MOL   H43442866   2.881   6.107   6.061  2.1286 -0.1550  2.1529
   97MOL   H43542867   2.863   6.149   6.232 -1.9603 -1.1196  1.1564
   97MOL   H43642868   2.716   6.263   6.006  2.1170 -1.3668 -0.9705
   97MOL   H43742869   2.853   6.349   6.091  0.7271 -1.1850 -1.8723
   97MOL   H43842870   2.722   6.346   6.302  1.6106  0.9697 -1.3274
   97MOL   H43942871   2.604   6.419   6.186 -0.0070  0.9085 -0.4360
   97MOL   H44042872   2.610   6.244   6.508  0.3367 -0.2348 -2.1888
   97MOL   H44142873   2.559   6.399   6.453  1.0187 -1.3359 -4.1334
   97MOL   H44242874   2.459   6.308   6.573 -0.7733  0.3913 -0.6065
   98MOL     C142875   6.649   6.197   6.945  0.4015  0.1245 -0.3668
   98MOL     C242876   6.701   6.299   7.049  0.2772  0.2195  0.4281
   98MOL     C342877   6.590   6.380   7.110 -0.5136  0.5913 -0.6611
   98MOL     C442878   6.642   6.487   7.201 -0.0797 -0.0838  0.3787
   98MOL     C542879   6.735   6.580   7.126 -0.2625 -0.4350  0.0102
   98MOL     C642880   6.852   6.509   7.074 -0.4948  0.2985  0.2481
   98MOL     C742881   6.806   6.393   6.986  0.7568 -0.4620  0.2391
   98MOL     C842882   6.736   6.083   6.909  0.5208 -0.2244 -0.8902
   98MOL     H942883   6.568   6.145   6.996 -0.4952  3.0514  1.3374
   98MOL    H1042884   6.746   6.239   7.128 -0.8155 -0.5608  0.4658
   98MOL    H1142885   6.533   6.421   7.027  0.7085  0.3689 -1.6233
   98MOL    H1242886   6.520   6.315   7.161 -0.6070 -1.1172 -2.8782
   98MOL    H1342887   6.691   6.454   7.293 -0.1248  0.2855  0.5343
   98MOL    H1442888   6.553   6.543   7.230  1.0107  1.9361 -0.0456
   98MOL    H1542889   6.761   6.667   7.187  0.2412  0.1777 -1.0522
   98MOL    H1642890   6.685   6.623   7.039  0.0480 -1.7434 -0.8235
   98MOL    H1742891   6.934   6.570   7.036 -0.8463  0.4997 -0.2017
   98MOL    H1842892   6.892   6.468   7.166  0.5406  1.3497  0.2872
   98MOL    H1942893   6.896   6.335   6.964  0.7851 -0.5322  0.5315
   98MOL    H2042894   6.764   6.441   6.898  2.0359  1.5252  0.6795
   98MOL    H2142895   6.712   5.996   6.970 -0.8064  0.1083 -0.9398
   98MOL    H2242896   6.837   6.114   6.937 -0.2433  0.5882  1.0303
   98MOL    H2342897   6.599   6.254   6.867  1.2260  4.2610  1.9540
   98MOL    C2442898   6.732   6.025   6.773 -0.1438  0.4386  0.0901
   98MOL    C2542899   6.821   6.110   6.669 -0.2658 -0.7931 -0.4349
   98MOL    C2642900   6.976   6.124   6.690 -0.1915 -0.0017  0.4492
   98MOL    C2742901   7.048   6.202   6.580  0.1197  0.2173  0.4347
   98MOL    C2842902   6.982   6.335   6.554  0.5393  0.8143  0.5437
   98MOL    C2942903   6.839   6.304   6.508  0.4830 -0.2264 -0.1321
   98MOL    C3042904   6.754   6.242   6.620  0.8664 -0.1497 -0.5612
   98MOL    C3142905   6.783   5.881   6.768 -0.6519  0.5947 -0.5732
   98MOL    H3242906   6.628   6.041   6.743 -0.7941  0.3388  2.1746
   98MOL    H3342907   6.822   6.045   6.581 -1.4315 -1.8295  0.3070
   98MOL    H3442908   7.018   6.024   6.689  1.3786  0.6226  2.0303
   98MOL    H3542909   7.001   6.166   6.787  1.0411 -2.6535  1.3282
   98MOL    H3642910   7.153   6.217   6.602 -0.0645  3.2324 -0.5056
   98MOL    H3742911   7.044   6.140   6.490 -2.2048 -0.5556  1.0304
   98MOL    H3842912   7.028   6.379   6.466  0.2887 -1.0457 -0.5280
   98MOL    H3942913   6.975   6.400   6.642  0.3449  0.6565  0.6437
   98MOL    H4042914   6.790   6.394   6.471 -1.4728 -0.7370  1.1233
   98MOL    H4142915   6.833   6.228   6.430  3.3056 -0.9411  0.2908
   98MOL    H4242916   6.727   6.314   6.697 -0.8880  0.2061 -1.4679
   98MOL    H4342917   6.656   6.234   6.572  0.8646  1.6142 -0.8881
   98MOL    H4442918   6.882   5.878   6.813  1.2302 -1.5710 -4.6109
   98MOL    H4542919   6.805   5.848   6.666  1.9139  0.8713 -0.1452
   98MOL    C4642920   6.700   5.761   6.831 -0.0042 -0.7212 -0.3477
   98MOL    C4742921   6.783   5.625   6.843 -0.9157 -0.0866 -0.5179
   98MOL    C4842922   6.902   5.633   6.942  0.2267 -0.5972  0.5524
   98MOL    C4942923   6.959   5.490   6.950 -0.9332  0.0632  0.1486
   98MOL    C5042924   6.992   5.421   6.820  0.5463  0.6282  0.0958
   98MOL    C5142925   6.888   5.427   6.717 -0.3636 -0.0911 -0.4344
   98MOL    C5242926   6.833   5.567   6.715 -0.6116 -0.1979  0.3527
   98MOL    C5342927   6.553   5.746   6.776  0.1052  0.8773 -0.1980
   98MOL    H5442928   6.683   5.786   6.936  0.8489  0.8503 -0.5676
   98MOL    H5542929   6.717   5.553   6.890 -0.9394  0.3822  0.1854
   98MOL    H5642930   6.975   5.700   6.897  2.3171 -2.6437  0.7530
   98MOL    H5742931   6.868   5.674   7.037 -2.2362 -0.2279 -0.4605
   98MOL    H5842932   6.896   5.414   6.996  0.9539 -1.5325  0.1652
   98MOL    H5942933   7.050   5.494   7.011 -0.7870  1.5314 -0.1384
   98MOL    H6042934   7.082   5.459   6.771  0.9237  1.0490  1.1120
   98MOL    H6142935   7.036   5.321   6.832  0.1336  0.0687 -2.6284
   98MOL    H6242936   6.809   5.354   6.738 -0.4750  0.1263 -0.1095
   98MOL    H6342937   6.929   5.402   6.619  2.2793 -0.6378  0.7612
   98MOL    H6442938   6.900   5.632   6.658 -0.6156 -0.1118  0.4467
   98MOL    H6542939   6.749   5.566   6.645 -0.0818 -0.3965 -0.2831
   98MOL    H6642940   6.559   5.713   6.672  0.0257  2.2762 -0.6506
   98MOL    H6742941   6.500   5.841   6.769  0.8093  1.1446 -2.0023
   98MOL    C6842942   6.460   5.643   6.846 -0.3652 -0.1232 -0.0476
   98MOL    C6942943   6.430   5.676   6.997  0.3630  0.0969  0.1978
   98MOL    C7042944   6.347   5.811   7.015  0.0865 -0.5425  0.2083
   98MOL    C7142945   6.342   5.844   7.166 -0.3487 -0.0209  0.6023
   98MOL    C7242946   6.290   5.734   7.257  0.0358 -0.7093 -0.1985
   98MOL    C7342947   6.346   5.599   7.230  0.2951 -0.5002  0.3464
   98MOL    C7442948   6.359   5.565   7.082 -0.2050  0.6983  0.7122
   98MOL    C7542949   6.337   5.611   6.754  0.7048  0.2500 -0.7752
   98MOL    H7642950   6.521   5.552   6.850 -1.9104 -1.1050  2.4961
   98MOL    H7742951   6.529   5.689   7.039  0.4988 -0.1157 -0.0558
   98MOL    H7842952   6.250   5.815   6.967  0.3310 -0.1126 -0.2527
   98MOL    H7942953   6.400   5.896   6.970 -1.3542 -0.1304 -0.7361
   98MOL    H8042954   6.445   5.865   7.194 -0.3828  2.2621 -0.8429
   98MOL    H8142955   6.291   5.938   7.185  0.9097  0.6649  0.6027
   98MOL    H8242956   6.183   5.746   7.240 -0.4704 -1.8730  1.9769
   98MOL    H8342957   6.308   5.752   7.363  0.4785  0.5493 -0.4783
   98MOL    H8442958   6.289   5.522   7.282  0.1241 -1.8277 -1.7432
   98MOL    H8542959   6.446   5.587   7.272  0.4989 -1.4426 -0.3876
   98MOL    H8642960   6.263   5.526   7.047 -0.5855  2.5015 -0.2873
   98MOL    H8742961   6.422   5.477   7.067 -1.6383 -0.1080 -0.7684
   98MOL    H8842962   6.252   5.601   6.821  0.8027  1.8448 -0.3894
   98MOL    H8942963   6.304   5.703   6.704  1.0497 -0.2268 -1.8981
   98MOL    C9042964   6.330   5.492   6.655 -0.2718 -0.1500 -1.0112
   98MOL    C9142965   6.342   5.362   6.741 -0.4732  0.2887 -0.0167
   98MOL    C9242966   6.217   5.320   6.827  0.1372  0.4132  0.2056
   98MOL    C9342967   6.248   5.198   6.909  0.4898 -0.3897 -0.0874
   98MOL    C9442968   6.323   5.074   6.844 -0.1355 -0.6741  0.0851
   98MOL    C9542969   6.430   5.133   6.742 -0.4851 -0.1774  0.2869
   98MOL    C9642970   6.381   5.239   6.656 -0.7339 -0.3184 -0.4363
   98MOL    C9742971   6.204   5.494   6.570 -0.6180  0.0880 -0.1981
   98MOL    H9842972   6.419   5.503   6.593  1.2457  1.1488  1.3071
   98MOL    H9942973   6.426   5.372   6.809 -0.6608 -0.5233  0.3366
   98MOL   H10042974   6.131   5.302   6.763  0.3333 -0.4018  0.1701
   98MOL   H10142975   6.176   5.409   6.875 -0.5091  0.2114  0.0260
   98MOL   H10242976   6.152   5.161   6.946 -0.2775  0.8256 -0.8399
   98MOL   H10342977   6.297   5.224   7.002 -0.2181 -0.5808  0.3430
   98MOL   H10442978   6.251   5.019   6.783 -0.7558  0.0067  0.2036
   98MOL   H10542979   6.377   5.009   6.913  2.3551  0.9649 -0.2617
   98MOL   H10642980   6.506   5.167   6.812  0.6574  0.3392 -1.1831
   98MOL   H10742981   6.468   5.048   6.686  0.6193  1.2249 -1.1373
   98MOL   H10842982   6.466   5.274   6.596 -2.3856  1.8705 -1.5674
   98MOL   H10942983   6.317   5.196   6.580 -1.5000 -0.6526  0.4009
   98MOL   H11042984   6.205   5.395   6.525 -0.9123  0.8425 -1.8886
   98MOL   H11142985   6.126   5.497   6.646 -0.4798 -2.0553  0.0582
   98MOL   C11242986   6.197   5.591   6.444  0.2138 -0.2862 -0.7136
   98MOL   C11342987   6.056   5.599   6.394  0.0625 -0.8815  0.2022
   98MOL   C11442988   5.968   5.695   6.476 -0.3746  0.0552 -0.5932
   98MOL   C11542989   5.825   5.713   6.418 -0.1585  0.1702  0.2700
   98MOL   C11642990   5.769   5.576   6.403  0.0598 -0.4893  1.1951
   98MOL   C11742991   5.858   5.488   6.315  0.1358  0.4163 -0.6550
   98MOL   C11842992   5.995   5.461   6.383  0.4090 -0.6235 -0.0103
   98MOL   C11942993   6.298   5.552   6.331  0.1745 -0.2426  0.0651
   98MOL   H12042994   6.232   5.689   6.479  0.8286 -1.5473  2.3753
   98MOL   H12142995   6.069   5.634   6.292 -2.0683  0.1858  0.2693
   98MOL   H12242996   6.007   5.797   6.484 -0.6096  0.0994  0.0116
   98MOL   H12342997   5.956   5.657   6.577  0.5011 -2.9544 -1.5667
   98MOL   H12442998   5.761   5.776   6.479  2.1772  0.7875  2.1503
   98MOL   H12542999   5.831   5.758   6.319  1.7212 -1.7976 -0.5508
   98MOL   H12643000   5.753   5.527   6.499  0.8018 -1.5775  0.7650
   98MOL   H12743001   5.674   5.577   6.349  0.4999 -0.6088  0.4080
   98MOL   H12843002   5.803   5.393   6.307  3.2887 -1.3659 -2.2526
   98MOL   H12943003   5.870   5.529   6.215  0.8774  2.0056  0.0801
   98MOL   H13043004   6.051   5.393   6.319  0.4757  1.3690 -2.1357
   98MOL   H13143005   5.975   5.416   6.480  0.3850  2.6899  1.5997
   98MOL   H13243006   6.240   5.485   6.268 -1.5688  2.0713 -0.9029
   98MOL   H13343007   6.375   5.490   6.375 -2.4042 -1.4484  3.0936
   98MOL   C13443008   6.358   5.672   6.261 -0.0191  0.1357 -0.3856
   98MOL   C13543009   6.368   5.632   6.115  0.5460  0.3258  0.6788
   98MOL   C13643010   6.233   5.596   6.053  0.4626 -0.8268 -0.1590
   98MOL   C13743011   6.245   5.571   5.906 -0.4041 -0.0720  0.6375
   98MOL   C13843012   6.352   5.459   5.873  0.2407 -0.6313 -0.9083
   98MOL   C13943013   6.486   5.489   5.936  0.0332  0.3215 -0.0656
   98MOL   C14043014   6.470   5.513   6.084 -0.1535  0.1717 -0.4803
   98MOL   C14143015   6.488   5.725   6.326  0.0124  0.9203 -0.1811
   98MOL   H14243016   6.292   5.758   6.266 -0.4500 -0.2198  0.1618
   98MOL   H14343017   6.405   5.721   6.065  0.3299  0.4020  0.6527
   98MOL   H14443018   6.179   5.509   6.090 -0.5571  0.3900  1.2911
   98MOL   H14543019   6.160   5.677   6.062 -2.4660 -3.2611 -1.0639
   98MOL   H14643020   6.269   5.662   5.851 -0.7731  2.1848  4.0923
   98MOL   H14743021   6.145   5.534   5.882 -0.4393 -0.2398  1.0462
   98MOL   H14843022   6.334   5.356   5.906  1.8914 -0.4639  0.5768
   98MOL   H14943023   6.361   5.458   5.764 -0.3941 -2.8377 -0.9720
   98MOL   H15043024   6.516   5.583   5.890  0.5269  0.6209  0.8750
   98MOL   H15143025   6.561   5.419   5.897 -0.2956 -0.2328  0.2941
   98MOL   H15243026   6.440   5.426   6.142 -3.0080  2.6132  1.9385
   98MOL   H15343027   6.568   5.527   6.128  0.0399 -2.5734  0.0437
   98MOL   H15443028   6.568   5.653   6.313  0.8834  1.6317  1.0949
   98MOL   H15543029   6.473   5.736   6.434  2.2586  1.1855  0.1379
   98MOL   C15643030   6.533   5.867   6.268 -0.2823 -0.0119  0.3653
   98MOL   C15743031   6.691   5.856   6.238 -0.2451  0.3506  0.0448
   98MOL   C15843032   6.743   5.977   6.164 -0.3462  0.2555  0.6108
   98MOL   C15943033   6.891   5.962   6.126  0.5881 -0.5445  0.3845
   98MOL   C16043034   6.988   5.939   6.248  0.7925 -0.5139 -0.1400
   98MOL   C16143035   6.931   5.821   6.328 -0.0965 -0.2746  0.3293
   98MOL   C16243036   6.784   5.830   6.364  0.6973  0.3856 -0.0774
   98MOL   C16343037   6.509   5.981   6.364  0.2925  0.1233 -0.0780
   98MOL   H16443038   6.479   5.895   6.178 -2.7165  1.9401  2.3554
   98MOL   H16543039   6.700   5.759   6.188 -1.0129 -0.2591  1.0484
   98MOL   H16643040   6.678   6.005   6.081 -2.7705  1.1286  2.7403
   98MOL   H16743041   6.742   6.065   6.229  1.5843  0.8435 -0.1209
   98MOL   H16843042   6.912   5.879   6.058  1.1556 -0.6714  0.7122
   98MOL   H16943043   6.905   6.052   6.067 -0.6514 -0.6938 -0.1586
   98MOL   H17043044   6.988   6.033   6.302  2.9195 -0.3697 -0.3430
   98MOL   H17143045   7.088   5.913   6.213  0.6695  1.4803 -2.0675
   98MOL   H17243046   6.996   5.824   6.416 -1.0875 -0.0032  1.0614
   98MOL   H17343047   6.952   5.731   6.270  2.7611  1.9233 -2.1657
   98MOL   H17443048   6.744   5.744   6.417 -1.2346  0.8220 -0.8044
   98MOL   H17543049   6.772   5.914   6.432  0.9719 -0.5261  1.1219
   98MOL   H17643050   6.584   6.059   6.359  0.0514  0.4560  1.2969
   98MOL   H17743051   6.520   5.943   6.465 -3.0816  1.7773  0.9981
   98MOL   C17843052   6.362   6.047   6.348 -1.0902  0.1577 -0.1362
   98MOL   C17943053   6.309   6.082   6.492 -0.1380 -0.7488 -0.1311
   98MOL   C18043054   6.397   6.172   6.583 -0.0421  0.4519 -0.7228
   98MOL   C18143055   6.317   6.206   6.703  0.3857  0.4921  0.2601
   98MOL   C18243056   6.267   6.075   6.776 -0.2346 -0.4682 -0.2037
   98MOL   C18343057   6.172   6.003   6.685 -0.9094  0.1792 -0.2070
   98MOL   C18443058   6.249   5.959   6.564  0.0253 -0.8466  0.1545
   98MOL   C18543059   6.358   6.163   6.250 -0.0778  0.5593 -0.9853
   98MOL   H18643060   6.295   5.969   6.311 -1.4226 -0.1441  1.0591
   98MOL   H18743061   6.219   6.140   6.472  0.4783 -0.4559 -2.2479
   98MOL   H18843062   6.493   6.126   6.607 -0.5708 -0.1222  0.3446
   98MOL   H18943063   6.432   6.260   6.529  1.0877 -1.0590 -2.4808
   98MOL   H19043064   6.225   6.254   6.670 -1.5310 -2.2929  1.3893
   98MOL   H19143065   6.363   6.278   6.771 -0.8796  0.6269  0.9968
   98MOL   H19243066   6.353   6.011   6.798  1.0076  1.7277  1.3993
   98MOL   H19343067   6.220   6.101   6.870  1.8693  1.0564  0.4522
   98MOL   H19443068   6.090   6.067   6.654 -1.1971 -1.9654 -4.1414
   98MOL   H19543069   6.138   5.909   6.727  0.1674  0.0345  0.3669
   98MOL   H19643070   6.325   5.886   6.591  0.6142 -0.8830 -1.5541
   98MOL   H19743071   6.185   5.905   6.495 -1.9571  0.5105  0.8724
   98MOL   H19843072   6.350   6.258   6.302  0.0718 -0.4890  0.9810
   98MOL   H19943073   6.458   6.176   6.208 -0.4832 -1.3092 -2.6425
   98MOL   C20043074   6.267   6.148   6.131 -0.4534  0.0398 -0.2820
   98MOL   C20143075   6.120   6.151   6.180 -0.0190 -0.7884  0.0648
   98MOL   C20243076   6.070   6.284   6.243  0.0869  0.4966  0.4077
   98MOL   C20343077   5.925   6.274   6.293 -0.1915  0.4149  0.1832
   98MOL   C20443078   5.833   6.219   6.182 -0.4193  0.4968  0.9435
   98MOL   C20543079   5.886   6.087   6.128  0.3677 -0.6998  0.1104
   98MOL   C20643080   6.019   6.098   6.070 -0.7761  0.2175 -0.5793
   98MOL   C20743081   6.296   6.264   6.019  0.0405  0.6461 -0.0344
   98MOL   H20843082   6.283   6.050   6.087 -0.7851 -0.1433  0.0061
   98MOL   H20943083   6.113   6.069   6.252  1.2707 -0.2971  0.7596
   98MOL   H21043084   6.071   6.360   6.164 -1.0011  0.3534  0.2445
   98MOL   H21143085   6.138   6.316   6.322  0.6016  0.0158  0.1638
   98MOL   H21243086   5.926   6.200   6.373 -0.2167 -0.7828 -0.9073
   98MOL   H21343087   5.887   6.368   6.331  0.3652  1.1378 -1.0065
   98MOL   H21443088   5.735   6.204   6.226 -2.6664  1.9461 -3.2674
   98MOL   H21543089   5.816   6.299   6.110 -1.0062 -1.0397 -0.6818
   98MOL   H21643090   5.888   6.028   6.220  2.4953  0.8925  1.1225
   98MOL   H21743091   5.821   6.036   6.056 -2.0494  3.3823 -0.7322
   98MOL   H21843092   6.052   6.000   6.035  1.3887  0.9957 -0.7831
   98MOL   H21943093   6.011   6.154   5.977  3.2604  1.7485 -0.1338
   98MOL   H22043094   6.207   6.289   5.963  0.0281 -0.0964 -0.3491
   98MOL   H22143095   6.316   6.352   6.081  0.3629  0.2588  0.4142
   98MOL   C22243096   6.408   6.246   5.912 -0.3914  0.4575  0.1529
   98MOL   C22343097   6.385   6.127   5.816  0.1906 -0.2209 -0.4851
   98MOL   C22443098   6.511   6.070   5.739 -0.4352 -0.4422  0.0918
   98MOL   C22543099   6.472   5.951   5.648 -0.3869 -0.0512 -0.2785
   98MOL   C22643100   6.372   5.986   5.534 -0.2674  0.2850 -0.0015
   98MOL   C22743101   6.244   6.028   5.605 -0.4318  0.5769 -0.2286
   98MOL   C22843102   6.265   6.145   5.715 -0.4970  0.2607  0.5563
   98MOL   C22943103   6.441   6.371   5.833 -0.0604 -0.0303 -0.4817
   98MOL   H23043104   6.493   6.217   5.974 -0.3293 -0.9631 -0.5752
   98MOL   H23143105   6.359   6.034   5.867  2.4859 -0.1395  0.9128
   98MOL   H23243106   6.545   6.155   5.679  0.6151  1.4237  3.2172
   98MOL   H23343107   6.591   6.046   5.809 -0.8594 -1.5978  0.1821
   98MOL   H23443108   6.431   5.872   5.711 -1.2757  0.1947 -0.5381
   98MOL   H23543109   6.555   5.901   5.597  0.2276  1.2823 -0.5897
   98MOL   H23643110   6.411   6.068   5.475  0.2072 -1.2806 -1.9089
   98MOL   H23743111   6.353   5.904   5.465 -0.2895 -0.1953  0.5676
   98MOL   H23843112   6.208   5.937   5.653 -0.2412  0.0333 -1.0975
   98MOL   H23943113   6.170   6.049   5.528 -1.7150 -0.6346  0.6435
   98MOL   H24043114   6.296   6.226   5.650  0.0425  1.3409  2.1409
   98MOL   H24143115   6.172   6.161   5.769 -0.8850  0.2895 -0.1126
   98MOL   H24243116   6.367   6.397   5.758  1.1914 -0.2365 -1.8257
   98MOL   H24343117   6.524   6.346   5.766  0.6807  0.7551  0.1325
   98MOL   C24443118   6.468   6.506   5.912 -0.1016  0.5808 -0.8658
   98MOL   C24543119   6.571   6.490   6.039 -0.1233  0.1165 -0.0705
   98MOL   C24643120   6.598   6.622   6.117 -0.3097 -0.3150 -0.0099
   98MOL   C24743121   6.690   6.590   6.230 -0.6048  0.6473 -0.3886
   98MOL   C24843122   6.819   6.524   6.184  0.7354 -0.1800 -0.1119
   98MOL   C24943123   6.802   6.400   6.103  0.1945 -0.0456  0.1667
   98MOL   C25043124   6.705   6.429   5.984  0.0191 -0.5979  0.0201
   98MOL   C25143125   6.342   6.596   5.920  1.0961  0.1623  0.0537
   98MOL   H25243126   6.531   6.567   5.848 -0.3594 -0.2105 -1.8783
   98MOL   H25343127   6.538   6.421   6.117 -1.7637  2.3381  1.2828
   98MOL   H25443128   6.503   6.664   6.151  0.9730  0.7020  2.4218
   98MOL   H25543129   6.631   6.696   6.043 -1.9694 -0.9379 -1.4050
   98MOL   H25643130   6.712   6.684   6.281  0.5011  0.8352 -1.1955
   98MOL   H25743131   6.632   6.528   6.298  0.8212 -1.3501 -0.9476
   98MOL   H25843132   6.868   6.601   6.125 -0.5622  1.2493  0.6524
   98MOL   H25943133   6.886   6.496   6.266  3.7801  2.6740 -1.5352
   98MOL   H26043134   6.761   6.318   6.161 -1.6452  1.2478  0.7290
   98MOL   H26143135   6.899   6.364   6.068  0.2989 -0.3208  0.7319
   98MOL   H26243136   6.753   6.493   5.910  2.5439  0.9332  2.8566
   98MOL   H26343137   6.691   6.334   5.932  1.4806 -1.4966  1.2227
   98MOL   H26443138   6.353   6.670   5.998 -1.3795 -0.4424  1.0160
   98MOL   H26543139   6.258   6.537   5.957  0.7061  1.1312  0.6992
   98MOL   C26643140   6.315   6.675   5.789 -0.0408  0.0430 -0.2543
   98MOL   C26743141   6.162   6.689   5.775  0.5718  0.0888 -0.3737
   98MOL   C26843142   6.100   6.790   5.881  0.0396 -0.4961 -0.0126
   98MOL   C26943143   5.948   6.804   5.860 -0.3380 -1.0744 -0.4904
   98MOL   C27043144   5.891   6.663   5.853 -0.0614 -0.2410  0.3770
   98MOL   C27143145   5.942   6.585   5.730 -0.0504 -0.2817 -0.5609
   98MOL   C27243146   6.090   6.554   5.748 -0.3542  0.0421 -0.0562
   98MOL   C27343147   6.406   6.799   5.777 -0.1002  0.0342  1.0019
   98MOL   H27443148   6.349   6.596   5.723 -0.9515 -1.5535  1.1219
   98MOL   H27543149   6.160   6.747   5.682  1.5546  0.3400 -0.2451
   98MOL   H27643150   6.131   6.757   5.981  0.2856  2.1699  0.8381
   98MOL   H27743151   6.161   6.879   5.870 -1.2121  0.3124 -0.4803
   98MOL   H27843152   5.921   6.855   5.767  2.5480  0.1111 -0.7451
   98MOL   H27943153   5.892   6.856   5.937 -0.1836 -1.2110 -0.2874
   98MOL   H28043154   5.908   6.615   5.949 -0.6044  0.8486  1.0324
   98MOL   H28143155   5.782   6.664   5.840  0.0430 -2.0331 -0.9489
   98MOL   H28243156   5.934   6.640   5.636 -0.5871  0.1118 -0.2922
   98MOL   H28343157   5.877   6.498   5.719  2.0616 -1.8985 -0.5825
   98MOL   H28443158   6.109   6.512   5.650 -0.6198  0.8334 -0.4560
   98MOL   H28543159   6.100   6.475   5.823  2.1697  1.4748  1.1804
   98MOL   H28643160   6.432   6.824   5.881  2.0753  1.5748  0.1343
   98MOL   H28743161   6.341   6.883   5.752  0.2162 -0.2329 -0.7457
   98MOL   C28843162   6.508   6.788   5.663 -0.4960  0.2716 -0.0388
   98MOL   C28943163   6.613   6.903   5.675  0.0759  0.0898 -0.4990
   98MOL   C29043164   6.548   7.043   5.666 -0.1520  0.3619 -0.2950
   98MOL   C29143165   6.641   7.163   5.682  0.0962 -0.3364 -0.0282
   98MOL   C29243166   6.730   7.138   5.803 -0.0952 -0.0599 -0.5068
   98MOL   C29343167   6.805   7.000   5.807 -0.3931 -0.4756 -0.5303
   98MOL   C29443168   6.696   6.884   5.797 -0.2040  0.5218 -0.0380
   98MOL   C29543169   6.425   6.782   5.528  0.0202 -0.1185  0.3496
   98MOL   H29643170   6.558   6.692   5.669 -0.8302  0.1451  0.7111
   98MOL   H29743171   6.684   6.909   5.593 -1.1488  2.4788 -1.4222
   98MOL   H29843172   6.478   7.051   5.582  2.4125  3.0500 -2.2586
   98MOL   H29943173   6.477   7.048   5.749 -0.5270 -2.2469 -0.3963
   98MOL   H30043174   6.702   7.170   5.592  0.2716  2.5702  0.2758
   98MOL   H30143175   6.578   7.249   5.703  2.3368  1.2531  0.3318
   98MOL   H30243176   6.677   7.158   5.896 -0.0327  0.6452 -0.6209
   98MOL   H30343177   6.801   7.221   5.808 -0.7342  0.4240  0.7038
   98MOL   H30443178   6.867   6.979   5.894  0.7110  0.0852 -1.1766
   98MOL   H30543179   6.869   6.989   5.720  0.6561 -1.5734  0.3666
   98MOL   H30643180   6.636   6.886   5.888  0.3024  1.5949  0.2864
   98MOL   H30743181   6.736   6.783   5.787 -0.5461  0.3281  0.5096
   98MOL   H30843182   6.366   6.691   5.535 -3.7324  2.0767 -1.1531
   98MOL   H30943183   6.354   6.864   5.519  0.6080  0.1023 -2.9342
   98MOL   C31043184   6.505   6.760   5.394  0.6232  0.3365  0.5802
   98MOL   C31143185   6.557   6.610   5.384 -0.2131  0.4561  0.7068
   98MOL   C31243186   6.464   6.499   5.335 -0.2129  0.0292  0.3967
   98MOL   C31343187   6.531   6.356   5.353  0.9547 -0.6213 -0.5871
   98MOL   C31443188   6.668   6.352   5.284  0.6673 -0.1924  0.8768
   98MOL   C31543189   6.762   6.461   5.332 -0.3025  0.2392  0.0559
   98MOL   C31643190   6.697   6.598   5.312  0.2869 -0.2528 -0.2221
   98MOL   C31743191   6.419   6.795   5.271  0.1316  0.0421 -0.2866
   98MOL   H31843192   6.582   6.837   5.404  0.8286  0.0571  1.1822
   98MOL   H31943193   6.585   6.590   5.488 -0.0990  1.1234  0.8109
   98MOL   H32043194   6.380   6.496   5.405  1.2266 -0.5361  2.1427
   98MOL   H32143195   6.431   6.511   5.232  2.9642 -0.9923 -0.7968
   98MOL   H32243196   6.467   6.273   5.324  1.0209 -1.3408  1.2387
   98MOL   H32343197   6.547   6.332   5.458 -1.5666 -1.5972 -0.3767
   98MOL   H32443198   6.702   6.256   5.323  1.0440 -0.2864  0.3219
   98MOL   H32543199   6.679   6.341   5.177 -0.9216 -0.8222  0.7634
   98MOL   H32643200   6.787   6.453   5.437 -0.6762 -0.4779  0.0925
   98MOL   H32743201   6.849   6.457   5.267 -0.7684 -0.6874 -0.5215
   98MOL   H32843202   6.682   6.609   5.204 -2.6300 -1.5052 -0.0013
   98MOL   H32943203   6.753   6.681   5.357  1.3205 -1.9091  1.6188
   98MOL   H33043204   6.376   6.894   5.284  1.1259  0.2324  1.7563
   98MOL   H33143205   6.331   6.730   5.277 -0.5682  1.0630  0.6836
   98MOL   C33243206   6.482   6.806   5.131 -0.1419 -1.1845 -0.9615
   98MOL   C33343207   6.619   6.886   5.139  0.8243 -0.0718 -0.3548
   98MOL   C33443208   6.614   7.038   5.166 -0.2471  0.6880 -0.3228
   98MOL   C33543209   6.759   7.096   5.163  0.5673 -0.6995 -0.5128
   98MOL   C33643210   6.828   7.079   5.022 -0.4901  0.0965 -0.9822
   98MOL   C33743211   6.840   6.927   5.005  0.5461  0.4002  0.1874
   98MOL   C33843212   6.702   6.851   5.007  0.6823 -0.2747 -0.0515
   98MOL   C33943213   6.379   6.856   5.028  0.4191  0.4959  0.4527
   98MOL   H34043214   6.518   6.710   5.095 -0.8078 -1.6073 -0.5182
   98MOL   H34143215   6.683   6.846   5.218  0.1870  0.4491  0.4329
   98MOL   H34243216   6.559   7.086   5.086  0.2970  1.1510 -0.4177
   98MOL   H34343217   6.562   7.065   5.258  0.4402 -0.2083  0.3327
   98MOL   H34443218   6.759   7.203   5.184  0.8607 -0.7339 -0.3445
   98MOL   H34543219   6.814   7.046   5.242  0.0630  0.0717  0.3403
   98MOL   H34643220   6.765   7.110   4.939 -2.0496 -0.7791 -0.1541
   98MOL   H34743221   6.927   7.122   5.009  0.7602 -1.8181  1.6156
   98MOL   H34843222   6.910   6.888   5.079  0.5332 -0.8103 -0.4135
   98MOL   H34943223   6.900   6.913   4.915  1.0829  1.1887  0.4187
   98MOL   H35043224   6.730   6.747   4.989 -0.7414 -0.3906 -1.6185
   98MOL   H35143225   6.647   6.878   4.918  2.8198  0.6677 -1.1288
   98MOL   H35243226   6.435   6.904   4.948  1.5113 -2.9180 -0.9058
   98MOL   H35343227   6.316   6.934   5.072  1.9086  1.4408  0.9737
   98MOL   C35443228   6.289   6.741   4.975  0.1379 -0.7885  0.8493
   98MOL   C35543229   6.317   6.702   4.827 -0.1534 -0.1468  0.2332
   98MOL   C35643230   6.461   6.660   4.805 -0.1366  0.6981  0.7925
   98MOL   C35743231   6.480   6.599   4.662 -0.3796  0.4617 -0.3613
   98MOL   C35843232   6.438   6.696   4.554 -0.1303  0.1489  0.2084
   98MOL   C35943233   6.300   6.760   4.583 -0.6528 -0.1196 -0.2117
   98MOL   C36043234   6.289   6.814   4.721 -0.1170 -0.2999 -1.0458
   98MOL   C36143235   6.131   6.769   4.987  0.1845 -0.1735  0.3068
   98MOL   H36243236   6.309   6.649   5.030 -0.2235 -0.0839  2.1746
   98MOL   H36343237   6.264   6.610   4.803 -0.8237  0.8167 -2.0354
   98MOL   H36443238   6.479   6.584   4.882 -0.0593  0.5084  0.5890
   98MOL   H36543239   6.533   6.739   4.826  2.0024 -1.2577  1.1141
   98MOL   H36643240   6.579   6.557   4.647 -1.2386 -0.8931 -2.6348
   98MOL   H36743241   6.417   6.511   4.654 -1.2536  0.9301  1.1197
   98MOL   H36843242   6.508   6.779   4.558  2.7839 -2.2291 -0.0151
   98MOL   H36943243   6.432   6.652   4.454  0.2069  0.2693  0.1355
   98MOL   H37043244   6.278   6.846   4.519  2.7072  1.9931  1.2999
   98MOL   H37143245   6.224   6.685   4.566 -0.6347 -0.3127  0.5513
   98MOL   H37243246   6.186   6.850   4.719 -0.9267 -2.3691  0.4219
   98MOL   H37343247   6.349   6.902   4.741 -0.8802  0.1203 -0.5869
   98MOL   H37443248   6.089   6.705   4.909  0.2987  1.8105 -1.4280
   98MOL   H37543249   6.095   6.865   4.952 -0.3555 -0.6418 -0.4287
   98MOL   C37643250   6.061   6.728   5.123  1.1167 -0.5172  0.1736
   98MOL   C37743251   6.035   6.852   5.211  0.2383  0.3533  0.2935
   98MOL   C37843252   6.017   6.806   5.356  0.0340 -0.1659  0.1635
   98MOL   C37943253   5.989   6.926   5.451 -0.5515 -0.1084 -0.3298
   98MOL   C38043254   5.861   7.012   5.402 -0.1059 -0.6161  0.3255
   98MOL   C38143255   5.893   7.066   5.263  0.2708  0.0043  0.0051
   98MOL   C38243256   5.922   6.945   5.167  0.3740 -0.3803 -0.1244
   98MOL   C38343257   5.941   6.635   5.094  0.3072  0.5483  1.0214
   98MOL   H38443258   6.127   6.666   5.183  1.8901 -0.6084 -0.7771
   98MOL   H38543259   6.128   6.910   5.205 -0.5814  1.6795  0.0601
   98MOL   H38643260   5.933   6.738   5.367 -0.7755  0.7967 -0.0644
   98MOL   H38743261   6.099   6.745   5.395 -0.6014 -1.2589 -0.1761
   98MOL   H38843262   6.074   6.993   5.438 -3.5789  4.2540  1.0982
   98MOL   H38943263   5.980   6.887   5.552  0.9568 -0.0640 -0.1688
   98MOL   H39043264   5.770   6.951   5.399 -2.2414  2.4924 -1.8202
   98MOL   H39143265   5.845   7.093   5.473  0.1131 -0.1662 -0.1334
   98MOL   H39243266   5.811   7.128   5.226 -1.0429 -2.4322 -1.3191
   98MOL   H39343267   5.985   7.124   5.264 -0.7594  1.6755 -0.5837
   98MOL   H39443268   5.832   6.887   5.148  0.0825  0.0751 -0.1462
   98MOL   H39543269   5.958   6.983   5.072 -0.0532 -1.0539 -0.5538
   98MOL   H39643270   5.900   6.685   5.006 -0.8939  2.8137  2.8147
   98MOL   H39743271   5.862   6.635   5.168  0.1434 -1.4550  0.8844
   98MOL   C39843272   5.976   6.484   5.059  0.0476 -0.2329  0.4112
   98MOL   C39943273   5.996   6.377   5.177  0.1354 -0.3220 -0.6513
   98MOL   C40043274   6.117   6.401   5.269  0.0331 -0.4711 -0.6053
   98MOL   C40143275   6.123   6.294   5.373 -0.8043 -0.8167  0.0507
   98MOL   C40243276   5.991   6.291   5.462  0.1747  0.0374 -0.3801
   98MOL   C40343277   5.870   6.287   5.378  0.0082 -0.4629  0.1488
   98MOL   C40443278   5.865   6.377   5.251 -0.3717  0.5732 -0.0833
   98MOL   C40543279   5.877   6.435   4.953  0.7176  0.0698  0.0992
   98MOL   H40643280   6.075   6.487   5.015  0.1352 -1.6683  0.4851
   98MOL   H40743281   6.000   6.285   5.119  0.3359 -0.7022 -0.0310
   98MOL   H40843282   6.112   6.492   5.327  2.5617  0.2894 -1.5126
   98MOL   H40943283   6.203   6.402   5.201  0.5835 -1.1348  0.0703
   98MOL   H41043284   6.210   6.290   5.438 -1.6145  0.1502  1.2118
   98MOL   H41143285   6.143   6.198   5.325 -2.2812 -1.4937  0.7745
   98MOL   H41243286   5.974   6.387   5.511 -1.0209  0.1047 -0.9063
   98MOL   H41343287   5.996   6.221   5.546  1.5562 -0.4729 -0.8697
   98MOL   H41443288   5.847   6.186   5.345  1.5318 -0.3443 -1.3972
   98MOL   H41543289   5.788   6.313   5.445  1.4739  3.4545  0.5822
   98MOL   H41643290   5.788   6.341   5.183  0.7942 -0.4863 -0.8919
   98MOL   H41743291   5.849   6.481   5.279  0.3108  0.6824 -0.0833
   98MOL   H41843292   5.871   6.327   4.968 -2.4195 -0.2117 -2.7371
   98MOL   H41943293   5.775   6.466   4.974  0.5323 -0.2309 -0.3489
   98MOL   C42043294   5.924   6.457   4.805  0.0895  0.0546 -0.5215
   98MOL   C42143295   5.817   6.444   4.691  0.1300  0.1163 -0.4078
   98MOL   C42243296   5.882   6.506   4.562  0.0878  0.1565 -0.5417
   98MOL   C42343297   5.790   6.500   4.441 -0.0311 -0.1863 -0.5119
   98MOL   C42443298   5.657   6.574   4.475 -0.1144 -0.3697 -0.0266
   98MOL   C42543299   5.584   6.506   4.585 -0.1880 -0.4224 -0.2500
   98MOL   C42643300   5.676   6.507   4.712 -0.2034  0.1169  0.2534
   98MOL   C42743301   6.037   6.369   4.772  0.0741  0.2161  0.4322
   98MOL   H42843302   5.954   6.562   4.806  1.4686 -0.3236  0.8582
   98MOL   H42943303   5.806   6.339   4.664  2.8121 -0.3481  0.1598
   98MOL   H43043304   5.899   6.610   4.589  0.6826 -0.1590  0.3051
   98MOL   H43143305   5.978   6.465   4.532  0.7379  2.2763 -1.5058
   98MOL   H43243306   5.837   6.546   4.354  0.0022  0.7141 -0.0193
   98MOL   H43343307   5.765   6.398   4.411  0.7734 -0.6946  0.5389
   98MOL   H43443308   5.581   6.585   4.397  1.3565  0.9895 -1.2897
   98MOL   H43543309   5.690   6.675   4.501 -1.4747 -0.1884  1.1274
   98MOL   H43643310   5.551   6.405   4.559  1.8423 -1.3630  0.7267
   98MOL   H43743311   5.491   6.557   4.612  0.4554  1.5252 -1.6291
   98MOL   H43843312   5.683   6.609   4.750 -2.0819  0.0997  0.7129
   98MOL   H43943313   5.617   6.456   4.789  0.3434 -0.5894  0.2068
   98MOL   H44043314   6.070   6.310   4.858  0.8868  0.5881  0.3828
   98MOL   H44143315   6.007   6.297   4.696 -1.8813  0.2595  1.1284
   98MOL   H44243316   6.127   6.421   4.739  0.0150 -1.4797 -2.4950
   99MOL     C143317   0.072   4.973   4.375 -0.5192  0.3424 -0.0603
   99MOL     C243318   7.720   4.939   4.462 -0.2215 -0.2247 -0.3037
   99MOL     C343319   7.744   4.967   4.612 -0.3945  0.5604  0.2440
   99MOL     C443320   7.631   4.922   4.706 -0.2741  0.4384  0.2192
   99MOL     C543321   7.579   4.785   4.665  0.3865  0.0781  0.0815
   99MOL     C643322   7.551   4.779   4.516  0.1136  0.2207 -0.4630
   99MOL     C743323   7.675   4.794   4.438 -0.3012 -0.6023 -0.9061
   99MOL     C843324   0.195   4.905   4.420 -0.1479  0.4977 -0.1751
   99MOL     H943325   0.038   4.943   4.276  3.4680  1.7019 -1.9565
   99MOL    H1043326   7.641   5.006   4.428 -1.1189 -0.8689  0.4894
   99MOL    H1143327   0.051   4.901   4.649 -0.8797  0.4089  1.0208
   99MOL    H1243328   0.006   5.069   4.629 -0.0439  0.8511 -2.0172
   99MOL    H1343329   7.551   4.996   4.694 -0.0890  0.5062 -0.5968
   99MOL    H1443330   7.661   4.923   4.811  0.0681  0.4644  0.1197
   99MOL    H1543331   7.483   4.762   4.712  1.3457 -0.2968  1.8735
   99MOL    H1643332   7.652   4.708   4.687  1.0390  0.8399  0.5933
   99MOL    H1743333   7.505   4.682   4.496 -0.9524  0.3491  1.2577
   99MOL    H1843334   7.475   4.853   4.493  0.2889  0.0760 -1.5472
   99MOL    H1943335   7.649   4.767   4.336  0.2139 -0.1246 -1.1656
   99MOL    H2043336   7.746   4.713   4.460  0.5515  0.4375  0.2514
   99MOL    H2143337   0.166   4.800   4.420  0.2537  0.3746 -1.5016
   99MOL    H2243338   0.211   4.924   4.526 -3.2360 -2.5268  0.9175
   99MOL    H2343339   0.086   5.080   4.387 -0.0887  0.1382  1.3037
   99MOL    C2443340   0.327   4.919   4.327 -0.6770  0.0866 -0.0841
   99MOL    C2543341   0.447   4.870   4.401  0.0595  0.2572  0.3939
   99MOL    C2643342   0.583   4.931   4.362  0.6226 -0.0717 -0.5026
   99MOL    C2743343   0.701   4.880   4.455 -0.4175  0.1000 -0.1701
   99MOL    C2843344   0.713   4.724   4.433  0.2209 -0.0955 -0.4185
   99MOL    C2943345   0.588   4.656   4.486 -0.2218  0.2293  0.2831
   99MOL    C3043346   0.464   4.711   4.411 -0.5089 -0.7193 -0.2432
   99MOL    C3143347   0.318   4.848   4.186  0.4972  0.4580  1.2890
   99MOL    H3243348   0.350   5.025   4.317  0.1034 -0.0416  0.3912
   99MOL    H3343349   0.431   4.905   4.502  2.7278  0.9626  0.6149
   99MOL    H3443350   0.590   5.035   4.393  0.4267 -0.0650 -0.4801
   99MOL    H3543351   0.613   4.931   4.257  0.0301  1.1383 -0.6804
   99MOL    H3643352   0.799   4.924   4.436  0.3124 -1.3695  0.1050
   99MOL    H3743353   0.672   4.905   4.557 -0.4552  0.5709 -0.2966
   99MOL    H3843354   0.794   4.691   4.499  0.1139  0.5505  0.0479
   99MOL    H3943355   0.727   4.694   4.329  0.7707 -0.7710 -0.1518
   99MOL    H4043356   0.628   4.556   4.473 -0.6170  0.3789 -2.2272
   99MOL    H4143357   0.578   4.671   4.594  0.9254  0.2894  0.3911
   99MOL    H4243358   0.467   4.652   4.320 -3.1796 -1.8518  0.3711
   99MOL    H4343359   0.379   4.668   4.464 -2.2410  0.3770 -2.0424
   99MOL    H4443360   0.261   4.756   4.198  1.3398 -0.7282 -3.1201
   99MOL    H4543361   0.420   4.814   4.167 -0.1046 -0.9509  0.5431
   99MOL    C4643362   0.248   4.931   4.074 -0.0459 -0.6221  0.2527
   99MOL    C4743363   0.201   4.846   3.955  0.0352  0.7532  0.5820
   99MOL    C4843364   0.079   4.761   3.994  0.0149 -0.1839  0.3143
   99MOL    C4943365   0.032   4.681   3.872  0.1014  0.4216 -0.4676
   99MOL    C5043366   0.143   4.588   3.828  0.9698 -0.1714 -0.0457
   99MOL    C5143367   0.273   4.657   3.795  0.0450 -0.0557 -1.0177
   99MOL    C5243368   0.310   4.750   3.915  0.0530 -0.3043  0.5538
   99MOL    C5343369   0.340   5.046   4.016 -0.7635  0.4253  0.2929
   99MOL    H5443370   0.153   4.967   4.113 -0.6301  0.4918 -2.1042
   99MOL    H5543371   0.171   4.913   3.875  2.5672 -1.3408 -2.2488
   99MOL    H5643372   0.104   4.691   4.074 -2.2763 -1.6595 -0.2099
   99MOL    H5743373   7.771   4.821   4.038 -1.5167 -0.0945 -2.4682
   99MOL    H5843374   7.767   4.749   3.794 -0.9762  1.7467  1.1510
   99MOL    H5943375   7.713   4.632   3.905 -1.0594  1.3767 -2.1884
   99MOL    H6043376   0.168   4.509   3.899  1.0091  1.1634  1.4538
   99MOL    H6143377   0.097   4.533   3.745  2.4276 -0.3538 -0.7448
   99MOL    H6243378   0.270   4.710   3.700 -0.5790  0.3786 -0.7624
   99MOL    H6343379   0.354   4.585   3.784  2.3952  2.2827  0.2124
   99MOL    H6443380   0.329   4.672   3.989  4.6673  2.2296  2.2318
   99MOL    H6543381   0.397   4.805   3.880 -0.1416 -1.7556 -2.4190
   99MOL    H6643382   0.358   5.032   3.909  0.5629 -0.3522  0.6086
   99MOL    H6743383   0.430   5.034   4.075 -1.3636  0.8507  1.2983
   99MOL    C6843384   0.281   5.192   4.031  0.3787 -0.0654 -0.5237
   99MOL    C6943385   0.405   5.300   4.041  0.5425 -0.0109  0.4349
   99MOL    C7043386   0.470   5.308   4.177 -0.5565  0.8408  0.7315
   99MOL    C7143387   0.566   5.427   4.178 -0.1076 -0.2846  0.1887
   99MOL    C7243388   0.682   5.396   4.077  0.5066 -0.6187  0.2146
   99MOL    C7343389   0.625   5.389   3.932  0.0667  0.7375 -0.0473
   99MOL    C7443390   0.513   5.279   3.933 -0.1142  0.6745  0.7067
   99MOL    C7543391   0.181   5.239   3.923 -0.2871  0.4338 -0.1410
   99MOL    H7643392   0.230   5.192   4.127 -3.2117  1.1351 -2.3082
   99MOL    H7743393   0.358   5.397   4.025 -1.7506 -0.9267  1.4121
   99MOL    H7843394   0.520   5.213   4.198  1.6332  1.1430 -2.6383
   99MOL    H7943395   0.397   5.321   4.256 -0.3126  2.8321  0.6443
   99MOL    H8043396   0.501   5.511   4.154 -1.2118 -1.0830  0.3234
   99MOL    H8143397   0.609   5.439   4.277 -1.0196 -2.0185  0.8173
   99MOL    H8243398   0.732   5.305   4.109 -0.4312 -0.3514  2.5445
   99MOL    H8343399   0.757   5.475   4.069  0.8551 -0.8666  1.0457
   99MOL    H8443400   0.707   5.368   3.863 -0.5988  2.8594 -1.5258
   99MOL    H8543401   0.591   5.487   3.898  2.0271  1.5179  0.2251
   99MOL    H8643402   0.558   5.181   3.947 -1.2531  0.2858  1.8287
   99MOL    H8743403   0.469   5.278   3.834 -3.1064  2.4836  1.9362
   99MOL    H8843404   0.238   5.282   3.841  1.3837 -2.7098 -0.7075
   99MOL    H8943405   0.132   5.155   3.873  0.7485  0.4934 -1.2778
   99MOL    C9043406   0.070   5.340   3.976 -0.1768 -0.4860 -0.0682
   99MOL    C9143407   0.046   5.464   3.889  0.6920 -0.2568  0.3959
   99MOL    C9243408   0.177   5.540   3.838  0.0959 -0.0373 -0.1421
   99MOL    C9343409   0.149   5.667   3.764  0.6470 -0.0649  0.1931
   99MOL    C9443410   0.047   5.638   3.650 -0.0093  0.6736 -0.4176
   99MOL    C9543411   7.693   5.569   3.706  0.7700 -0.2049 -0.2786
   99MOL    C9643412   7.731   5.439   3.764  0.2823  1.0849  0.0075
   99MOL    C9743413   7.714   5.261   4.025 -0.2521  0.0267 -0.0837
   99MOL    H9843414   0.114   5.382   4.067  0.9389 -1.4124 -0.1653
   99MOL    H9943415   7.768   5.533   3.956 -1.1337 -0.0201 -1.1801
   99MOL   H10043416   0.241   5.475   3.779  0.8575 -0.3652  1.0432
   99MOL   H10143417   0.244   5.571   3.918 -0.0391 -2.3488  0.9205
   99MOL   H10243418   0.243   5.715   3.741  1.1621  0.0296  2.4218
   99MOL   H10343419   0.112   5.740   3.835  2.0889 -0.8336  1.7623
   99MOL   H10443420   0.079   5.581   3.562 -1.6808  0.2175 -0.7361
   99MOL   H10543421   0.016   5.735   3.610 -2.3075  0.2109  0.2166
   99MOL   H10643422   7.638   5.629   3.780  1.4986 -0.1543  0.2226
   99MOL   H10743423   7.622   5.542   3.628  0.7340 -1.2898  0.1207
   99MOL   H10843424   7.652   5.370   3.791 -0.2358  0.8334 -2.0449
   99MOL   H10943425   0.020   5.383   3.693  0.4909 -0.2689  1.2398
   99MOL   H11043426   7.681   5.195   3.945 -1.5088  0.0471  0.4139
   99MOL   H11143427   7.758   5.194   4.099  0.5122  1.8660  1.1803
   99MOL   C11243428   7.603   5.343   4.090  0.0455 -0.0485  0.1565
   99MOL   C11343429   7.651   5.431   4.211 -0.2429  0.1427  0.1184
   99MOL   C11443430   7.695   5.363   4.340  0.9860  0.8004  0.2674
   99MOL   C11543431   7.754   5.464   4.439  0.0832 -0.4598  0.0484
   99MOL   C11643432   7.658   5.582   4.465  0.1392 -0.1282  0.9299
   99MOL   C11743433   7.629   5.659   4.337 -0.2438  0.2378 -0.6344
   99MOL   C11843434   7.568   5.565   4.234  0.2609 -1.0149  0.1193
   99MOL   C11943435   7.486   5.243   4.136  0.3780 -0.3685  0.2531
   99MOL   H12043436   7.569   5.422   4.023 -3.0783 -0.7544  0.7941
   99MOL   H12143437   7.744   5.473   4.172 -0.6587 -1.1286 -2.3197
   99MOL   H12243438   0.001   5.288   4.331 -0.4361 -0.9954  2.3564
   99MOL   H12343439   7.614   5.305   4.385 -0.7250  1.0877 -2.3279
   99MOL   H12443440   7.762   5.410   4.533  1.3473 -0.2876  0.0393
   99MOL   H12543441   0.083   5.492   4.411 -0.2570  2.1967  1.3462
   99MOL   H12643442   7.567   5.539   4.508 -0.1425  0.5604  1.0335
   99MOL   H12743443   7.693   5.646   4.547  1.6514  2.7306 -1.8274
   99MOL   H12843444   7.562   5.744   4.348  2.0531  1.8932  1.2313
   99MOL   H12943445   7.728   5.686   4.298 -0.6382  0.7534 -1.2929
   99MOL   H13043446   7.555   5.621   4.141  4.1890 -1.2251 -0.6609
   99MOL   H13143447   7.469   5.547   4.276 -0.2479  5.0443  2.0821
   99MOL   H13243448   7.421   5.300   4.203  0.1714  0.5734 -0.7300
   99MOL   H13343449   7.534   5.171   4.201 -0.1410  0.7462  1.8988
   99MOL   C13443450   7.387   5.171   4.037  0.2753  0.5224  0.6084
   99MOL   C13543451   7.427   5.019   4.018 -0.9448 -0.3391 -0.8808
   99MOL   C13643452   7.346   4.939   3.911  0.2587 -0.4913 -0.3305
   99MOL   C13743453   7.397   4.795   3.902  0.7526  0.4399  0.4690
   99MOL   C13843454   7.370   4.722   4.030 -0.4953  0.4627  0.3096
   99MOL   C13943455   7.458   4.783   4.135  0.5522 -1.0282  0.3412
   99MOL   C14043456   7.416   4.932   4.149  0.4334 -0.4875 -0.2594
   99MOL   C14143457   7.364   5.250   3.901 -0.7061 -0.0640  0.1344
   99MOL   H14243458   7.292   5.163   4.090 -1.1588 -0.9180 -2.0453
   99MOL   H14343459   7.530   5.024   3.982 -0.7482 -0.0711 -0.2674
   99MOL   H14443460   7.241   4.934   3.940 -0.5333 -1.5318 -3.1536
   99MOL   H14543461   7.348   4.983   3.811 -0.8721 -0.1463 -0.2163
   99MOL   H14643462   7.504   4.795   3.880  0.4319  0.7595 -1.1325
   99MOL   H14743463   7.350   4.750   3.814 -1.0278 -0.4721  1.8581
   99MOL   H14843464   7.265   4.736   4.056 -0.8342  0.4899 -1.0438
   99MOL   H14943465   7.381   4.613   4.026 -1.2370  0.4384 -1.6780
   99MOL   H15043466   7.559   4.771   4.096  0.5280 -1.6821  0.4726
   99MOL   H15143467   7.455   4.726   4.228  1.4012 -2.4350 -0.4780
   99MOL   H15243468   7.319   4.953   4.195  0.0795  1.9597 -1.9829
   99MOL   H15343469   7.487   4.971   4.222 -0.7307 -1.3942  1.3853
   99MOL   H15443470   7.334   5.180   3.823 -0.9415  2.9240 -2.5388
   99MOL   H15543471   7.462   5.281   3.863 -1.1650 -0.6905 -1.6199
   99MOL   C15643472   7.253   5.364   3.895 -0.3450 -0.5683 -0.0724
   99MOL   C15743473   7.190   5.377   3.749  0.5644  0.2890 -0.6436
   99MOL   C15843474   7.293   5.398   3.637 -0.3935 -0.0957 -0.4595
   99MOL   C15943475   7.225   5.406   3.498  0.2977 -0.2170 -0.3468
   99MOL   C16043476   7.132   5.289   3.468 -0.5442 -0.4236 -0.0612
   99MOL   C16143477   7.025   5.287   3.578 -0.8741  0.9681  0.2264
   99MOL   C16243478   7.098   5.259   3.710 -0.6960 -0.1685 -0.0560
   99MOL   C16343479   7.306   5.496   3.958  0.3208 -0.2119  0.5826
   99MOL   H16443480   7.172   5.334   3.961 -1.2254  1.3884 -0.2155
   99MOL   H16543481   7.119   5.460   3.745 -0.5923 -0.6529  0.0157
   99MOL   H16643482   7.341   5.492   3.664 -0.3540  0.3104 -1.9254
   99MOL   H16743483   7.363   5.314   3.641 -1.6843 -1.2252 -1.3516
   99MOL   H16843484   7.162   5.493   3.477 -0.2785 -0.2038  1.3313
   99MOL   H16943485   7.303   5.421   3.424  1.3078 -0.2228  0.6933
   99MOL   H17043486   7.181   5.191   3.467  0.2090 -0.0878  1.8361
   99MOL   H17143487   7.099   5.313   3.367 -1.0378  1.0832  0.4447
   99MOL   H17243488   6.943   5.215   3.571 -0.9699  1.1719 -0.8108
   99MOL   H17343489   6.979   5.386   3.582  2.0667  2.3911 -0.2320
   99MOL   H17443490   7.030   5.229   3.790  0.9380 -1.1929  0.9767
   99MOL   H17543491   7.157   5.170   3.692  0.0479  0.7243 -2.1625
   99MOL   H17643492   7.385   5.526   3.888 -1.0136 -0.6416 -1.1325
   99MOL   H17743493   7.354   5.479   4.054 -1.9811 -1.7996  1.4926
   99MOL   C17843494   7.202   5.608   3.979  0.5301 -0.2564  0.8003
   99MOL   C17943495   7.095   5.580   4.081  0.4261 -0.1570 -0.3067
   99MOL   C18043496   7.149   5.544   4.223  0.5091  0.0968 -0.0418
   99MOL   C18143497   7.025   5.560   4.318  0.2235 -0.5900 -0.4022
   99MOL   C18243498   6.915   5.462   4.284 -0.0189  0.2434 -0.2736
   99MOL   C18343499   6.868   5.493   4.140 -0.2660  0.3461  0.2363
   99MOL   C18443500   6.985   5.481   4.037 -0.3211  0.8525  0.6389
   99MOL   C18543501   7.277   5.742   4.010 -0.0718 -0.3281  0.0652
   99MOL   H18643502   7.149   5.618   3.884 -1.9074 -1.0752  2.0302
   99MOL   H18743503   7.043   5.675   4.097 -0.6015 -0.7047 -0.3514
   99MOL   H18843504   7.191   5.443   4.228  0.0984 -0.0531  0.5057
   99MOL   H18943505   7.230   5.610   4.255  1.2657 -1.2823  0.9612
   99MOL   H19043506   6.982   5.660   4.310 -0.5087 -0.8825 -0.0720
   99MOL   H19143507   7.051   5.548   4.423 -0.4819 -0.1612 -0.1768
   99MOL   H19243508   6.940   5.357   4.301  3.1142  0.9786  0.0720
   99MOL   H19343509   6.833   5.469   4.354 -1.0426 -0.4633 -1.3831
   99MOL   H19443510   6.826   5.592   4.124 -0.5473  0.1258 -0.4052
   99MOL   H19543511   6.786   5.425   4.118 -0.4222  0.0987  1.5591
   99MOL   H19643512   7.013   5.379   4.061 -0.2100  0.3472 -1.5066
   99MOL   H19743513   6.950   5.476   3.933  1.8815 -1.2659 -0.0439
   99MOL   H19843514   7.256   5.768   4.114 -0.8165 -0.0655 -0.1439
   99MOL   H19943515   7.384   5.727   4.015  0.0529  0.4092 -0.3076
   99MOL   C20043516   7.240   5.871   3.924  0.3195  0.0055  0.6903
   99MOL   C20143517   7.317   5.898   3.792 -0.3536 -0.0956 -0.4228
   99MOL   C20243518   7.464   5.916   3.803 -0.6564  0.0951  0.1729
   99MOL   C20343519   7.522   5.976   3.670  0.7344 -0.5125 -0.7032
   99MOL   C20443520   7.501   5.876   3.559  0.0933 -0.6936 -0.2796
   99MOL   C20543521   7.358   5.831   3.547 -0.6206  0.2226  0.1015
   99MOL   C20643522   7.281   5.794   3.680 -0.4687 -0.6804  0.1339
   99MOL   C20743523   7.090   5.893   3.928 -0.2183  0.4180  0.1769
   99MOL   H20843524   7.286   5.948   3.988  2.6530  0.0700 -0.9849
   99MOL   H20943525   7.270   5.990   3.758  1.0680  1.1537  0.8946
   99MOL   H21043526   7.511   5.822   3.831 -0.0769  0.3054 -0.0913
   99MOL   H21143527   7.486   5.981   3.888  3.5452  0.0798 -0.8002
   99MOL   H21243528   7.483   6.072   3.638  0.2298 -0.0941  1.0922
   99MOL   H21343529   7.629   5.996   3.680  0.4983  0.9623 -1.0872
   99MOL   H21443530   7.531   5.916   3.462  0.7298 -1.0741 -0.2406
   99MOL   H21543531   7.571   5.795   3.575 -1.3980 -1.9831 -0.2293
   99MOL   H21643532   7.298   5.916   3.514 -2.2109 -0.2272  1.7892
   99MOL   H21743533   7.351   5.751   3.472  0.9710 -0.5952  0.8033
   99MOL   H21843534   7.174   5.780   3.669  0.0136 -1.9223 -3.6647
   99MOL   H21943535   7.325   5.697   3.700  0.3919 -0.8816 -2.5202
   99MOL   H22043536   7.042   5.819   3.864  3.0567 -1.6495 -0.0172
   99MOL   H22143537   7.052   5.873   4.029  0.3014  1.2542  0.5484
   99MOL   C22243538   7.042   6.031   3.885  0.2530 -0.7856  0.3574
   99MOL   C22343539   7.001   6.024   3.737  0.4715 -0.0069 -0.0743
   99MOL   C22443540   7.018   6.156   3.656 -0.0254  0.5188  0.6082
   99MOL   C22543541   6.980   6.140   3.507  0.4667  0.1209  0.0287
   99MOL   C22643542   6.835   6.085   3.482  0.5355 -0.8606 -0.2367
   99MOL   C22743543   6.819   5.955   3.564  0.0068 -0.0804  0.1837
   99MOL   C22843544   6.857   5.965   3.713  0.0621 -0.1233 -0.0230
   99MOL   C22943545   6.924   6.078   3.979 -0.3392  0.5223 -0.5084
   99MOL   H23043546   7.131   6.092   3.897 -1.4371  1.6559  0.7651
   99MOL   H23143547   7.075   5.962   3.687 -0.2662  1.1975 -2.7487
   99MOL   H23243548   6.958   6.232   3.704 -0.6572 -0.2289  1.0067
   99MOL   H23343549   7.115   6.201   3.677 -0.0318 -0.1926  2.2613
   99MOL   H23443550   7.050   6.076   3.453  1.5279  1.2234  0.0712
   99MOL   H23543551   6.981   6.232   3.448  1.6999  0.1190  0.0276
   99MOL   H23643552   6.768   6.167   3.509  0.4246 -0.9090 -0.3681
   99MOL   H23743553   6.818   6.073   3.376  0.6163  0.2963 -0.3862
   99MOL   H23843554   6.871   5.870   3.521  2.2572  0.8253  1.0218
   99MOL   H23943555   6.716   5.922   3.556 -0.3169  1.0668 -0.6098
   99MOL   H24043556   6.795   6.037   3.766  1.2768  1.7496 -1.0686
   99MOL   H24143557   6.861   5.867   3.760  2.6532 -0.5036 -0.9593
   99MOL   H24243558   6.846   6.002   3.985 -0.1786  0.1660 -2.7989
   99MOL   H24343559   6.875   6.160   3.928  0.8367  1.1195 -0.6921
   99MOL   C24443560   6.983   6.140   4.110  0.0180  0.1904 -0.2680
   99MOL   C24543561   6.887   6.127   4.230  0.2659  0.1875  0.0271
   99MOL   C24643562   6.874   5.976   4.267  0.3634  0.3775 -0.9221
   99MOL   C24743563   6.795   5.967   4.398 -0.5359  0.9883  0.2953
   99MOL   C24843564   6.663   6.044   4.411 -0.2151  0.4441  0.1176
   99MOL   C24943565   6.669   6.187   4.354 -0.3395  0.6992  0.4761
   99MOL   C25043566   6.754   6.200   4.220 -0.1733  0.7246  0.3066
   99MOL   C25143567   7.023   6.285   4.093  0.4965  0.3924 -0.1073
   99MOL   H25243568   7.069   6.078   4.136 -0.7603 -1.1504 -0.8496
   99MOL   H25343569   6.941   6.188   4.302  0.0583  1.3764 -0.7991
   99MOL   H25443570   6.971   5.930   4.284 -0.4818 -1.0194  0.2021
   99MOL   H25543571   6.826   5.926   4.183  0.3628  0.4063 -0.9384
   99MOL   H25643572   6.785   5.860   4.418 -2.0517  0.8160 -1.2867
   99MOL   H25743573   6.870   6.013   4.462  1.3736 -0.6426 -0.7078
   99MOL   H25843574   6.585   5.992   4.354  1.9056 -1.7787 -0.8755
   99MOL   H25943575   6.628   6.048   4.514  0.5347 -1.2569  0.4552
   99MOL   H26043576   6.712   6.251   4.431  1.3613 -1.3264  1.2786
   99MOL   H26143577   6.567   6.217   4.332 -1.2494 -1.3414  1.7809
   99MOL   H26243578   6.706   6.165   4.128 -0.2022 -0.2621  0.6869
   99MOL   H26343579   6.769   6.304   4.192  0.4072  0.0156 -2.1679
   99MOL   H26443580   6.942   6.357   4.107 -0.0820 -0.5407  1.4348
   99MOL   H26543581   7.046   6.306   3.989  0.2668  0.0800 -0.2238
   99MOL   C26643582   7.147   6.317   4.191  0.0987 -0.3093  0.4799
   99MOL   C26743583   7.274   6.287   4.106  0.5466  0.3556  0.2187
   99MOL   C26843584   7.396   6.295   4.195 -0.3435  0.0339 -0.2795
   99MOL   C26943585   7.531   6.262   4.120 -0.7733 -0.4307 -0.7691
   99MOL   C27043586   7.553   6.333   3.984  0.3757  0.3407  0.4129
   99MOL   C27143587   7.422   6.328   3.911 -0.1023 -0.0377  0.3428
   99MOL   C27243588   7.299   6.377   3.980 -0.0554 -0.4117  0.0064
   99MOL   C27343589   7.126   6.459   4.253  0.0753  0.2955  0.0130
   99MOL   H27443590   7.159   6.247   4.274  3.5592  1.1086  1.2856
   99MOL   H27543591   7.261   6.185   4.071  1.4798  0.7460 -1.3406
   99MOL   H27643592   7.416   6.390   4.245 -0.3079 -0.6945  1.1101
   99MOL   H27743593   7.385   6.222   4.276  0.4782 -1.1728 -1.2380
   99MOL   H27843594   7.525   6.156   4.093  0.3669 -0.1897 -2.0308
   99MOL   H27943595   7.615   6.281   4.186  0.0477  2.0757 -2.4598
   99MOL   H28043596   7.596   6.433   3.993  2.8475 -0.5245 -1.3944
   99MOL   H28143597   7.637   6.284   3.936  2.5234  3.3725  0.9164
   99MOL   H28243598   7.406   6.224   3.881 -1.6350 -0.0939  1.2509
   99MOL   H28343599   7.434   6.389   3.822  0.9227  2.1734  1.9431
   99MOL   H28443600   7.218   6.361   3.908 -1.6661 -0.3847  1.7637
   99MOL   H28543601   7.314   6.484   3.990  0.6664 -0.7258  2.7192
   99MOL   H28643602   7.079   6.520   4.176 -1.4292 -0.6915  0.1298
   99MOL   H28743603   7.219   6.513   4.270 -0.1834  0.5531  0.5999
   99MOL   C28843604   7.054   6.460   4.384  0.3192  0.0222 -0.5565
   99MOL   C28943605   6.961   6.591   4.393  0.1308  0.3014  0.2464
   99MOL   C29043606   7.030   6.726   4.366 -0.1469  0.6920 -0.4375
   99MOL   C29143607   6.922   6.835   4.365  0.9918  0.1387 -0.7729
   99MOL   C29243608   6.792   6.807   4.282  0.0474 -0.0004  0.0030
   99MOL   C29343609   6.730   6.667   4.308  0.1821 -0.6442 -0.0469
   99MOL   C29443610   6.836   6.561   4.309 -0.0815  0.1344  0.4097
   99MOL   C29543611   7.150   6.434   4.505  0.2450 -0.7003  0.3050
   99MOL   H29643612   6.986   6.374   4.384 -1.5522  1.4791 -0.4565
   99MOL   H29743613   6.930   6.592   4.498  2.3694  1.3283  0.9294
   99MOL   H29843614   7.119   6.736   4.429  0.9906 -1.6713 -1.5967
   99MOL   H29943615   7.074   6.727   4.266  1.0464 -1.5388  0.0075
   99MOL   H30043616   6.881   6.854   4.465  0.0460 -1.2230 -0.8914
   99MOL   H30143617   6.969   6.932   4.350 -0.0671  0.7701 -0.1349
   99MOL   H30243618   6.824   6.816   4.178  0.2014  1.9871  0.2041
   99MOL   H30343619   6.723   6.891   4.292  1.4157  1.1030  0.3065
   99MOL   H30443620   6.664   6.645   4.225 -0.7902 -1.1964  0.8514
   99MOL   H30543621   6.665   6.672   4.396 -1.6456  1.1336 -1.4675
   99MOL   H30643622   6.871   6.543   4.207  0.5524  1.5335  0.3742
   99MOL   H30743623   6.791   6.465   4.334 -1.0068 -0.2678 -2.5112
   99MOL   H30843624   7.216   6.350   4.487  0.2076 -1.0820  1.9304
   99MOL   H30943625   7.214   6.522   4.504  1.7912 -1.8085 -1.9278
   99MOL   C31043626   7.101   6.440   4.655 -0.3297 -0.1172  0.4279
   99MOL   C31143627   6.971   6.356   4.679 -0.1039 -0.8285 -0.8397
   99MOL   C31243628   6.977   6.193   4.662  0.0430 -0.3033 -0.5737
   99MOL   C31343629   6.855   6.114   4.713  0.6735 -0.4569  0.8026
   99MOL   C31443630   6.812   6.156   4.856 -0.2660 -0.3330  0.0432
   99MOL   C31543631   6.790   6.307   4.860  0.2966  0.5302 -0.5192
   99MOL   C31643632   6.912   6.389   4.819 -0.7311 -0.0233  0.1473
   99MOL   C31743633   7.231   6.400   4.731 -0.0072 -0.6718 -0.0246
   99MOL   H31843634   7.073   6.545   4.672  0.3705  0.4500 -1.7258
   99MOL   H31943635   6.886   6.391   4.621  0.3523  1.0264 -0.4212
   99MOL   H32043636   6.990   6.179   4.555  0.4854 -0.3857 -0.5116
   99MOL   H32143637   7.065   6.154   4.713 -0.0563 -0.7325 -0.7360
   99MOL   H32243638   6.881   6.009   4.704 -3.1570 -1.6775  2.9037
   99MOL   H32343639   6.767   6.124   4.649 -0.2050 -0.5933  1.9716
   99MOL   H32443640   6.725   6.097   4.884 -0.1049 -1.2089 -1.2515
   99MOL   H32543641   6.891   6.127   4.925  0.4071  0.2968 -0.4625
   99MOL   H32643642   6.710   6.333   4.791 -0.3788 -0.6009 -0.1834
   99MOL   H32743643   6.763   6.322   4.965  1.3230 -2.2918  0.2062
   99MOL   H32843644   6.985   6.371   4.898  0.9378  0.9874 -1.1184
   99MOL   H32943645   6.893   6.495   4.834 -0.4132  0.5879 -3.2966
   99MOL   H33043646   7.323   6.416   4.675 -1.4192  1.3788 -1.8357
   99MOL   H33143647   7.232   6.291   4.742  2.8151 -0.6144  0.5056
   99MOL   C33243648   7.253   6.469   4.869 -0.0554 -0.0914  0.1306
   99MOL   C33343649   7.303   6.621   4.856 -0.5352 -0.0378  0.8500
   99MOL   C33443650   7.452   6.640   4.813  0.4911 -0.0420 -0.2786
   99MOL   C33543651   7.477   6.786   4.770  0.6701  0.3229  0.4289
   99MOL   C33643652   7.449   6.881   4.893 -0.1883 -0.7325  0.2554
   99MOL   C33743653   7.312   6.845   4.954  0.1791  0.7382 -0.4069
   99MOL   C33843654   7.291   6.693   4.982  0.3148  0.1627  0.0056
   99MOL   C33943655   7.349   6.381   4.948 -0.5230  0.8070  0.0301
   99MOL   H34043656   7.162   6.483   4.927 -0.5703 -0.0209 -0.6867
   99MOL   H34143657   7.248   6.665   4.773  0.6498 -1.0260 -0.4838
   99MOL   H34243658   7.528   6.609   4.886 -0.0564 -0.6005  0.0628
   99MOL   H34343659   7.480   6.570   4.735  0.6862 -0.8754  0.5294
   99MOL   H34443660   7.579   6.802   4.736  1.1006 -0.6387  1.2342
   99MOL   H34543661   7.411   6.800   4.684 -0.4599 -1.8562  0.9152
   99MOL   H34643662   7.521   6.862   4.972 -1.3631  1.0298  1.8007
   99MOL   H34743663   7.465   6.987   4.871 -0.9480 -0.5018  0.7739
   99MOL   H34843664   7.238   6.873   4.880  0.0081 -0.3021 -0.6422
   99MOL   H34943665   7.294   6.899   5.047 -0.4146  0.9483 -0.6422
   99MOL   H35043666   7.193   6.680   5.028  0.4082  2.0986  0.8129
   99MOL   H35143667   7.368   6.662   5.051 -0.2450 -2.3615 -0.4661
   99MOL   H35243668   7.402   6.437   5.026  0.6091  0.8198 -0.7318
   99MOL   H35343669   7.428   6.351   4.879  0.2670  2.6738  0.0793
   99MOL   C35443670   7.290   6.258   5.014  0.1997  0.2992 -0.3408
   99MOL   C35543671   7.189   6.290   5.124 -0.4669 -0.1383 -0.2719
   99MOL   C35643672   7.252   6.360   5.246  0.0887 -0.4745 -0.1951
   99MOL   C35743673   7.129   6.398   5.324  0.4276  0.3761 -0.2470
   99MOL   C35843674   7.058   6.265   5.370 -0.5184 -0.2246  0.4432
   99MOL   C35943675   7.009   6.185   5.251 -0.5570  0.3846  0.1550
   99MOL   C36043676   7.131   6.154   5.168 -0.3611  0.4231  0.0389
   99MOL   C36143677   7.412   6.162   5.068 -0.4454 -0.0539  0.0917
   99MOL   H36243678   7.237   6.197   4.940 -0.6686  1.4437 -0.6668
   99MOL   H36343679   7.115   6.356   5.079 -0.9947 -0.4362  0.1596
   99MOL   H36443680   7.311   6.448   5.221 -0.2280 -0.3640 -0.5512
   99MOL   H36543681   7.309   6.296   5.313  2.3386  1.6806  0.0414
   99MOL   H36643682   7.159   6.455   5.412 -0.1413 -0.0346  0.2187
   99MOL   H36743683   7.058   6.453   5.263 -0.9358 -0.9982  0.0641
   99MOL   H36843684   7.128   6.211   5.433  1.3891  1.6964  0.0520
   99MOL   H36943685   6.977   6.299   5.435  0.0295  0.0517  0.9870
   99MOL   H37043686   6.962   6.093   5.287 -4.2656  2.0427 -0.1862
   99MOL   H37143687   6.928   6.235   5.198  0.0387  1.5254  0.3154
   99MOL   H37243688   7.114   6.093   5.079 -2.5149  1.6366 -0.4115
   99MOL   H37343689   7.196   6.108   5.243 -0.5062  0.7684  0.3822
   99MOL   H37443690   7.359   6.078   5.112 -1.9108  0.0710 -1.3365
   99MOL   H37543691   7.473   6.203   5.148  0.4896  0.9712 -1.1152
   99MOL   C37643692   7.521   6.121   4.968  0.5388  0.3377  0.7495
   99MOL   C37743693   7.649   6.052   5.042  0.8159  0.3651  0.0917
   99MOL   C37843694   7.599   5.925   5.117 -0.4331 -0.1871  0.3887
   99MOL   C37943695   7.730   5.856   5.173  0.7038  0.8015 -0.0717
   99MOL   C38043696   0.053   5.934   5.263 -0.0805  0.0348  0.6449
   99MOL   C38143697   0.091   6.063   5.184  0.6485  0.0049  0.2807
   99MOL   C38243698   7.736   6.137   5.130 -0.0771 -0.5732  0.0362
   99MOL   C38343699   7.452   6.049   4.848 -0.6511  0.4991  0.0649
   99MOL   H38443700   7.562   6.206   4.913 -1.3861  0.1221 -1.0793
   99MOL   H38543701   7.714   6.024   4.960  0.2375 -0.3354 -0.1377
   99MOL   H38643702   7.541   5.957   5.204  0.6414 -0.9159  1.3928
   99MOL   H38743703   7.533   5.868   5.053 -1.0338  1.4323 -0.4669
   99MOL   H38843704   0.018   5.847   5.083  2.2766  0.0696  1.0391
   99MOL   H38943705   7.714   5.756   5.214 -0.1805  1.7337  1.9021
   99MOL   H39043706   7.766   5.953   5.352 -0.1081  0.1596  0.5999
   99MOL   H39143707   0.136   5.869   5.289 -2.1959 -2.2180  1.9532
   99MOL   H39243708   0.147   6.132   5.247 -1.2755  1.0170  0.9033
   99MOL   H39343709   0.150   6.033   5.097 -0.3407  2.6691 -1.3889
   99MOL   H39443710   7.669   6.176   5.206  1.0964  1.5359  0.0200
   99MOL   H39543711   7.771   6.225   5.075 -0.0320 -1.1831 -0.9234
   99MOL   H39643712   7.384   6.122   4.804  1.3949  2.6459  0.3531
   99MOL   H39743713   7.403   5.965   4.898  1.1550  0.1051  1.2130
   99MOL   C39843714   7.538   5.993   4.730 -0.0485 -0.7702  0.6196
   99MOL   C39943715   7.451   5.929   4.617 -0.4212 -0.1464 -0.6226
   99MOL   C40043716   7.361   5.818   4.668 -0.1671 -0.1692 -1.0180
   99MOL   C40143717   7.291   5.742   4.560 -0.1108 -0.2918 -0.0396
   99MOL   C40243718   7.200   5.839   4.474  0.0293  0.3265  0.2369
   99MOL   C40343719   7.293   5.951   4.421 -0.0008 -0.7247  0.0653
   99MOL   C40443720   7.358   6.022   4.539 -0.3849  0.6294  0.0464
   99MOL   C40543721   7.636   6.094   4.665  0.4981  0.7214 -0.4088
   99MOL   H40643722   7.599   5.924   4.787  1.4295  1.0428  1.2916
   99MOL   H40743723   7.521   5.890   4.542 -0.9649 -0.0089 -1.2061
   99MOL   H40843724   7.283   5.856   4.735  1.5260  1.3720  0.1213
   99MOL   H40943725   7.410   5.738   4.723 -0.6799 -0.0258 -0.3480
   99MOL   H41043726   7.241   5.660   4.613 -4.2700  1.0923 -1.5973
   99MOL   H41143727   7.363   5.693   4.495 -0.2538  0.5704 -0.8639
   99MOL   H41243728   7.119   5.888   4.527  0.1275  0.7126  0.0310
   99MOL   H41343729   7.155   5.776   4.397  1.5184 -1.1804  0.5758
   99MOL   H41443730   7.365   5.922   4.345  0.8330 -1.9515  1.3013
   99MOL   H41543731   7.239   6.032   4.373  1.0128 -0.2326 -0.2454
   99MOL   H41643732   7.413   6.111   4.509  2.3698 -0.1701  2.4613
   99MOL   H41743733   7.277   6.058   4.602 -0.1630  0.4953  0.4104
   99MOL   H41843734   7.587   6.177   4.613 -1.0000  1.0601  1.4840
   99MOL   H41943735   7.679   6.133   4.757 -2.9496 -0.5415  1.8692
   99MOL   C42043736   7.759   6.047   4.577 -0.4806  0.2266 -0.3059
   99MOL   C42143737   0.080   5.944   4.645 -1.0227 -0.0462  0.2467
   99MOL   C42243738   0.182   6.009   4.752 -0.6789  0.6795  0.0603
   99MOL   C42343739   0.261   5.897   4.824 -0.6404  0.0405 -0.3917
   99MOL   C42443740   0.340   5.807   4.719 -0.3142  0.1967  0.6261
   99MOL   C42543741   0.246   5.749   4.610 -0.2796 -0.2109 -0.6489
   99MOL   C42643742   0.157   5.858   4.542 -0.4032 -0.1909  0.1657
   99MOL   C42743743   0.062   6.171   4.534 -0.0271 -0.3393  0.6531
   99MOL   H42843744   7.729   6.010   4.479 -0.2974 -1.6267  0.3094
   99MOL   H42943745   0.020   5.870   4.698 -1.4517  0.6930  0.7898
   99MOL   H43043746   0.256   6.084   4.724 -0.1399  0.7395  1.6139
   99MOL   H43143747   0.109   6.061   4.815 -2.4695  1.0683 -2.2423
   99MOL   H43243748   0.318   5.937   4.907  0.2064 -0.5118 -0.6996
   99MOL   H43343749   0.196   5.828   4.878  1.3485 -0.5647  1.2578
   99MOL   H43443750   0.385   5.728   4.779 -0.7114 -0.7656 -0.3266
   99MOL   H43543751   0.416   5.877   4.683 -1.2184  1.3028  0.8337
   99MOL   H43643752   0.178   5.681   4.661  0.9611  1.0497  2.8353
   99MOL   H43743753   0.306   5.693   4.538  1.3678  0.4500  0.1955
   99MOL   H43843754   0.217   5.927   4.482 -1.6010  1.2665  0.6187
   99MOL   H43943755   0.089   5.812   4.471  0.8071 -1.9979  0.1479
   99MOL   H44043756   0.127   6.208   4.613 -0.2107  0.0253  0.6350
   99MOL   H44143757   0.123   6.165   4.444  0.7156 -2.0029  1.2535
   99MOL   H44243758   7.765   6.251   4.508  1.7803 -0.0647 -3.5925
  100MOL     C143759   1.237   7.688   7.660  0.0898  0.0383  0.5817
  100MOL     C243760   1.338   7.609   7.744  0.0038  0.2795  0.3341
  100MOL     C343761   1.472   7.577   7.669  0.1473  0.2623 -0.1916
  100MOL     C443762   1.573   7.507   7.764  0.3396 -0.4877  0.5233
  100MOL     C543763   1.518   7.380   0.051 -0.0913 -0.1052 -0.4238
  100MOL     C643764   1.384   7.398   0.119 -0.0068  0.1969 -0.3069
  100MOL     C743765   1.289   7.469   0.018  0.7607  0.2225 -0.7247
  100MOL     C843766   1.281   0.052   7.609  0.1573 -0.5339  0.2157
  100MOL     H943767   1.208   7.626   7.575 -1.2394  1.9459 -0.3910
  100MOL    H1043768   1.372   7.671   0.054 -0.6687 -0.6825  1.3397
  100MOL    H1143769   1.449   7.524   7.577 -0.4459  0.0912  0.0503
  100MOL    H1243770   1.513   7.674   7.642  0.6747  0.8493  2.4989
  100MOL    H1343771   1.594   7.566   0.081 -1.5619 -2.5801  2.4228
  100MOL    H1443772   1.670   7.494   7.716 -0.6609 -0.9072 -1.4179
  100MOL    H1543773   1.596   7.343   0.118 -0.8839  3.9726  2.9604
  100MOL    H1643774   1.492   7.307   7.747  0.5119 -0.8779  0.1042
  100MOL    H1743775   1.335   7.306   0.152 -0.2762  0.3711 -0.2184
  100MOL    H1843776   1.399   7.455   0.211  1.8002  0.2226 -0.6039
  100MOL    H1943777   1.192   7.486   0.066  0.8428 -1.4375  0.0586
  100MOL    H2043778   1.270   7.411   7.700  1.6160  1.5894 -1.8082
  100MOL    H2143779   1.353   0.027   7.531  1.1666 -2.4616  1.7379
  100MOL    H2243780   1.328   0.108   7.689 -0.4658 -2.8151  2.2382
  100MOL    H2343781   1.142   7.702   7.713 -0.4118  1.3653 -0.6374
  100MOL    C2443782   1.164   0.134   7.552  0.1848  0.1084 -0.0207
  100MOL    C2543783   1.190   0.288   7.555 -0.2865  0.2542 -0.4694
  100MOL    C2643784   1.070   0.383   7.551  0.8165 -0.2037 -0.6414
  100MOL    C2743785   1.104   0.531   7.580  0.6196  1.1607  0.1320
  100MOL    C2843786   1.218   0.575   7.488  0.4304  0.2691 -0.2680
  100MOL    C2943787   1.340   0.489   7.490 -0.4823  0.9635 -0.7140
  100MOL    C3043788   1.299   0.339   7.464  0.2754  1.0482  0.3075
  100MOL    C3143789   1.122   0.072   7.414 -0.2189  0.6152 -0.0543
  100MOL    H3243790   1.077   0.110   7.613 -0.2307 -0.0962 -0.6952
  100MOL    H3343791   1.220   0.316   7.656  0.3380 -0.3487 -0.4819
  100MOL    H3443792   0.996   0.345   7.620 -0.1678  1.1194 -0.9497
  100MOL    H3543793   1.043   0.385   7.445  1.7971  0.2310 -0.8925
  100MOL    H3643794   1.022   0.601   7.565  0.2415  0.8103  0.5979
  100MOL    H3743795   1.143   0.547   7.681  1.2471 -1.7857  0.3864
  100MOL    H3843796   1.235   0.680   7.513  2.3008 -0.6859  2.7197
  100MOL    H3943797   1.176   0.566   7.387 -3.1548  0.0132  1.1819
  100MOL    H4043798   1.410   0.519   7.413 -1.7012 -0.7895 -2.5781
  100MOL    H4143799   1.389   0.491   7.587 -1.7842 -0.5012 -0.0059
  100MOL    H4243800   1.253   0.344   7.365 -1.5017  3.2894  1.1899
  100MOL    H4343801   1.384   0.272   7.470  1.4651  2.5059  0.0850
  100MOL    H4443802   1.150   7.740   7.403 -4.4085 -0.6379  0.1729
  100MOL    H4543803   1.182   0.133   7.347  0.6492  0.8525  0.9228
  100MOL    C4643804   0.968   0.073   7.377 -0.0661 -0.1071  0.4863
  100MOL    C4743805   0.889   7.732   7.451 -0.3179  0.4464  0.5709
  100MOL    C4843806   0.918   7.586   7.407 -0.3928 -0.5402 -0.4476
  100MOL    C4943807   0.847   7.488   7.508 -0.2952 -0.8534 -0.5819
  100MOL    C5043808   0.700   7.511   7.527 -0.6249  0.4368  0.6852
  100MOL    C5143809   0.669   7.659   7.554 -0.2422 -0.0649  0.2116
  100MOL    C5243810   0.733   7.757   7.451 -0.0597 -0.6382 -0.2281
  100MOL    C5343811   0.949   0.061   7.223  0.1897  0.3305 -0.4401
  100MOL    H5443812   0.940   0.172   7.410  0.0788  0.1616 -0.1936
  100MOL    H5543813   0.916   7.731   7.557 -0.1286 -0.9672  0.5239
  100MOL    H5643814   0.881   7.567   7.306 -1.0844 -0.7728 -0.1551
  100MOL    H5743815   1.024   7.561   7.414 -0.9047 -3.4065 -2.3490
  100MOL    H5843816   0.887   7.497   7.609 -0.5611  0.5014 -0.5748
  100MOL    H5943817   0.879   7.387   7.485  0.6654 -0.5906 -0.4119
  100MOL    H6043818   0.647   7.507   7.432  0.8807 -1.5525 -0.1121
  100MOL    H6143819   0.650   7.439   7.592  0.5025  0.5786  1.7336
  100MOL    H6243820   0.710   7.672   7.654 -1.1463 -0.0747  0.5897
  100MOL    H6343821   0.565   7.685   7.571 -0.9134 -1.9464 -0.8359
  100MOL    H6443822   0.691   7.749   7.351  0.1825 -1.4668 -0.2718
  100MOL    H6543823   0.708   0.086   7.483  3.6462  0.6984 -1.3627
  100MOL    H6643824   0.847   0.028   7.204  0.3838 -0.1839 -0.6042
  100MOL    H6743825   1.008   7.747   7.191  2.2710  1.3535  0.5260
  100MOL    C6843826   0.969   0.186   7.143 -0.0748 -0.8857  0.2859
  100MOL    C6943827   1.094   0.173   7.037  0.3670  0.3129  0.1599
  100MOL    C7043828   1.233   0.208   7.090  0.8400 -1.0366 -0.3708
  100MOL    C7143829   1.336   0.219   6.970 -0.6888 -0.0115 -0.2471
  100MOL    C7243830   1.353   0.080   6.908  0.2958 -1.1967 -0.0262
  100MOL    C7343831   1.219   0.046   6.845  0.4226  0.2235 -0.2804
  100MOL    C7443832   1.111   0.041   6.961  0.1968 -0.4641  0.0277
  100MOL    C7543833   0.845   0.217   7.059  0.2811  0.1595  0.3280
  100MOL    H7643834   0.993   0.271   7.207 -1.4925 -1.8831  2.1664
  100MOL    H7743835   1.078   0.258   6.972 -0.6939 -0.4898 -0.6497
  100MOL    H7843836   1.276   0.133   7.157 -0.0377 -2.7778 -1.7002
  100MOL    H7943837   1.234   0.305   7.139 -0.5273 -0.7915 -0.8111
  100MOL    H8043838   1.309   0.290   6.892  1.5061  0.7047 -0.3725
  100MOL    H8143839   1.426   0.265   7.012 -1.0396 -0.5502  1.1228
  100MOL    H8243840   1.373   0.005   6.984 -2.1806 -1.8328  0.0612
  100MOL    H8343841   1.430   0.077   6.831  1.2668  1.3279  0.7830
  100MOL    H8443842   1.229   7.725   6.789  0.9377  1.4199 -2.2319
  100MOL    H8543843   1.199   0.120   6.768 -1.5980 -1.7538 -1.7385
  100MOL    H8643844   1.141   7.737   7.032  0.6332  0.7679  1.1857
  100MOL    H8743845   1.014   0.010   6.922  0.0758  1.2666 -1.1030
  100MOL    H8843846   0.866   0.306   7.001 -0.4488  1.1876  1.6114
  100MOL    H8943847   0.834   0.132   6.992 -2.1004 -0.0807  0.9886
  100MOL    C9043848   0.706   0.245   7.122 -0.3207 -0.5612 -0.3626
  100MOL    C9143849   0.712   0.348   7.244 -0.4798 -0.0005  0.2416
  100MOL    C9243850   0.723   0.500   7.204  0.1726 -0.1724  0.0939
  100MOL    C9343851   0.760   0.582   7.332 -0.6860 -0.3282  0.3221
  100MOL    C9443852   0.664   0.553   7.447  0.3041  0.6220  0.4680
  100MOL    C9543853   0.635   0.409   7.474 -0.1434 -0.5949  0.1152
  100MOL    C9643854   0.597   0.331   7.351 -0.1455  0.3754 -0.0723
  100MOL    C9743855   0.599   0.284   7.015 -0.0425  0.4987  0.1345
  100MOL    H9843856   0.667   0.149   7.157 -0.5367  0.0572  1.1611
  100MOL    H9943857   0.809   0.332   7.292 -0.6196  1.2422  0.9562
  100MOL   H10043858   0.624   0.533   7.170  0.0703 -1.4044 -0.8373
  100MOL   H10143859   0.804   0.498   7.132 -0.9683 -3.2880 -1.2216
  100MOL   H10243860   0.779   0.685   7.303 -3.0276 -0.0584 -0.3574
  100MOL   H10343861   0.865   0.565   7.355 -0.4684  0.4511 -0.0717
  100MOL   H10443862   0.573   0.606   7.417  0.9713  2.0218  0.9283
  100MOL   H10543863   0.695   0.614   7.532  1.3113  2.4663 -1.1907
  100MOL   H10643864   0.719   0.369   7.532 -0.6727  0.6557  1.8048
  100MOL   H10743865   0.551   0.401   7.543  0.6807  2.0802  1.5331
  100MOL   H10843866   0.572   0.226   7.372  1.8181  0.1312  1.1520
  100MOL   H10943867   0.507   0.375   7.309  1.6775  2.4469 -1.9044
  100MOL   H11043868   0.499   0.279   7.059 -0.1336 -0.0763 -0.1343
  100MOL   H11143869   0.617   0.391   7.002 -0.7458  0.9238  2.3575
  100MOL   C11243870   0.595   0.217   6.875  0.5200  0.4092 -0.0803
  100MOL   C11343871   0.496   0.282   6.781  0.5449 -1.3265  0.1571
  100MOL   C11443872   0.529   0.423   6.734  0.3023  0.2549 -0.8575
  100MOL   C11543873   0.445   0.474   6.620  0.1021 -0.2646 -0.0823
  100MOL   C11643874   0.301   0.452   6.655  0.0410 -1.3761  0.1126
  100MOL   C11743875   0.265   0.311   6.696  1.0050  0.0267  0.0327
  100MOL   C11843876   0.356   0.249   6.809  0.1652 -0.4316 -0.5572
  100MOL   C11943877   0.573   0.064   6.905  0.0123  0.7460  0.3361
  100MOL   H12043878   0.692   0.213   6.826  1.7666 -1.2017  2.4372
  100MOL   H12143879   0.519   0.237   6.684 -1.3887  0.8634 -1.3664
  100MOL   H12243880   0.635   0.430   6.709  0.0064  0.5979 -2.0816
  100MOL   H12343881   0.507   0.491   6.816  0.4027 -1.2456  0.4255
  100MOL   H12443882   0.460   0.577   6.588  1.4494 -0.4149  0.0013
  100MOL   H12543883   0.471   0.418   6.531 -0.7730 -2.8601  1.2465
  100MOL   H12643884   0.278   0.519   6.737  2.3706  0.3280 -0.5963
  100MOL   H12743885   0.238   0.474   6.568 -0.8680 -2.2102  0.5416
  100MOL   H12843886   0.164   0.295   6.733  0.3164  3.1345 -0.3836
  100MOL   H12943887   0.260   0.245   6.610 -0.7299  0.2584 -0.0580
  100MOL   H13043888   0.332   0.143   6.806  1.3655 -0.7562  0.8264
  100MOL   H13143889   0.320   0.281   6.907 -2.0761  2.6360 -2.2743
  100MOL   H13243890   0.476   0.065   6.954 -0.1704  0.9498 -0.0245
  100MOL   H13343891   0.642   0.014   6.973  0.0282  0.8607  0.4033
  100MOL   C13443892   0.569   7.738   6.775 -0.3584 -0.3915  0.7313
  100MOL   C13543893   0.483   7.612   6.810  0.1383 -0.0096  0.5433
  100MOL   C13643894   0.329   7.641   6.840  0.0979  1.2210 -0.1420
  100MOL   C13743895   0.244   7.518   6.869 -0.7426 -0.4892 -0.1020
  100MOL   C13843896   0.310   7.433   6.980  0.6941  0.2373  0.1951
  100MOL   C13943897   0.459   7.404   6.958  0.6354  0.0535  0.1082
  100MOL   C14043898   0.542   7.523   6.922  0.1030 -0.0617  0.5421
  100MOL   C14143899   0.711   7.713   6.727  0.1550 -0.0653 -0.0710
  100MOL   H14243900   0.507   0.016   6.700 -1.0478  0.1771  1.6709
  100MOL   H14343901   0.481   7.554   6.718 -1.0900 -0.9912  1.1744
  100MOL   H14443902   0.314   7.705   6.927 -0.1418  1.0434 -0.0507
  100MOL   H14543903   0.273   7.692   6.762 -0.5271 -0.2004 -0.6382
  100MOL   H14643904   0.249   7.460   6.777 -0.3655  2.3300 -1.9259
  100MOL   H14743905   0.143   7.550   6.894  1.1311  5.0802  0.9581
  100MOL   H14843906   0.289   7.486   7.073 -1.1211  0.5778 -0.3722
  100MOL   H14943907   0.275   7.330   6.982 -0.3990  0.5896 -0.0264
  100MOL   H15043908   0.475   7.332   6.878 -1.3572  0.2898 -0.5419
  100MOL   H15143909   0.497   7.353   7.047 -1.5657  1.8463  2.1588
  100MOL   H15243910   0.563   7.578   7.014  0.4259  0.4962  0.1441
  100MOL   H15343911   0.642   7.494   6.888  0.1199  1.8288 -1.1647
  100MOL   H15443912   0.773   7.663   6.801  0.7838  2.9711  1.5420
  100MOL   H15543913   0.761   0.037   6.725  1.4542 -0.7418 -0.4913
  100MOL   C15643914   0.728   7.653   6.582 -0.5643 -0.1990 -0.0617
  100MOL   C15743915   0.860   7.573   6.561  0.4597 -0.5342  0.0098
  100MOL   C15843916   0.987   7.655   6.592 -0.0601  0.0557 -0.0832
  100MOL   C15943917   1.112   7.577   6.554 -0.0272 -0.0519 -0.7381
  100MOL   C16043918   1.119   7.444   6.626 -0.4527  0.5233 -0.2855
  100MOL   C16143919   0.996   7.360   6.602  0.0152  0.2008  0.1364
  100MOL   C16243920   0.863   7.440   6.637 -0.1050  0.1679 -0.1187
  100MOL   C16343921   0.694   7.757   6.469  0.5609  0.5507 -0.1718
  100MOL   H16443922   0.657   7.571   6.569  0.0770 -0.6465 -0.8034
  100MOL   H16543923   0.863   7.532   6.460  0.1722 -0.4201 -0.0462
  100MOL   H16643924   0.984   7.757   6.554 -0.5272  0.3867  0.8196
  100MOL   H16743925   0.987   7.673   6.700  2.0443  2.7913 -0.4987
  100MOL   H16843926   1.112   7.561   6.446  0.7620 -0.6268 -0.6571
  100MOL   H16943927   1.200   7.635   6.581 -0.0798 -0.4813  0.3732
  100MOL   H17043928   1.131   7.448   6.734 -0.9668 -1.1075 -0.1542
  100MOL   H17143929   1.209   7.398   6.586 -1.1395 -1.5346  0.4792
  100MOL   H17243930   1.004   7.272   6.665  4.8460 -0.2513 -0.9129
  100MOL   H17343931   0.994   7.319   6.501  0.5292  1.6948 -0.4989
  100MOL   H17443932   0.776   7.378   6.612 -0.4519  0.0712  1.2610
  100MOL   H17543933   0.856   7.467   6.742 -0.6452 -2.5100  0.5661
  100MOL   H17643934   0.778   0.053   6.456  0.4872  0.8152  0.7082
  100MOL   H17743935   0.611   0.049   6.498 -0.2014  0.5569 -2.2154
  100MOL   C17843936   0.639   7.692   6.335  0.0619  0.2920 -0.8193
  100MOL   C17943937   0.491   7.647   6.350  0.5287 -0.2606  0.2442
  100MOL   C18043938   0.445   7.527   6.256  0.2868 -0.0434  0.0909
  100MOL   C18143939   0.303   7.478   6.284  0.5833 -0.2703  0.8522
  100MOL   C18243940   0.202   7.596   6.280 -0.2946 -0.4319 -0.0044
  100MOL   C18343941   0.252   7.704   6.381  0.4027  0.2802  0.5770
  100MOL   C18443942   0.387   7.761   6.346  0.4655  0.0987 -0.1036
  100MOL   C18543943   0.669   0.007   6.211 -0.4294 -0.0660  0.0705
  100MOL   H18643944   0.687   7.594   6.329 -0.6009  0.1060 -3.5564
  100MOL   H18743945   0.482   7.606   6.450 -0.5109  0.4071  0.4259
  100MOL   H18843946   0.459   7.560   6.154  1.9997  0.5916  0.5191
  100MOL   H18943947   0.504   7.436   6.269 -0.2392 -0.2772  0.9050
  100MOL   H19043948   0.298   7.420   6.376 -0.5678  1.3680  1.8560
  100MOL   H19143949   0.275   7.404   6.210  0.5932  1.2382 -0.6954
  100MOL   H19243950   0.193   7.642   6.181  2.8405  1.0529  0.3519
  100MOL   H19343951   0.103   7.563   6.313  0.0727 -0.9704  0.5580
  100MOL   H19443952   0.253   7.666   6.483 -2.2250 -0.4074  0.3912
  100MOL   H19543953   0.179   0.013   6.381  0.7893  0.6726 -1.6267
  100MOL   H19643954   0.376   0.042   6.252 -1.6801  2.4019  1.3856
  100MOL   H19743955   0.411   0.059   6.426  2.3529 -0.5731 -0.0609
  100MOL   H19843956   0.607   7.753   6.125  0.2988 -0.4537 -0.3442
  100MOL   H19943957   0.647   0.110   6.239  0.9847 -0.8635  4.3439
  100MOL   C20043958   0.814   7.767   6.150 -0.6686  0.0110  0.0637
  100MOL   C20143959   0.841   7.619   6.094  0.6963  0.4122  0.6203
  100MOL   C20243960   0.751   7.580   5.975  0.0512 -0.3298 -0.3080
  100MOL   C20343961   0.776   7.431   5.929 -0.4290  0.4658  0.0362
  100MOL   C20443962   0.930   7.394   5.914  0.7372 -0.4718  0.1151
  100MOL   C20543963   1.025   7.454   6.024 -0.0172 -0.0692  0.3387
  100MOL   C20643964   0.995   7.599   6.061 -0.2178  0.5143  0.5606
  100MOL   C20743965   0.839   0.104   6.043  0.1013 -0.3707  0.0801
  100MOL   H20843966   0.881   0.009   6.236  0.5534 -2.9287 -0.3500
  100MOL   H20943967   0.810   7.554   6.176 -0.0538 -1.6980 -1.3082
  100MOL   H21043968   0.773   7.647   5.891  0.8293  0.7227  0.7046
  100MOL   H21143969   0.644   7.589   5.993 -0.3180  0.1572 -2.6159
  100MOL   H21243970   0.738   7.357   5.999  3.2522 -0.2315  1.4129
  100MOL   H21343971   0.721   7.422   5.835  0.3676  0.6571 -0.4596
  100MOL   H21443972   0.943   7.286   5.903  1.2694 -0.5077  1.0544
  100MOL   H21543973   0.966   7.436   5.820 -0.8427  2.5121  0.7654
  100MOL   H21643974   1.033   7.387   6.110  1.2736 -0.4955 -0.0943
  100MOL   H21743975   1.130   7.455   5.994  0.4922  1.4948  2.1072
  100MOL   H21843976   1.058   7.619   6.147 -0.4344  0.0711  0.8270
  100MOL   H21943977   1.028   7.659   5.976  0.6995 -1.1206 -0.2744
  100MOL   H22043978   0.934   0.077   5.998  0.2429 -0.2068  0.2800
  100MOL   H22143979   0.775   0.075   5.960  0.1216 -1.0117  0.2802
  100MOL   C22243980   0.828   0.252   6.081  0.0861  0.3470 -0.3130
  100MOL   C22343981   0.907   0.289   6.217  0.7354  0.6322 -0.0905
  100MOL   C22443982   0.862   0.431   6.264 -0.1477 -0.2347  0.2288
  100MOL   C22543983   0.926   0.478   6.388  0.9044  0.5939  0.1547
  100MOL   C22643984   1.078   0.458   6.380 -0.9960 -0.2057 -0.9551
  100MOL   C22743985   1.119   0.313   6.336 -0.1214  0.4242 -0.1411
  100MOL   C22843986   1.056   0.287   6.200  1.3641 -0.1585  0.0465
  100MOL   C22943987   0.874   0.339   5.959 -0.3899  0.3626 -0.0300
  100MOL   H23043988   0.722   0.267   6.096 -0.0846  0.7747 -1.8172
  100MOL   H23143989   0.878   0.214   6.290 -0.2616 -0.0893 -1.2099
  100MOL   H23243990   0.889   0.515   6.200  0.6508 -0.1851  0.6273
  100MOL   H23343991   0.755   0.424   6.284 -1.0841  2.2654 -3.4507
  100MOL   H23443992   0.888   0.421   6.472  1.9483  1.0771  0.9643
  100MOL   H23543993   0.887   0.579   6.403 -2.3963 -0.3170 -1.7462
  100MOL   H23643994   1.138   0.533   6.328 -1.5035  0.9471  0.0861
  100MOL   H23743995   1.122   0.472   6.479 -0.0694 -2.5230 -1.0227
  100MOL   H23843996   1.101   0.233   6.407  1.4348  0.1272 -0.0788
  100MOL   H23943997   1.227   0.308   6.327 -0.1856 -2.5843  0.4966
  100MOL   H24043998   1.081   0.355   6.118 -1.7144  2.6297  1.3032
  100MOL   H24143999   1.073   0.186   6.162 -0.8854 -1.7222  3.0425
  100MOL   H24244000   0.954   0.287   5.907 -1.1515  0.7233 -1.5881
  100MOL   H24344001   0.918   0.433   5.994  0.7470 -0.4444  0.7361
  100MOL   C24444002   0.764   0.378   5.858 -0.4769 -0.1832  0.0426
  100MOL   C24544003   0.827   0.449   5.734 -0.4982 -0.4619  0.4698
  100MOL   C24644004   0.862   0.346   5.620 -0.1550  0.1085 -0.8075
  100MOL   C24744005   0.905   0.411   5.487 -1.2586  0.0905  0.6061
  100MOL   C24844006   1.034   0.491   5.520 -0.4656  0.6098 -0.3373
  100MOL   C24944007   0.999   0.609   5.620 -0.5547  0.2153  0.8147
  100MOL   C25044008   0.949   0.547   5.754  0.5558 -0.5133 -0.4471
  100MOL   C25144009   0.654   0.477   5.921 -0.4060 -0.1028  0.7108
  100MOL   H25244010   0.707   0.286   5.840 -1.4667 -0.2465  3.0915
  100MOL   H25344011   0.752   0.513   5.688  0.8425  0.3514 -0.6206
  100MOL   H25444012   0.774   0.287   5.592  0.1730 -0.2458 -1.0992
  100MOL   H25544013   0.942   0.281   5.656  2.4053  2.5372 -1.9180
  100MOL   H25644014   0.928   0.341   5.407 -1.2882  0.6690  0.0877
  100MOL   H25744015   0.826   0.476   5.450 -0.9251  0.2310  0.1430
  100MOL   H25844016   1.109   0.425   5.564 -1.7177  0.3672  1.4794
  100MOL   H25944017   1.073   0.536   5.429 -0.5682  1.5147  0.0639
  100MOL   H26044018   0.932   0.681   5.573 -0.7454  0.0632  0.8534
  100MOL   H26144019   1.091   0.665   5.633 -0.7734  0.8222 -0.2105
  100MOL   H26244020   1.025   0.483   5.797  1.5407  0.1629 -1.1517
  100MOL   H26344021   0.924   0.631   5.819  1.0521  0.6059 -1.6674
  100MOL   H26444022   0.687   0.580   5.919  0.1617 -0.2154  2.9572
  100MOL   H26544023   0.653   0.470   6.030  1.4842  2.0050  0.8891
  100MOL   C26644024   0.505   0.444   5.884  0.7455 -0.2829  0.3159
  100MOL   C26744025   0.412   0.482   6.006  0.1057 -0.2027  0.3987
  100MOL   C26844026   0.445   0.616   6.083 -0.7560  0.7790  0.2665
  100MOL   C26944027   0.336   0.644   6.188  0.4040 -0.6153 -0.0180
  100MOL   C27044028   0.323   0.524   6.286 -0.2418 -0.3857 -0.1046
  100MOL   C27144029   0.311   0.386   6.219  0.4881 -0.2987 -0.7973
  100MOL   C27244030   0.409   0.364   6.105 -0.6417 -0.4893 -0.4982
  100MOL   C27344031   0.467   0.521   5.750  0.8735 -0.0680  0.5660
  100MOL   H27444032   0.493   0.337   5.866  0.8811 -0.0096 -1.4948
  100MOL   H27544033   0.311   0.483   5.966 -0.7997  1.5219  2.6260
  100MOL   H27644034   0.539   0.609   6.138  0.8943  1.5994 -2.3247
  100MOL   H27744035   0.460   0.706   6.022  1.0371 -0.2858 -0.9325
  100MOL   H27844036   0.239   0.655   6.140 -0.2595 -0.6213  1.3101
  100MOL   H27944037   0.362   0.726   6.254  0.4061 -1.5110  1.1035
  100MOL   H28044038   0.403   0.516   6.359  0.9133  0.2269 -1.2793
  100MOL   H28144039   0.241   0.551   6.353 -0.7059  2.7687 -1.8029
  100MOL   H28244040   0.209   0.387   6.180  0.4050 -1.3824 -0.6019
  100MOL   H28344041   0.317   0.312   6.298 -1.0820 -0.4481 -0.7981
  100MOL   H28444042   0.385   0.278   6.043  1.0167 -0.9952 -0.4454
  100MOL   H28544043   0.510   0.343   6.139 -0.5233 -0.1011 -0.6064
  100MOL   H28644044   0.545   0.496   5.678  0.7827  0.8343  0.1474
  100MOL   H28744045   0.503   0.621   5.771  1.4420 -0.5982  2.1851
  100MOL   C28844046   0.321   0.520   5.691  0.1314 -0.4392  0.2102
  100MOL   C28944047   0.271   0.378   5.658 -0.3699  0.2564 -0.1352
  100MOL   C29044048   0.116   0.363   5.660  0.1392 -0.1289  0.6323
  100MOL   C29144049   0.079   0.214   5.636 -0.4702  0.2394 -0.5690
  100MOL   C29244050   0.144   0.148   5.507  0.7536  0.7061  0.4068
  100MOL   C29344051   0.296   0.172   5.504  0.5298  0.6184  0.1892
  100MOL   C29444052   0.331   0.324   5.519  1.2779  0.2406  0.1188
  100MOL   C29544053   0.299   0.621   5.570  0.3151  0.3682 -0.0705
  100MOL   H29644054   0.256   0.561   5.769 -0.4090  1.4486 -1.2088
  100MOL   H29744055   0.294   0.316   5.745  1.5591  1.8181  0.4994
  100MOL   H29844056   0.071   0.383   5.757 -1.1590  0.6220 -0.1179
  100MOL   H29944057   0.070   0.428   5.585 -0.2560  0.4775  1.4041
  100MOL   H30044058   0.119   0.157   5.719 -1.2934  0.7428  0.1829
  100MOL   H30144059   7.745   0.189   5.641 -0.2558 -0.5543  0.0359
  100MOL   H30244060   0.096   0.182   5.416 -0.3731 -2.8022 -0.4123
  100MOL   H30344061   0.120   0.041   5.503  2.4712  0.3287 -0.3854
  100MOL   H30444062   0.351   0.115   5.429  0.5983  0.2785  0.4970
  100MOL   H30544063   0.330   0.125   5.596  0.3351  0.8058  0.3575
  100MOL   H30644064   0.296   0.384   5.435  1.9899  0.5723  0.0555
  100MOL   H30744065   0.437   0.344   5.501  1.9264 -2.1638  1.0588
  100MOL   H30844066   0.343   0.580   5.479 -2.0462 -1.0735 -0.6235
  100MOL   H30944067   0.191   0.636   5.560  0.7122  1.2847 -3.3959
  100MOL   C31044068   0.352   0.767   5.595  0.2122  0.4549  0.3609
  100MOL   C31144069   0.499   0.789   5.553 -0.1815 -0.4427 -0.2146
  100MOL   C31244070   0.525   0.821   5.404 -0.6798  0.5578  0.1026
  100MOL   C31344071   0.671   0.839   5.366 -0.4936 -0.0017  0.2997
  100MOL   C31444072   0.747   0.939   5.465  0.0179 -0.5955  0.2735
  100MOL   C31544073   0.719   0.896   5.608 -0.4018  0.2437 -0.6639
  100MOL   C31644074   0.566   0.884   5.645 -0.1551 -0.9213 -0.3672
  100MOL   C31744075   0.263   0.875   5.534  0.0501 -1.1777 -0.4204
  100MOL   H31844076   0.335   0.773   5.703 -0.2087 -0.1543  0.3300
  100MOL   H31944077   0.551   0.694   5.565 -1.4218 -1.2350 -0.9343
  100MOL   H32044078   0.473   0.747   5.343 -0.1350  0.0581  0.2389
  100MOL   H32144079   0.482   0.917   5.377 -2.7486  0.3627  2.5899
  100MOL   H32244080   0.671   0.875   5.263 -0.0360  1.1032  0.6763
  100MOL   H32344081   0.726   0.746   5.350 -0.2723  0.1689  0.0734
  100MOL   H32444082   0.849   0.914   5.435 -0.4729  0.4342 -2.3999
  100MOL   H32544083   0.717   1.041   5.442  0.1130 -0.8658 -1.0667
  100MOL   H32644084   0.762   0.801   5.637 -3.1813 -0.9647 -0.3151
  100MOL   H32744085   0.754   0.974   5.675  2.4012 -0.1019 -1.6538
  100MOL   H32844086   0.524   0.982   5.625  0.9420 -0.1441  1.0334
  100MOL   H32944087   0.552   0.861   5.751 -1.0652  0.6049 -0.1463
  100MOL   H33044088   0.247   0.849   5.429  0.8169 -0.5545 -0.6982
  100MOL   H33144089   0.318   0.969   5.521 -0.3619 -0.8494  0.1950
  100MOL   C33244090   0.130   0.921   5.605  0.2318  0.4123 -0.3197
  100MOL   C33344091   0.051   1.026   5.520  0.2679 -0.5015  0.4372
  100MOL   C33444092   7.744   0.966   5.401  0.0842  0.0344  0.3913
  100MOL   C33544093   7.659   1.071   5.328 -0.6879 -0.5392 -0.2369
  100MOL   C33644094   7.752   1.181   5.276  0.2549  0.2289 -0.4266
  100MOL   C33744095   0.060   1.244   5.390 -0.0277 -0.8701 -0.3108
  100MOL   C33844096   0.139   1.136   5.456 -0.5433 -0.0066  0.0721
  100MOL   C33944097   0.161   0.990   5.740  0.4940 -0.7786  0.5562
  100MOL   H34044098   0.066   0.834   5.625  1.3181 -0.8219 -2.1170
  100MOL   H34144099   7.756   1.077   5.588 -1.2230 -0.0694 -1.3357
  100MOL   H34244100   0.042   0.908   5.341  1.0422 -1.3692  2.7860
  100MOL   H34344101   7.686   0.885   5.445  0.1755  1.7495  3.8052
  100MOL   H34444102   7.601   1.034   5.244 -1.1583  0.8954 -0.5686
  100MOL   H34544103   7.578   1.114   5.386 -0.1105 -0.1630  0.2988
  100MOL   H34644104   0.036   1.139   5.192  0.4492  1.2520 -0.8177
  100MOL   H34744105   7.691   1.258   5.229 -3.0140 -1.4835  0.8427
  100MOL   H34844106   7.765   1.274   5.471 -0.5137 -0.1385 -0.9723
  100MOL   H34944107   0.125   1.325   5.359 -0.2199 -0.1790  1.0339
  100MOL   H35044108   0.196   1.186   5.535 -1.0979  0.3205  0.2698
  100MOL   H35144109   0.207   1.094   5.383  1.3170  0.8674  1.2572
  100MOL   H35244110   0.160   1.099   5.737 -0.8640 -0.7536  1.6156
  100MOL   H35344111   0.260   0.954   5.770  0.4426 -0.6135  0.9232
  100MOL   C35444112   0.060   0.963   5.852  0.9274 -0.3594  0.6785
  100MOL   C35544113   0.074   1.070   5.971 -1.1257  0.7238 -0.6050
  100MOL   C35644114   7.767   1.197   5.945  0.1174  0.2664  0.1342
  100MOL   C35744115   7.768   1.278   6.076  0.0738 -0.1757  0.5204
  100MOL   C35844116   0.140   1.317   6.118 -0.6736  0.3320 -0.1772
  100MOL   C35944117   0.230   1.197   6.133  0.4694 -0.2103 -0.5003
  100MOL   C36044118   0.218   1.102   6.012  1.0271  0.1076 -0.3335
  100MOL   C36144119   0.053   0.812   5.902  0.0057 -0.9265 -0.8929
  100MOL   H36244120   7.740   1.002   5.810 -0.1495  1.7273  4.6903
  100MOL   H36344121   0.024   1.024   6.057 -0.3098  0.2804 -0.3680
  100MOL   H36444122   7.663   1.163   5.936  1.1767 -3.2315  0.3562
  100MOL   H36544123   0.041   1.256   5.866 -0.5377  1.6046  0.7319
  100MOL   H36644124   7.714   1.368   6.047 -1.7257 -1.4958 -0.2787
  100MOL   H36744125   7.720   1.236   6.164  0.0116 -2.6820 -0.6640
  100MOL   H36844126   0.170   1.386   6.039 -1.5217  0.5244 -0.3339
  100MOL   H36944127   0.140   1.372   6.212 -1.1513 -0.5496  0.3469
  100MOL   H37044128   0.332   1.235   6.138  0.2942  0.1380  0.5445
  100MOL   H37144129   0.211   1.136   6.222 -1.0593 -0.1393 -0.7621
  100MOL   H37244130   0.264   1.006   6.040 -2.0670 -1.7575 -1.3956
  100MOL   H37344131   0.273   1.150   5.931  1.9794  1.6283  1.1747
  100MOL   H37444132   0.141   0.795   5.964 -1.3777  0.0104  1.4064
  100MOL   H37544133   0.078   0.738   5.826  0.7802  0.1827 -1.7468
  100MOL   C37644134   7.687   0.781   5.970  0.9876 -0.1311 -0.1751
  100MOL   C37744135   7.579   0.713   5.877 -0.0110  0.1715 -0.2507
  100MOL   C37844136   7.622   0.582   5.815  0.4711  0.0111  0.1161
  100MOL   C37944137   7.507   0.529   5.740  0.2164  0.3030 -0.2174
  100MOL   C38044138   7.450   0.620   5.625  0.0409  0.4567  0.1425
  100MOL   C38144139   7.402   0.752   5.692  0.4148  0.7330  0.1437
  100MOL   C38244140   7.513   0.813   5.777  0.0714  0.1545  0.2167
  100MOL   C38344141   7.712   0.705   6.101  0.0749  0.3250 -0.0149
  100MOL   H38444142   7.645   0.878   5.998 -0.8693 -1.1571  0.6646
  100MOL   H38544143   7.493   0.689   5.939 -0.0885 -0.8380 -0.7451
  100MOL   H38644144   7.712   0.594   5.754  1.3523 -1.4065  1.0966
  100MOL   H38744145   7.651   0.524   5.903 -1.0252 -1.3169 -0.2617
  100MOL   H38844146   7.429   0.510   5.814 -0.4494  2.2458 -0.3786
  100MOL   H38944147   7.523   0.430   5.698 -0.1001  0.3019 -0.3394
  100MOL   H39044148   7.524   0.629   5.546 -0.3618 -0.9844 -0.4045
  100MOL   H39144149   7.364   0.560   5.593  0.6716 -0.9565  1.0724
  100MOL   H39244150   7.368   0.816   5.610  1.4224 -1.5869 -2.1290
  100MOL   H39344151   7.320   0.727   5.760  0.5090 -0.5352 -0.1981
  100MOL   H39444152   7.595   0.837   5.710  0.3070  1.5094  0.9761
  100MOL   H39544153   7.482   0.892   5.845 -0.7737  0.2642 -0.2913
  100MOL   H39644154   0.027   0.751   6.149 -1.1434  1.2373  1.3894
  100MOL   H39744155   7.744   0.604   6.076 -1.2814 -0.3248  0.7643
  100MOL   C39844156   7.588   0.706   6.193  0.2190  0.3550 -0.6561
  100MOL   C39944157   7.596   0.596   6.303 -0.2349 -0.3794 -0.4141
  100MOL   C40044158   7.717   0.609   6.412 -0.0693  0.0154 -0.2725
  100MOL   C40144159   7.723   0.482   6.497 -0.0337  0.3006 -0.6266
  100MOL   C40244160   7.595   0.449   6.572 -0.2318  0.6791 -0.3910
  100MOL   C40344161   7.469   0.452   6.486 -0.2153 -1.3546  0.0202
  100MOL   C40444162   7.465   0.576   6.393 -0.0096 -0.4396  0.8146
  100MOL   C40544163   7.571   0.854   6.243 -0.3489  0.3178 -0.2828
  100MOL   H40644164   7.502   0.671   6.136  0.6451 -0.0714 -1.0376
  100MOL   H40744165   7.600   0.496   6.260  0.5567 -0.2494 -0.6415
  100MOL   H40844166   7.689   0.692   6.477  0.4241  1.2582 -1.6439
  100MOL   H40944167   0.041   0.629   6.365 -0.6029 -0.4050 -1.5633
  100MOL   H41044168   0.026   0.481   6.575  0.2481 -0.8298 -0.9048
  100MOL   H41144169   7.747   0.396   6.434 -0.6375 -1.0277  0.9140
  100MOL   H41244170   7.592   0.526   6.649 -0.6124 -0.7101  1.0220
  100MOL   H41344171   7.607   0.354   6.624 -0.5376  2.2446  2.6464
  100MOL   H41444172   7.475   0.367   6.418  0.5904  1.0021 -2.9651
  100MOL   H41544173   7.382   0.444   6.551 -1.6524 -0.3139 -1.7274
  100MOL   H41644174   7.375   0.562   6.333  0.9177 -1.2201 -0.4047
  100MOL   H41744175   7.453   0.659   6.463 -0.1067  0.3567 -0.1425
  100MOL   H41844176   7.567   0.844   6.352 -0.0276  1.5445 -0.1446
  100MOL   H41944177   7.668   0.903   6.235 -1.4120  2.2647 -1.6752
  100MOL   C42044178   7.446   0.937   6.199  0.2945 -0.6527 -0.6720
  100MOL   C42144179   7.471   1.088   6.238 -0.1886  0.6288 -0.2991
  100MOL   C42244180   7.465   1.119   6.385  0.0908 -0.0546  0.2942
  100MOL   C42344181   7.500   1.263   6.419 -0.3838 -0.3011 -0.0686
  100MOL   C42444182   7.401   1.360   6.343  0.0679  0.3203 -0.6021
  100MOL   C42544183   7.398   1.331   6.192 -0.5068  0.2425  0.1665
  100MOL   C42644184   7.378   1.182   6.159  0.1543  0.1876  0.2660
  100MOL   C42744185   7.316   0.877   6.268  1.0914  0.3906  0.9162
  100MOL   H42844186   7.429   0.944   6.092 -0.1760  1.2026 -0.4797
  100MOL   H42944187   7.572   1.104   6.202 -0.6214 -1.2006 -2.4482
  100MOL   H43044188   7.365   1.103   6.426 -0.8492  1.3504 -1.4066
  100MOL   H43144189   7.521   1.050   6.450  0.2940 -2.2573 -2.1508
  100MOL   H43244190   7.489   1.270   6.527  0.6925 -2.6987  0.2321
  100MOL   H43344191   7.602   1.287   6.390  0.5273 -1.7613  1.8325
  100MOL   H43444192   7.439   1.460   6.364  0.3900  0.0631  0.0745
  100MOL   H43544193   7.303   1.350   6.389  0.8151 -0.6854  0.8205
  100MOL   H43644194   7.501   1.354   6.162 -0.8050 -0.2238 -1.2256
  100MOL   H43744195   7.325   1.388   6.135  0.2670  0.3360 -0.7438
  100MOL   H43844196   7.272   1.158   6.168 -0.0669  1.3786  1.0435
  100MOL   H43944197   7.392   1.186   6.051 -1.4123  2.9383  0.1316
  100MOL   H44044198   7.234   0.949   6.275 -1.1303 -1.9750  0.1903
  100MOL   H44144199   7.277   0.780   6.236  2.2248  0.1676  0.2082
  100MOL   H44244200   7.333   0.850   6.372  2.5440  0.6524  0.7578
  101MOL     C144201   4.259   2.028   6.354 -0.4822 -0.2795 -0.4247
  101MOL     C244202   4.132   1.950   6.301  0.6117  0.5828  0.6454
  101MOL     C344203   4.011   2.044   6.282  0.4009 -0.1632  0.3031
  101MOL     C444204   3.936   2.082   6.415 -0.4638 -0.3956  0.1918
  101MOL     C544205   3.914   1.958   6.510  0.2199  0.2357 -0.4136
  101MOL     C644206   4.034   1.866   6.525 -0.4487  0.2750  0.2896
  101MOL     C744207   4.101   1.826   6.391  0.1287  0.0123 -0.0603
  101MOL     C844208   4.341   2.111   6.259  0.0247 -0.2184  0.0813
  101MOL     H944209   4.234   2.091   6.439 -2.2816 -2.4963  0.7423
  101MOL    H1044210   4.138   1.912   6.199 -2.9536  1.8513 -0.1008
  101MOL    H1144211   4.034   2.131   6.221 -3.5730  1.8347  1.4554
  101MOL    H1244212   3.937   1.987   6.226  3.0759 -1.2423 -2.2696
  101MOL    H1344213   3.850   2.148   6.404 -0.3485 -0.5487 -1.9998
  101MOL    H1444214   4.001   2.155   6.462 -2.5529  1.0483  0.9125
  101MOL    H1544215   3.834   1.899   6.466 -1.2819  1.3050  0.8228
  101MOL    H1644216   3.880   1.989   6.609  1.6952  0.0662  0.1632
  101MOL    H1744217   4.104   1.922   6.587  0.4483 -0.3736 -0.1240
  101MOL    H1844218   4.000   1.782   6.584  0.5174  0.0168  0.4920
  101MOL    H1944219   4.032   1.771   6.328 -0.1970  0.7558 -0.3664
  101MOL    H2044220   4.170   1.744   6.406  2.9315  2.1786 -0.6661
  101MOL    H2144221   4.264   2.180   6.226 -0.1462 -0.4446  0.0024
  101MOL    H2244222   4.382   2.046   6.182 -0.0598 -0.8106  0.5332
  101MOL    H2344223   4.317   1.948   6.399 -1.5501 -0.1363  1.2349
  101MOL    C2444224   4.453   2.189   6.331  0.3200 -0.2006  0.0898
  101MOL    C2544225   4.562   2.093   6.379 -0.2421 -0.6111 -0.5143
  101MOL    C2644226   4.645   2.144   6.497 -0.0181 -0.3367 -0.0184
  101MOL    C2744227   4.743   2.047   6.549 -1.0456  0.1398 -0.4123
  101MOL    C2844228   4.837   1.993   6.442  0.7234  0.2542 -0.5210
  101MOL    C2944229   4.758   1.942   6.322 -0.0114 -0.3778 -0.0209
  101MOL    C3044230   4.655   2.046   6.267  0.8147 -0.3520 -1.0806
  101MOL    C3144231   4.500   2.310   6.240 -0.2471  0.7191  0.3524
  101MOL    H3244232   4.409   2.232   6.421 -2.0023 -0.3961 -0.9153
  101MOL    H3344233   4.521   1.998   6.414  0.8753 -1.8423 -2.4408
  101MOL    H3444234   4.578   2.161   6.581  1.9651 -1.5643  1.8265
  101MOL    H3544235   4.687   2.239   6.466  1.0039 -0.5506  0.6840
  101MOL    H3644236   4.798   2.102   6.626 -1.6998  0.9072 -0.4881
  101MOL    H3744237   4.695   1.962   6.598 -1.2202  0.2029 -0.4753
  101MOL    H3844238   4.889   1.901   6.470 -0.0450 -0.7341 -2.2350
  101MOL    H3944239   4.903   2.069   6.401  1.4059 -0.3912 -0.6361
  101MOL    H4044240   4.815   1.914   6.234 -0.5481 -2.4741  0.2725
  101MOL    H4144241   4.708   1.848   6.343 -0.1885 -0.4679 -0.8305
  101MOL    H4244242   4.712   2.130   6.228 -0.7661  1.1911 -0.1554
  101MOL    H4344243   4.603   2.001   6.182 -1.0433  1.6625 -1.0455
  101MOL    H4444244   4.530   2.272   6.143 -2.1664  0.5475 -0.1986
  101MOL    H4544245   4.594   2.346   6.283  0.9430 -1.3064 -0.4836
  101MOL    C4644246   4.396   2.422   6.209  0.1379  0.1798  0.2095
  101MOL    C4744247   4.450   2.533   6.115 -0.0435  0.2860 -0.2634
  101MOL    C4844248   4.480   2.488   5.972 -0.1235 -0.7003 -0.6692
  101MOL    C4944249   4.488   2.619   5.886 -0.3967 -0.4378 -0.2531
  101MOL    C5044250   4.602   2.707   5.935 -0.3759 -0.6534 -0.5253
  101MOL    C5144251   4.589   2.734   6.089 -0.2936  0.5232  0.1090
  101MOL    C5244252   4.582   2.596   6.155 -0.1904 -0.1891  0.5634
  101MOL    C5344253   4.344   2.488   6.338  0.5940  0.3712  0.3296
  101MOL    H5444254   4.312   2.384   6.150  0.7956  0.4039 -0.8794
  101MOL    H5544255   4.374   2.610   6.099  0.2644  0.9599  1.4311
  101MOL    H5644256   4.575   2.434   5.971 -0.2183 -0.8572 -1.1109
  101MOL    H5744257   4.411   2.419   5.923 -1.8868 -0.0719  0.8688
  101MOL    H5844258   4.392   2.672   5.892  0.5712  1.2527  0.8912
  101MOL    H5944259   4.502   2.582   5.785 -2.4045  0.7934 -1.0293
  101MOL    H6044260   4.701   2.666   5.916  0.7567  1.6578  0.1522
  101MOL    H6144261   4.583   2.801   5.883 -2.4672  0.1655  1.6097
  101MOL    H6244262   4.506   2.802   6.107 -0.3327 -0.0784  2.3387
  101MOL    H6344263   4.683   2.784   6.113 -0.6253 -0.0057  2.5838
  101MOL    H6444264   4.668   2.534   6.127 -0.1554 -0.0037  0.2481
  101MOL    H6544265   4.601   2.607   6.261  1.4615 -0.1032  0.2758
  101MOL    H6644266   4.417   2.504   6.418 -0.3080 -0.1234  1.2646
  101MOL    H6744267   4.290   2.408   6.388  1.6419  0.4943  1.7048
  101MOL    C6844268   4.245   2.609   6.323  0.2350 -0.0327  0.0590
  101MOL    C6944269   4.119   2.587   6.232 -0.7872  0.0165  0.9704
  101MOL    C7044270   4.031   2.472   6.287  0.3889 -0.5040 -0.1866
  101MOL    C7144271   3.933   2.412   6.187  0.1698  1.3650  0.0431
  101MOL    C7244272   3.850   2.536   6.131 -0.6868  0.2737  0.5898
  101MOL    C7344273   3.933   2.651   6.077 -0.2281  0.2067 -0.0607
  101MOL    C7444274   4.034   2.702   6.183  0.5308 -0.0419  0.0108
  101MOL    C7544275   4.210   2.662   6.463  0.4451 -0.1641 -0.1845
  101MOL    H7644276   4.298   2.690   6.273 -1.3223  1.1508  0.3171
  101MOL    H7744277   4.161   2.551   6.138  2.4663  0.9124  2.0027
  101MOL    H7844278   3.980   2.517   6.372 -1.0876  0.8906 -1.7652
  101MOL    H7944279   4.082   2.389   6.336 -0.1752 -1.0043 -0.4362
  101MOL    H8044280   3.981   2.358   6.106 -0.8328 -0.1679  0.4398
  101MOL    H8144281   3.862   2.343   6.233  0.6298  1.4510  0.9047
  101MOL    H8244282   3.778   2.567   6.206  0.2637  0.7207  1.3224
  101MOL    H8344283   3.776   2.495   6.062 -0.0549  3.3681 -2.1247
  101MOL    H8444284   3.868   2.732   6.043  1.0337  0.5327 -1.7559
  101MOL    H8544285   3.999   2.621   5.995  0.1255  1.1633 -0.1239
  101MOL    H8644286   3.976   2.740   6.267 -0.0285 -0.9144  0.0199
  101MOL    H8744287   4.100   2.778   6.140  0.6491  0.7320  1.5375
  101MOL    H8844288   4.105   2.689   6.462 -0.0143 -1.6940  2.4120
  101MOL    H8944289   4.213   2.587   6.541  3.4581 -0.2772 -0.3402
  101MOL    C9044290   4.298   2.775   6.518 -0.1509  0.1201  0.1653
  101MOL    C9144291   4.222   2.846   6.627  0.4253 -0.1655  0.2706
  101MOL    C9244292   4.081   2.893   6.590 -0.2499  0.1010  0.0548
  101MOL    C9344293   4.034   3.002   6.689 -0.1754 -0.2620  0.1651
  101MOL    C9444294   4.037   2.954   6.837 -0.4976 -0.5947 -0.4247
  101MOL    C9544295   4.173   2.901   6.871 -0.9444  0.3390  0.0350
  101MOL    C9644296   4.212   2.789   6.776 -0.3665 -0.1551  1.0084
  101MOL    C9744297   4.440   2.723   6.547  0.3646 -0.2299  0.1562
  101MOL    H9844298   4.312   2.845   6.436  0.9452 -0.4777 -0.1648
  101MOL    H9944299   4.276   2.941   6.629 -0.5769  0.4044  0.7918
  101MOL   H10044300   4.010   2.811   6.603  0.9111 -0.8126  0.7832
  101MOL   H10144301   4.084   2.924   6.486  0.1603 -1.1449 -0.3227
  101MOL   H10244302   3.930   3.023   6.664  0.3727  0.9444 -1.1671
  101MOL   H10344303   4.099   3.087   6.670 -1.2074  1.2625  3.1139
  101MOL   H10444304   3.960   2.878   6.852  0.6609 -2.1778 -2.1715
  101MOL   H10544305   3.994   3.029   6.904  2.7742 -0.2501  1.3554
  101MOL   H10644306   4.247   2.981   6.878 -0.4004 -0.2777  1.6867
  101MOL   H10744307   4.162   2.867   6.974  1.0526  0.0808  0.1907
  101MOL   H10844308   4.304   2.740   6.807  0.8997  0.7195 -1.1851
  101MOL   H10944309   4.132   2.715   6.781 -0.6108 -0.1126 -1.5263
  101MOL   H11044310   4.419   2.636   6.609  0.4750 -0.1127  0.3540
  101MOL   H11144311   4.479   2.697   6.448 -0.3988 -2.4108  0.3798
  101MOL   C11244312   4.538   2.824   6.622 -0.2719  0.7596  0.0028
  101MOL   C11344313   4.574   2.938   6.523  0.9425 -0.2804  0.3635
  101MOL   C11444314   4.681   2.906   6.414  0.6396  0.2538 -0.0431
  101MOL   C11544315   4.701   3.025   6.317  1.0749  0.0581 -0.1098
  101MOL   C11644316   4.734   3.159   6.390 -0.0667  0.2886  0.4029
  101MOL   C11744317   4.636   3.191   6.502 -0.1028  0.0128 -0.7597
  101MOL   C11844318   4.612   3.071   6.595  0.0896  0.5516 -0.4911
  101MOL   C11944319   4.655   2.755   6.691 -0.4180 -0.4881  0.3570
  101MOL   H12044320   4.479   2.872   6.701 -2.8268  1.9269 -2.5437
  101MOL   H12144321   4.480   2.956   6.472 -0.6929 -1.6268  2.7965
  101MOL   H12244322   4.649   2.819   6.357  1.4251 -0.6922  0.9354
  101MOL   H12344323   4.773   2.872   6.461 -0.9607 -1.6976  1.8014
  101MOL   H12444324   4.788   3.005   6.254  0.3817 -0.0331 -1.0480
  101MOL   H12544325   4.622   3.032   6.242  1.1761 -0.6549 -0.2887
  101MOL   H12644326   4.831   3.154   6.440  0.8633 -1.8340 -1.5576
  101MOL   H12744327   4.734   3.239   6.316 -1.3409 -0.5069 -0.4727
  101MOL   H12844328   4.665   3.270   6.570 -0.0488  1.5095 -2.4848
  101MOL   H12944329   4.534   3.206   6.468 -1.0173 -0.4763  1.6804
  101MOL   H13044330   4.529   3.104   6.658  0.9963  0.9849  0.4947
  101MOL   H13144331   4.701   3.075   6.657 -0.0466 -1.2903 -0.1344
  101MOL   H13244332   4.740   2.823   6.701 -0.8447  0.1211 -0.1735
  101MOL   H13344333   4.691   2.674   6.627 -1.0673  0.2403 -0.9424
  101MOL   C13444334   4.620   2.696   6.834  0.1403 -0.6582  0.3958
  101MOL   C13544335   4.562   2.800   6.938  0.9734 -0.1277  0.0425
  101MOL   C13644336   4.661   2.919   6.984  0.8121 -0.3176 -0.8162
  101MOL   C13744337   4.582   3.010   7.077 -0.3470 -0.5575 -0.9316
  101MOL   C13844338   4.526   2.944   7.209 -0.5886 -0.1632 -0.3475
  101MOL   C13944339   4.446   2.817   7.168  0.3489 -0.3878  0.3343
  101MOL   C14044340   4.513   2.725   7.067  0.2346  0.3043  0.4997
  101MOL   C14144341   4.714   2.583   6.878 -0.4220 -0.7825  0.1665
  101MOL   H14244342   4.527   2.643   6.814 -0.4643  0.2640  0.7287
  101MOL   H14344343   4.481   2.860   6.896  3.5573  2.0441 -2.0314
  101MOL   H14444344   4.750   2.886   7.037  1.7374  0.7597 -1.6969
  101MOL   H14544345   4.698   2.978   6.901 -2.5476  3.6171  0.3312
  101MOL   H14644346   4.499   3.047   7.017  0.4481  0.4170 -1.4428
  101MOL   H14744347   4.644   3.095   7.106  0.7674 -2.0495  1.1693
  101MOL   H14844348   4.610   2.915   7.272  0.7346 -0.7074 -2.2935
  101MOL   H14944349   4.457   3.014   7.255  0.2906  0.4429  0.0520
  101MOL   H15044350   4.352   2.843   7.118  1.4845 -1.7085 -2.6556
  101MOL   H15144351   4.406   2.769   7.257 -1.6357  3.7523  1.8083
  101MOL   H15244352   4.608   2.700   7.115 -0.8442 -0.6778  2.1664
  101MOL   H15344353   4.454   2.636   7.047 -1.6033  1.2154  1.7613
  101MOL   H15444354   4.746   2.516   6.799 -1.9152 -1.9929  0.5443
  101MOL   H15544355   4.655   2.527   6.951  0.7907 -0.2997  1.5317
  101MOL   C15644356   4.843   2.612   6.956 -0.2863 -0.2009  0.0243
  101MOL   C15744357   4.934   2.719   6.889  0.3004 -0.0392 -0.2952
  101MOL   C15844358   5.047   2.778   6.977 -0.4474 -0.4838  0.0090
  101MOL   C15944359   5.114   2.893   6.913 -0.2233 -0.8124  0.8709
  101MOL   C16044360   5.170   2.868   6.774 -0.0085  0.7059  0.2131
  101MOL   C16144361   5.058   2.798   6.690 -0.3970 -1.0845 -0.0618
  101MOL   C16244362   4.995   2.673   6.760 -0.2133 -0.9304  0.0060
  101MOL   C16344363   4.917   2.482   6.990  0.1361 -0.1819  0.2720
  101MOL   H16444364   4.822   2.654   7.054  1.4520 -1.7371  1.0946
  101MOL   H16544365   4.869   2.801   6.860  1.9911  0.2164 -3.5783
  101MOL   H16644366   5.008   2.813   7.073  2.6634 -0.2606  1.2296
  101MOL   H16744367   5.120   2.701   7.001  0.7013  1.0306  1.4663
  101MOL   H16844368   5.036   2.969   6.906  2.1351  1.7784  1.6861
  101MOL   H16944369   5.188   2.944   6.975 -2.6452  0.0104  3.1360
  101MOL   H17044370   5.270   2.825   6.782 -0.3339  0.1576  1.4687
  101MOL   H17144371   5.188   2.964   6.726  0.2917  1.1121  1.1382
  101MOL   H17244372   5.102   2.756   6.599 -0.6655 -2.1830  0.3130
  101MOL   H17344373   4.979   2.868   6.664  0.0805 -0.2952  0.5843
  101MOL   H17444374   4.922   2.619   6.700  0.6814 -0.8231 -1.2234
  101MOL   H17544375   5.075   2.601   6.778 -1.6607 -2.3096  0.9885
  101MOL   H17644376   5.011   2.511   7.039  1.0084 -0.6803 -1.0967
  101MOL   H17744377   4.945   2.422   6.904  2.4877  1.5978 -0.2552
  101MOL   C17844378   4.841   2.378   7.079 -0.5410 -0.3335  0.0715
  101MOL   C17944379   4.892   2.235   7.066  0.0751  0.1964 -0.5031
  101MOL   C18044380   5.042   2.214   7.081 -0.1076  0.4614  0.4595
  101MOL   C18144381   5.078   2.066   7.084 -0.0555 -0.3315 -0.1770
  101MOL   C18244382   5.013   2.000   6.962 -0.6252  0.3138  0.3654
  101MOL   C18344383   4.858   2.016   6.949 -0.0129 -0.0215  0.2839
  101MOL   C18444384   4.837   2.165   6.944  0.0810 -0.4111  0.0155
  101MOL   C18544385   4.843   2.441   7.224  0.0692  0.8037  0.8129
  101MOL   H18644386   4.739   2.371   7.042 -0.8978  0.5308  0.8809
  101MOL   H18744387   4.842   2.201   7.156  0.8621  0.7939  0.1693
  101MOL   H18844388   5.105   2.270   7.012  3.0416 -2.3283  0.9204
  101MOL   H18944389   5.084   2.253   7.174  0.5209  2.7677 -0.7511
  101MOL   H19044390   5.032   2.030   7.177 -0.0074 -1.4417 -0.5870
  101MOL   H19144391   5.184   2.042   7.084 -0.2364 -1.1486  0.8133
  101MOL   H19244392   5.056   2.031   6.866 -1.1936  2.6461  0.8149
  101MOL   H19344393   5.030   1.895   6.982  0.5407  0.3729 -0.3016
  101MOL   H19444394   4.802   1.974   7.033 -1.3696 -2.6497 -1.8497
  101MOL   H19544395   4.823   1.972   6.855  0.5014  1.4920 -0.6183
  101MOL   H19644396   4.877   2.207   6.852  0.3000 -0.6764 -0.0108
  101MOL   H19744397   4.729   2.184   6.936  0.0463  1.4283  3.6290
  101MOL   H19844398   4.943   2.431   7.267 -0.4373 -0.8791  1.6471
  101MOL   H19944399   4.831   2.549   7.230  0.7579  0.8471  1.5532
  101MOL   C20044400   4.738   2.389   7.326 -0.0012 -0.8649 -0.0862
  101MOL   C20144401   4.771   2.427   7.474  0.2398 -0.8473  0.2965
  101MOL   C20244402   4.779   2.579   7.497 -0.2714 -0.3651  0.1259
  101MOL   C20344403   4.843   2.617   7.636 -0.7985  0.1564 -0.1990
  101MOL   C20444404   4.775   2.551   7.750 -0.1786  0.3446 -0.5915
  101MOL   C20544405   4.770   2.394   7.716  0.3569 -0.1525  0.4575
  101MOL   C20644406   4.693   2.363   7.585  0.4809 -1.1550 -0.3070
  101MOL   C20744407   4.594   2.421   7.281  0.1867 -0.9613  0.3237
  101MOL   H20844408   4.759   2.282   7.317  2.3789 -0.5397  1.1330
  101MOL   H20944409   4.870   2.382   7.479 -0.0794 -1.7233 -1.1126
  101MOL   H21044410   4.679   2.621   7.497 -0.0397  0.2107 -0.8032
  101MOL   H21144411   4.830   2.631   7.416 -0.9679 -0.7458 -0.5652
  101MOL   H21244412   4.949   2.592   7.643 -0.6187  0.9305 -0.0549
  101MOL   H21344413   4.841   2.725   7.652  1.2066  0.2133 -0.2057
  101MOL   H21444414   4.834   2.569   0.069 -2.1460  0.2412  0.7291
  101MOL   H21544415   4.671   2.583   7.760 -1.2771 -2.7445 -1.8295
  101MOL   H21644416   4.869   2.349   7.713 -0.8474 -2.9111  1.0533
  101MOL   H21744417   4.725   2.361   0.037  2.3288 -0.3985  1.3546
  101MOL   H21844418   4.688   2.256   7.568  0.7352 -1.2101 -0.0364
  101MOL   H21944419   4.594   2.409   7.589 -0.0102 -2.1039 -1.3038
  101MOL   H22044420   4.550   2.502   7.340  0.7825 -0.4858  0.1233
  101MOL   H22144421   4.589   2.448   7.176 -4.7733 -0.4032  0.6063
  101MOL   C22244422   4.491   2.305   7.300  0.6665 -0.1365 -0.2574
  101MOL   C22344423   4.341   2.344   7.335  0.9351  0.2629  0.6814
  101MOL   C22444424   4.296   2.468   7.251 -0.4272 -0.2490 -0.2694
  101MOL   C22544425   4.146   2.498   7.274 -0.7798  0.5528  0.6988
  101MOL   C22644426   4.118   2.524   7.424  0.2064 -0.3539 -0.6173
  101MOL   C22744427   4.174   2.405   7.513  0.2150 -0.0076  0.8510
  101MOL   C22844428   4.316   2.369   7.481  0.2213  0.2651  0.0999
  101MOL   C22944429   4.489   2.224   7.163 -0.0979 -1.0462  0.6845
  101MOL   H23044430   4.530   2.237   7.376 -0.9362  0.6319  1.2966
  101MOL   H23144431   4.291   2.251   7.310  1.7354  0.6986 -2.8008
  101MOL   H23244432   4.353   2.560   7.261 -1.4503  0.2985  0.7588
  101MOL   H23344433   4.303   2.443   7.145 -4.1766  2.1518 -1.1776
  101MOL   H23444434   4.086   2.413   7.240  2.6856 -1.6821 -0.1367
  101MOL   H23544435   4.122   2.591   7.223 -2.8898  0.1270  0.8506
  101MOL   H23644436   4.160   2.623   7.439 -2.0143  0.5074  0.0561
  101MOL   H23744437   4.010   2.526   7.440 -0.1146 -1.4759 -2.4025
  101MOL   H23844438   4.106   2.320   7.510 -0.0116  0.2167 -0.6006
  101MOL   H23944439   4.167   2.432   7.619 -0.5463 -1.3545  1.1501
  101MOL   H24044440   4.375   2.449   7.527  0.1198 -0.4880  1.5926
  101MOL   H24144441   4.335   2.280   7.541  1.4697  1.0759  0.9429
  101MOL   H24244442   4.591   2.214   7.125 -0.2331  0.0628 -0.0045
  101MOL   H24344443   4.449   2.292   7.088  2.0525 -1.3303 -0.7674
  101MOL   C24444444   4.427   2.085   7.158 -0.1448  0.2464 -0.8612
  101MOL   C24544445   4.464   1.995   7.279 -0.3159 -0.0652 -0.1381
  101MOL   C24644446   4.612   1.947   7.281  0.2189 -0.2863 -0.3078
  101MOL   C24744447   4.641   1.892   7.412 -0.6944 -0.1532 -0.1415
  101MOL   C24844448   4.550   1.774   7.458 -0.0137 -0.4358  0.6336
  101MOL   C24944449   4.403   1.797   7.425  0.8032 -0.1280 -0.4679
  101MOL   C25044450   4.374   1.871   7.290 -0.4786 -0.0958 -0.0830
  101MOL   C25144451   4.447   2.020   7.025 -0.4868  0.5000  1.0586
  101MOL   H25244452   4.318   2.093   7.166 -0.1226  0.2129 -0.4824
  101MOL   H25344453   4.443   2.054   7.369  0.3800 -1.1831  0.7830
  101MOL   H25444454   4.675   2.036   7.272 -1.8207  0.9206 -3.3104
  101MOL   H25544455   4.639   1.877   7.202  2.3366  3.0090 -2.6067
  101MOL   H25644456   4.744   1.858   7.418 -0.7422  0.0543  2.1077
  101MOL   H25744457   4.634   1.969   7.489 -1.0736 -0.6725  0.3365
  101MOL   H25844458   4.576   1.683   7.402  1.8680  0.7052 -0.4026
  101MOL   H25944459   4.574   1.746   7.560  1.4934 -1.4350  0.0264
  101MOL   H26044460   4.351   1.857   7.499 -0.5087 -3.7383  1.6279
  101MOL   H26144461   4.336   1.712   7.425 -1.9187  1.8884 -3.1381
  101MOL   H26244462   4.405   1.801   7.212  1.8966  1.3695 -0.4965
  101MOL   H26344463   4.271   1.887   7.259 -0.5723 -0.0774  0.2400
  101MOL   H26444464   4.491   1.922   7.040 -2.0296 -0.4773 -0.6051
  101MOL   H26544465   4.530   2.073   6.978 -0.3048  0.8868  1.8162
  101MOL   C26644466   4.323   2.005   6.935  0.3365  0.5390  0.9121
  101MOL   C26744467   4.270   2.144   6.888 -0.0191  0.4370  0.0308
  101MOL   C26844468   4.131   2.146   6.821  0.0753  0.3680  0.2903
  101MOL   C26944469   4.073   2.292   6.816  0.0439  0.6954  0.6107
  101MOL   C27044470   4.176   2.385   6.747  0.0569 -0.2704 -0.1251
  101MOL   C27144471   4.323   2.375   6.798  0.3552 -0.3434 -0.8179
  101MOL   C27244472   4.364   2.224   6.792 -0.4759 -0.0989 -0.2798
  101MOL   C27344473   4.333   1.913   6.816 -0.2620  0.3117  0.0168
  101MOL   H27444474   4.247   1.956   6.995  0.8257 -1.7658 -0.2682
  101MOL   H27544475   4.267   2.205   6.978  1.3534 -0.7505  0.9000
  101MOL   H27644476   4.139   2.105   6.720 -2.9819  0.3289  0.0121
  101MOL   H27744477   4.054   2.079   6.859  0.2698 -0.4546 -0.7082
  101MOL   H27844478   4.045   2.320   6.918  2.4272  0.5941  1.3363
  101MOL   H27944479   3.980   2.296   6.761  0.3959 -0.9361 -0.1215
  101MOL   H28044480   4.169   2.360   6.641  1.5831  3.5468 -1.1960
  101MOL   H28144481   4.146   2.489   6.752  0.0935 -0.2412 -0.5197
  101MOL   H28244482   4.326   2.396   6.905  0.2170 -0.7979 -0.7224
  101MOL   H28344483   4.387   2.442   6.741  1.6544 -1.2789 -0.4846
  101MOL   H28444484   4.466   2.227   6.830 -0.6934  1.8909  0.1778
  101MOL   H28544485   4.370   2.185   6.691 -1.8179 -0.3246 -0.2886
  101MOL   H28644486   4.416   1.934   6.748  1.8986 -2.3141  1.6862
  101MOL   H28744487   4.247   1.920   6.750 -0.6009 -0.1785  0.4031
  101MOL   C28844488   4.341   1.765   6.871  0.7714  0.1644 -0.2776
  101MOL   C28944489   4.427   1.676   6.780 -0.0572  0.3280  0.0725
  101MOL   C29044490   4.390   1.682   6.630  1.1390  0.3364  0.3310
  101MOL   C29144491   4.493   1.605   6.536 -0.2568 -0.3552 -0.0365
  101MOL   C29244492   4.640   1.643   6.575 -0.3512  0.7915  0.6619
  101MOL   C29344493   4.671   1.624   6.729 -0.1249 -0.2644  0.5177
  101MOL   C29444494   4.575   1.709   6.806  1.0268  0.2472  0.6742
  101MOL   C29544495   4.202   1.700   6.898  0.1500  0.2512 -0.5521
  101MOL   H29644496   4.382   1.760   6.972 -0.6130  0.3344  0.3117
  101MOL   H29744497   4.417   1.573   6.813  0.2742  0.0786 -0.5868
  101MOL   H29844498   4.289   1.642   6.623  0.3865  1.6784  2.7988
  101MOL   H29944499   4.388   1.782   6.587  0.1407 -0.2771 -1.0922
  101MOL   H30044500   4.485   1.497   6.550  1.0721 -0.4379  0.1508
  101MOL   H30144501   4.466   1.631   6.433 -0.3714 -0.3789 -0.0125
  101MOL   H30244502   4.649   1.746   6.541 -0.1847 -0.0102 -1.8643
  101MOL   H30344503   4.703   1.580   6.513 -0.0498  0.3153  1.4488
  101MOL   H30444504   4.777   1.637   6.751  0.0507 -2.8533  1.4375
  101MOL   H30544505   4.645   1.520   6.749 -1.3445 -0.4562 -1.7707
  101MOL   H30644506   4.594   1.813   6.781 -1.8891  0.7950  0.5253
  101MOL   H30744507   4.590   1.697   6.914 -2.3835 -2.3539  0.9670
  101MOL   H30844508   4.168   1.760   6.983 -1.1980  0.5663 -1.3098
  101MOL   H30944509   4.144   1.718   6.808  1.1066 -0.7997 -1.3944
  101MOL   C31044510   4.186   1.548   6.923  0.4027 -0.1027 -0.0136
  101MOL   C31144511   4.272   1.495   7.041 -0.4894  0.1807 -0.1302
  101MOL   C31244512   4.231   1.524   7.184 -0.8307  0.1916  0.5323
  101MOL   C31344513   4.342   1.487   7.286 -0.7111 -0.4377  0.0624
  101MOL   C31444514   4.364   1.332   7.276 -0.2268  0.0966  0.0468
  101MOL   C31544515   4.406   1.292   7.132 -0.0138 -0.0376 -0.0960
  101MOL   C31644516   4.301   1.343   7.028  0.0989  0.0217  0.1747
  101MOL   C31744517   4.035   1.510   6.942 -0.0510  0.0428  0.2885
  101MOL   H31844518   4.216   1.502   6.829 -3.4408 -1.2891 -0.7274
  101MOL   H31944519   4.372   1.535   7.022 -0.4555  1.2702  2.2129
  101MOL   H32044520   4.204   1.629   7.177  0.5801  0.4073 -1.9213
  101MOL   H32144521   4.135   1.477   7.210 -1.5905  0.4985 -1.6272
  101MOL   H32244522   4.323   1.516   7.389 -0.8282  1.4846 -0.4731
  101MOL   H32344523   4.438   1.530   7.257  0.0278 -2.3847 -0.4360
  101MOL   H32444524   4.444   1.314   7.348 -1.4843  1.7472  1.9516
  101MOL   H32544525   4.279   1.271   7.308  0.2550 -1.1132 -0.9773
  101MOL   H32644526   4.509   1.318   7.108 -0.1896  0.5431 -0.2253
  101MOL   H32744527   4.416   1.184   7.128  1.7501  0.1860 -3.1921
  101MOL   H32844528   4.219   1.270   7.032 -0.8167  1.0718  1.0794
  101MOL   H32944529   4.348   1.327   6.931 -1.6562  1.0090 -0.8691
  101MOL   H33044530   3.988   1.571   7.019 -1.2295 -1.0962  0.4843
  101MOL   H33144531   4.037   1.412   6.989 -0.9102  0.2501  0.7752
  101MOL   C33244532   3.944   1.507   6.815 -0.2298  0.0660 -0.2179
  101MOL   C33344533   3.823   1.601   6.830 -0.3812  0.6163 -0.6728
  101MOL   C33444534   3.851   1.754   6.853 -0.4112 -0.1143 -0.2465
  101MOL   C33544535   3.719   1.841   6.861 -0.0285 -0.2346 -0.0865
  101MOL   C33644536   3.615   1.780   6.960 -0.1326  0.5005 -0.4400
  101MOL   C33744537   3.582   1.638   6.926  0.9437  0.0061  0.2522
  101MOL   C33844538   3.710   1.542   6.918 -0.3761 -0.3293 -0.6717
  101MOL   C33944539   3.901   1.368   6.761 -0.4899 -0.2369 -0.2702
  101MOL   H34044540   3.992   1.559   6.732 -2.1030  3.6975  0.8859
  101MOL   H34144541   3.777   1.598   6.731  1.4844  1.4877 -1.5753
  101MOL   H34244542   3.907   1.757   6.947  0.1080 -1.2190 -0.5112
  101MOL   H34344543   3.912   1.786   6.768  0.0021 -1.3069 -0.4011
  101MOL   H34444544   3.748   1.941   6.893  0.2533 -0.1546 -0.5733
  101MOL   H34544545   3.665   1.837   6.766  1.6310 -1.4892 -1.0074
  101MOL   H34644546   3.661   1.794   7.058 -1.1730  0.5087  0.0469
  101MOL   H34744547   3.518   1.829   6.965 -2.1462 -3.3250 -0.3270
  101MOL   H34844548   3.531   1.621   6.831  1.0265  0.4140  0.1371
  101MOL   H34944549   3.506   1.602   6.996  2.3609 -2.8010  0.4155
  101MOL   H35044550   3.679   1.441   6.891 -1.5237  0.1800 -1.3337
  101MOL   H35144551   3.755   1.537   7.017  0.3840 -0.6473 -1.0319
  101MOL   H35244552   3.827   1.384   6.682 -0.0852  1.1164 -0.3690
  101MOL   H35344553   3.849   1.304   6.833 -0.2476  0.3776  0.4480
  101MOL   C35444554   4.006   1.282   6.683 -0.3867 -0.1286  0.4681
  101MOL   C35544555   4.055   1.347   6.552 -0.1236  0.8103 -0.2101
  101MOL   C35644556   3.959   1.365   6.437 -0.4350  0.6050  0.3027
  101MOL   C35744557   4.035   1.442   6.323  0.0497 -0.1976 -0.0723
  101MOL   C35844558   4.147   1.356   6.265  0.2604  0.0184  0.1495
  101MOL   C35944559   4.251   1.339   6.372 -0.1472  0.3110 -0.3092
  101MOL   C36044560   4.182   1.276   6.497 -0.0662 -0.2202 -0.4823
  101MOL   C36144561   3.956   1.133   6.661  0.0368  0.0676 -0.1895
  101MOL   H36244562   4.092   1.267   6.748 -0.0722 -1.2854 -0.2029
  101MOL   H36344563   4.100   1.443   6.578  1.4318  0.2726 -0.8395
  101MOL   H36444564   3.877   1.427   6.474 -0.9428  0.2629 -0.2365
  101MOL   H36544565   3.915   1.274   6.395  2.8068 -2.0175  2.3063
  101MOL   H36644566   3.959   1.464   6.248  0.3920 -0.2425 -0.4333
  101MOL   H36744567   4.070   1.540   6.356  0.5661 -0.6752  0.8001
  101MOL   H36844568   4.099   1.261   6.245 -2.2937  1.5084 -1.1188
  101MOL   H36944569   4.189   1.398   6.174 -1.3229 -0.9881 -1.0666
  101MOL   H37044570   4.321   1.264   6.334 -0.9675 -0.0126 -1.2035
  101MOL   H37144571   4.307   1.432   6.381 -2.4372  1.7854 -1.0279
  101MOL   H37244572   4.260   1.273   6.573 -1.1254  1.9039  0.7165
  101MOL   H37344573   4.160   1.170   6.481 -0.0602 -0.3029  0.0368
  101MOL   H37444574   4.039   1.069   6.630 -1.0072 -0.9082 -1.0110
  101MOL   H37544575   3.889   1.133   6.575 -0.4001 -1.1156  0.1366
  101MOL   C37644576   3.876   1.048   6.772 -0.0614 -0.1750 -0.2090
  101MOL   C37744577   3.841   0.906   6.728 -0.2674 -0.4485 -0.2098
  101MOL   C37844578   3.957   0.802   6.752  0.3657 -0.6805  0.4218
  101MOL   C37944579   3.886   0.664   6.738 -0.2783 -0.2580  0.0295
  101MOL   C38044580   3.826   0.643   6.604 -0.3579  0.2974  0.5470
  101MOL   C38144581   3.725   0.752   6.569  0.5507  0.3674 -0.2262
  101MOL   C38244582   3.785   0.894   6.586  0.2297  0.3642 -0.2626
  101MOL   C38344583   3.933   1.058   6.911 -0.2230  0.7801 -0.0997
  101MOL   H38444584   3.786   1.110   6.768  1.0462  1.7469  3.1073
  101MOL   H38544585   3.767   0.879   6.804  0.8419  0.1147  1.1052
  101MOL   H38644586   4.036   0.829   6.683 -3.6749  1.8824 -3.4253
  101MOL   H38744587   4.009   0.812   6.848  3.4790 -0.8451 -1.1975
  101MOL   H38844588   3.814   0.645   6.817  0.4696  2.4879  1.4295
  101MOL   H38944589   3.969   0.594   6.745 -1.2684 -1.6442 -1.8694
  101MOL   H39044590   3.900   0.647   6.524 -1.4293 -0.2297 -0.4945
  101MOL   H39144591   3.786   0.541   6.597 -0.1755  0.3427 -1.5606
  101MOL   H39244592   3.683   0.745   6.468 -0.4705  1.6255  0.1026
  101MOL   H39344593   3.636   0.739   6.630  1.2679  2.9573  1.4545
  101MOL   H39444594   3.862   0.906   6.509  0.2811 -0.2388 -0.3089
  101MOL   H39544595   3.702   0.963   6.572 -1.4601 -1.2422  1.4566
  101MOL   H39644596   3.964   1.159   6.939 -0.6656  0.7464  0.5237
  101MOL   H39744597   4.035   1.020   6.909 -0.1977  0.7639  1.0063
  101MOL   C39844598   3.852   0.996   7.022 -0.0407  0.1637 -0.5129
  101MOL   C39944599   3.927   0.987   7.163  0.1487  0.0169 -0.2080
  101MOL   C40044600   4.045   0.883   7.172  0.0484 -0.0488 -0.3958
  101MOL   C40144601   4.122   0.885   7.309 -0.3553 -0.2224 -0.5581
  101MOL   C40244602   4.165   1.022   7.353  0.4735 -0.2893 -0.1824
  101MOL   C40344603   4.033   1.102   7.362 -0.3659 -0.2506  0.4534
  101MOL   C40444604   3.962   1.122   7.231  0.0622 -0.4821 -0.2290
  101MOL   C40544605   3.709   1.061   7.028 -0.1692  0.2151  0.1438
  101MOL   H40644606   3.842   0.892   6.990 -0.3743  0.3164 -0.8996
  101MOL   H40744607   3.852   0.934   7.221  0.4783 -0.6207 -0.3590
  101MOL   H40844608   4.118   0.885   7.091  1.1382 -0.9382  0.5473
  101MOL   H40944609   3.999   0.785   7.180 -0.8586  0.5250  1.8581
  101MOL   H41044610   4.214   0.829   7.294  0.9801  1.9383 -0.7217
  101MOL   H41144611   4.058   0.836   7.382 -0.0890 -0.1359 -0.2671
  101MOL   H41244612   4.235   1.071   7.286 -1.3583  2.1824 -0.3639
  101MOL   H41344613   4.205   1.020   7.454  0.9742 -0.3124 -0.3817
  101MOL   H41444614   3.969   1.045   7.430 -1.5133 -0.3508 -0.6989
  101MOL   H41544615   4.041   1.198   7.413  1.0738  0.3821 -0.9344
  101MOL   H41644616   3.862   1.165   7.241 -0.1110 -0.6074 -1.3282
  101MOL   H41744617   4.012   1.192   7.163  0.2072  0.2356  0.6133
  101MOL   H41844618   3.713   1.160   7.072 -0.4308 -1.1789  3.4261
  101MOL   H41944619   3.667   1.079   6.929 -1.6799 -2.5679  0.2263
  101MOL   C42044620   3.604   0.992   7.114 -0.6949  0.0679 -0.1866
  101MOL   C42144621   3.572   0.848   7.071  0.2381  0.0331  0.0299
  101MOL   C42244622   3.495   0.836   6.931  0.2759 -0.2402 -0.3041
  101MOL   C42344623   3.495   0.693   6.885 -0.4095 -0.0328 -0.3637
  101MOL   C42444624   3.409   0.622   6.985 -0.4891  0.1292 -0.3824
  101MOL   C42544625   3.473   0.618   7.122  0.8696  0.2572  0.1737
  101MOL   C42644626   3.500   0.761   7.179  0.0344  0.5239  0.5597
  101MOL   C42744627   3.476   1.076   7.121 -0.5073 -0.1205  0.8419
  101MOL   H42844628   3.648   0.982   7.213  0.8007  0.5291 -0.7872
  101MOL   H42944629   3.669   0.799   7.058  0.9411  1.6502 -0.9910
  101MOL   H43044630   3.396   0.878   6.944  1.1003  1.4514  0.6903
  101MOL   H43144631   3.539   0.887   6.845 -0.4148 -0.6398 -0.9040
  101MOL   H43244632   3.444   0.692   6.788 -0.0174 -1.0732 -0.5600
  101MOL   H43344633   3.594   0.648   6.880 -0.5283 -0.3478  0.0941
  101MOL   H43444634   3.419   0.519   6.948 -1.3548 -0.5349  1.1945
  101MOL   H43544635   3.305   0.651   6.995 -0.6204  0.2439 -1.8840
  101MOL   H43644636   3.563   0.559   7.142  0.5490 -0.4903 -0.5963
  101MOL   H43744637   3.404   0.563   7.185 -0.6870  1.5599 -0.3777
  101MOL   H43844638   3.405   0.811   7.200 -2.3229 -2.6730 -1.8996
  101MOL   H43944639   3.546   0.746   7.276  1.2185  2.3752  0.2885
  101MOL   H44044640   3.400   1.032   7.185  1.0336 -1.7578  1.5891
  101MOL   H44144641   3.507   1.171   7.165 -1.4922  0.2609  0.7170
  101MOL   H44244642   3.435   1.091   7.021 -2.1241 -1.5760  1.2736
  102MOL     C144643   2.521   4.727   2.708  0.4266 -0.3554  0.6425
  102MOL     C244644   2.604   4.825   2.624 -0.0060 -0.1981  0.6625
  102MOL     C344645   2.755   4.847   2.667 -0.8891  0.2580  0.6810
  102MOL     C444646   2.828   4.950   2.577  0.6363  0.1816 -0.1546
  102MOL     C544647   2.755   5.081   2.578 -0.2575 -0.0954 -0.2062
  102MOL     C644648   2.614   5.061   2.516  0.3262  0.3664 -0.0140
  102MOL     C744649   2.529   4.964   2.607 -0.0737  0.8019  0.6367
  102MOL     C844650   2.592   4.591   2.749  0.0887  0.6264 -0.1026
  102MOL     H944651   2.491   4.782   2.798  3.7523  1.4270  0.7270
  102MOL    H1044652   2.607   4.778   2.526 -3.2481 -0.4069  0.6167
  102MOL    H1144653   2.761   4.882   2.769  0.6863 -0.4549  0.8363
  102MOL    H1244654   2.815   4.756   2.659  1.7262  1.9700  0.4034
  102MOL    H1344655   2.822   4.919   2.473 -0.0790 -2.9467  0.7695
  102MOL    H1444656   2.931   4.968   2.610  0.7411 -0.7344  0.0193
  102MOL    H1544657   2.803   5.162   2.524 -1.6052  0.4883 -0.5396
  102MOL    H1644658   2.745   5.118   2.680 -0.9853  1.8915 -0.9912
  102MOL    H1744659   2.569   5.159   2.501 -0.6448  0.0590  0.8148
  102MOL    H1844660   2.621   5.028   2.412 -0.5272  0.1575 -0.0062
  102MOL    H1944661   2.433   4.950   2.556 -0.9604 -0.8875  2.6749
  102MOL    H2044662   2.511   5.009   2.705 -1.8720  1.0322  0.2288
  102MOL    H2144663   2.673   4.618   2.818 -0.7063  0.1265  1.0531
  102MOL    H2244664   2.632   4.547   2.658 -1.0594  0.5988 -0.6080
  102MOL    H2344665   2.433   4.701   2.649 -1.0202  1.2542  2.0056
  102MOL    C2444666   2.501   4.485   2.821  0.4745 -0.2905 -0.4352
  102MOL    C2544667   2.533   4.334   2.801  0.0300 -0.0455  0.9198
  102MOL    C2644668   2.660   4.287   2.877 -0.2906  0.2949 -0.0651
  102MOL    C2744669   2.674   4.133   2.875 -0.0148  0.2705 -0.0244
  102MOL    C2844670   2.677   4.077   2.733  0.3102 -0.1793 -0.6041
  102MOL    C2944671   2.567   4.133   2.636  0.1592 -0.2518  0.5739
  102MOL    C3044672   2.542   4.286   2.656 -0.4718  0.3955 -0.3191
  102MOL    C3144673   2.448   4.520   2.965  0.0036 -0.4221 -1.0028
  102MOL    H3244674   2.408   4.492   2.764 -0.3836 -1.2994  0.8181
  102MOL    H3344675   2.457   4.280   2.857  0.2385  0.4266  1.6638
  102MOL    H3444676   2.648   4.304   2.984  1.1767 -0.0023  0.1649
  102MOL    H3544677   2.752   4.331   2.839  0.0161 -1.0661 -0.9312
  102MOL    H3644678   2.768   4.102   2.921  0.0545 -3.0172 -2.2033
  102MOL    H3744679   2.599   4.089   2.941  1.1316  1.0267  1.8421
  102MOL    H3844680   2.683   3.969   2.739  1.1139 -0.1473 -0.8555
  102MOL    H3944681   2.772   4.099   2.685  1.2005 -3.3170 -0.4068
  102MOL    H4044682   2.582   4.119   2.529  0.3572  0.4241  0.5100
  102MOL    H4144683   2.470   4.090   2.656  1.2620 -2.5036  1.2458
  102MOL    H4244684   2.617   4.348   2.607 -0.5135  0.6546 -0.0559
  102MOL    H4344685   2.456   4.316   2.596 -2.5125  0.6711  2.6480
  102MOL    H4444686   2.362   4.457   2.986  1.2455 -1.1646  2.0635
  102MOL    H4544687   2.399   4.617   2.957  0.0692 -0.4301 -1.5247
  102MOL    C4644688   2.533   4.522   3.094 -1.0919 -0.2233 -0.2740
  102MOL    C4744689   2.480   4.407   3.188  0.7646 -0.2647  0.5534
  102MOL    C4844690   2.355   4.449   3.267 -0.5824  0.1580  0.4012
  102MOL    C4944691   2.298   4.327   3.343  0.0667  0.3618 -0.4449
  102MOL    C5044692   2.400   4.251   3.424 -0.7149  0.3303 -0.1420
  102MOL    C5144693   2.530   4.222   3.340  0.0863 -0.0881 -0.3506
  102MOL    C5244694   2.587   4.362   3.288  0.8948  0.0069 -0.0652
  102MOL    C5344695   2.550   4.667   3.144  0.4502  0.4539 -0.2738
  102MOL    H5444696   2.637   4.499   3.069 -1.3385 -1.4747 -0.1728
  102MOL    H5544697   2.448   4.320   3.130  0.2068  2.0841 -2.7911
  102MOL    H5644698   2.363   4.536   3.331  2.6414 -1.8253  2.8124
  102MOL    H5744699   2.285   4.476   3.188  0.8915  1.9033 -0.3240
  102MOL    H5844700   2.261   4.263   3.263  0.3733  1.0911 -1.1783
  102MOL    H5944701   2.215   4.359   3.407  0.7679  0.9041  0.2057
  102MOL    H6044702   2.428   4.304   3.515 -1.7678 -1.6420  1.3718
  102MOL    H6144703   2.355   4.155   3.449 -0.0579  0.0070 -0.1742
  102MOL    H6244704   2.513   4.152   3.258  0.7959 -1.3319  0.5400
  102MOL    H6344705   2.603   4.172   3.404  0.5722  2.2852  0.9896
  102MOL    H6444706   2.592   4.432   3.371 -2.3455 -0.0030  0.2280
  102MOL    H6544707   2.685   4.347   3.245  1.0747  0.5516  0.1522
  102MOL    H6644708   2.455   4.701   3.184  0.7653  0.1884  0.7332
  102MOL    H6744709   2.556   4.735   3.059  1.8521  2.8238  1.6661
  102MOL    C6844710   2.665   4.705   3.247  0.6602  0.7794  0.1680
  102MOL    C6944711   2.810   4.686   3.186  0.4176  0.2033 -0.0258
  102MOL    C7044712   2.847   4.770   3.066 -0.7839 -0.1191  0.2683
  102MOL    C7144713   2.976   4.713   2.995  0.3839 -0.0727  0.5502
  102MOL    C7244714   3.087   4.719   3.102  0.0770 -0.0583  0.1102
  102MOL    C7344715   3.044   4.633   3.218 -0.6109 -0.2814 -0.6207
  102MOL    C7444716   2.922   4.691   3.289 -0.2219  0.7648  0.7266
  102MOL    C7544717   2.634   4.855   3.298  0.2608 -0.0393 -0.0939
  102MOL    H7644718   2.660   4.639   3.334  3.0743 -0.0709 -0.2878
  102MOL    H7744719   2.806   4.585   3.144 -0.6360  0.5874 -0.8782
  102MOL    H7844720   2.846   4.874   3.099 -0.7941 -0.8387  2.5721
  102MOL    H7944721   2.759   4.773   3.001 -0.4662 -0.1592 -0.1637
  102MOL    H8044722   2.953   4.615   2.954 -0.5706 -0.1822  1.3182
  102MOL    H8144723   3.007   4.779   2.914  1.4757 -0.6671  0.4891
  102MOL    H8244724   3.113   4.822   3.130 -1.1871 -0.3933  2.6381
  102MOL    H8344725   3.180   4.687   3.056 -0.5467 -1.8187  0.0625
  102MOL    H8444726   3.128   4.620   3.286 -0.8723  0.5890 -0.1305
  102MOL    H8544727   3.020   4.533   3.181 -2.4209  0.0624 -0.4141
  102MOL    H8644728   2.948   4.793   3.317  1.6889  0.4978 -0.0109
  102MOL    H8744729   2.897   4.648   3.386 -0.1673  0.3345  0.5520
  102MOL    H8844730   2.722   4.885   3.355 -0.3005 -0.3758  0.9496
  102MOL    H8944731   2.629   4.918   3.209  0.8567  1.7652  1.1164
  102MOL    C9044732   2.506   4.861   3.392 -0.3641 -0.0326  0.8230
  102MOL    C9144733   2.531   4.895   3.545 -0.6051  0.3193 -0.3800
  102MOL    C9244734   2.618   4.794   3.615 -0.2863  0.2100  0.4254
  102MOL    C9344735   2.654   4.828   3.756 -0.0730 -0.5669  0.3465
  102MOL    C9444736   2.695   4.977   3.783 -0.1502 -0.8888  0.0496
  102MOL    C9544737   2.596   5.080   3.716  0.2996 -0.1259 -0.2280
  102MOL    C9644738   2.581   5.040   3.570  0.1627  0.1510 -0.2852
  102MOL    C9744739   2.395   4.947   3.331  0.9527 -0.6127 -0.2866
  102MOL    H9844740   2.464   4.760   3.394 -0.1125 -0.1655 -0.3459
  102MOL    H9944741   2.440   4.874   3.602  0.7789 -1.8053  1.1147
  102MOL   H10044742   2.713   4.792   3.561 -0.1995  3.4238  0.3281
  102MOL   H10144743   2.570   4.697   3.608 -0.6845  0.3509  1.0785
  102MOL   H10244744   2.728   4.757   3.795  0.3737 -1.0743 -1.3998
  102MOL   H10344745   2.570   4.817   3.825 -0.5200  0.1009 -0.0924
  102MOL   H10444746   2.788   4.996   3.728 -0.2110  0.4843  0.3819
  102MOL   H10544747   2.719   4.997   3.888 -2.0548 -0.5151  0.4220
  102MOL   H10644748   2.497   5.071   3.760  0.6474 -0.8528  0.4367
  102MOL   H10744749   2.644   5.178   3.720 -0.2539  0.2396 -2.1514
  102MOL   H10844750   2.507   5.109   3.531 -0.5041 -0.9123 -0.9402
  102MOL   H10944751   2.676   5.055   3.520 -0.5590  0.3752 -1.5941
  102MOL   H11044752   2.438   5.047   3.320 -1.9008  0.6998  0.0988
  102MOL   H11144753   2.374   4.918   3.227 -0.5717 -1.5727  0.2663
  102MOL   C11244754   2.259   4.960   3.408  0.6010  0.4524  0.4611
  102MOL   C11344755   2.177   4.828   3.437  0.6086  0.9323 -0.7490
  102MOL   C11444756   2.093   4.775   3.319 -0.3185  0.2376  0.3433
  102MOL   C11544757   2.023   4.639   3.355  1.0298  0.2169  0.1331
  102MOL   C11644758   1.950   4.644   3.486 -0.1777 -0.0390  0.1474
  102MOL   C11744759   2.042   4.693   3.597 -0.0449  0.2651  0.7079
  102MOL   C11844760   2.101   4.836   3.569  0.5273  0.4514  0.1549
  102MOL   C11944761   2.174   5.067   3.343 -0.2742  0.3091 -0.7253
  102MOL   H12044762   2.275   4.997   3.509 -1.7920  1.7930  0.4096
  102MOL   H12144763   2.255   4.754   3.452 -1.8001 -1.3956  0.7239
  102MOL   H12244764   2.143   4.761   3.224 -0.3721  1.6531  0.0994
  102MOL   H12344765   2.002   4.834   3.305 -1.9093 -2.5283 -1.2272
  102MOL   H12444766   1.956   4.627   3.269  2.0147  1.6185 -0.8656
  102MOL   H12544767   2.102   4.565   3.347  0.3865 -0.2625 -2.3807
  102MOL   H12644768   1.863   4.709   3.497 -1.8094 -2.1119 -0.1495
  102MOL   H12744769   1.925   4.540   3.507  2.5785 -1.0602 -1.3393
  102MOL   H12844770   1.982   4.683   3.687  2.0940 -1.7570  1.9386
  102MOL   H12944771   2.127   4.625   3.608 -0.2611  0.2125  2.0905
  102MOL   H13044772   2.174   4.862   3.645 -0.8169  1.1251  1.2412
  102MOL   H13144773   2.018   4.906   3.567 -0.9321 -1.1511  2.0714
  102MOL   H13244774   2.067   5.054   3.356 -0.2385  1.7528  1.2190
  102MOL   H13344775   2.182   5.053   3.235 -1.9693  1.6865 -1.0362
  102MOL   C13444776   2.209   5.207   3.389  0.1788  0.3517 -0.5042
  102MOL   C13544777   2.128   5.245   3.521  0.7432  0.2817  0.6557
  102MOL   C13644778   1.995   5.323   3.512 -0.2236 -0.5076  0.1991
  102MOL   C13744779   1.924   5.336   3.648 -0.0173 -0.1958 -0.6337
  102MOL   C13844780   2.019   5.399   3.760  0.0155 -0.8374 -0.2592
  102MOL   C13944781   2.158   5.333   3.755 -0.3114  0.6090 -0.1839
  102MOL   C14044782   2.222   5.319   3.618 -0.2425 -0.1913 -0.0168
  102MOL   C14144783   2.189   5.321   3.279  0.7961 -0.4871 -0.1901
  102MOL   H14244784   2.316   5.210   3.406  0.2070  0.9180 -0.7714
  102MOL   H14344785   2.104   5.147   3.562 -1.0014 -0.1819 -1.3450
  102MOL   H14444786   2.005   5.425   3.476 -1.1141 -0.1651  0.9011
  102MOL   H14544787   1.926   5.271   3.446 -0.6128 -0.9435  0.9408
  102MOL   H14644788   1.894   5.233   3.667  1.7447 -0.2642  1.9909
  102MOL   H14744789   1.835   5.396   3.629 -0.0839  0.1955  0.8565
  102MOL   H14844790   2.027   5.506   3.742 -0.5435 -1.1632 -2.5690
  102MOL   H14944791   1.980   5.392   3.862 -1.2940  2.9656 -0.4385
  102MOL   H15044792   2.157   5.234   3.800  3.7110 -0.7795 -2.8378
  102MOL   H15144793   2.230   5.387   3.818  2.9765 -3.7993  0.0880
  102MOL   H15244794   2.234   5.420   3.581 -2.1936 -1.0208 -3.1956
  102MOL   H15344795   2.313   5.262   3.636 -0.7612 -0.8481  0.5786
  102MOL   H15444796   2.166   5.415   3.329 -1.9454 -1.3958  0.3101
  102MOL   H15544797   2.102   5.285   3.224  1.9719  0.1565 -2.5684
  102MOL   C15644798   2.309   5.350   3.178  0.1752  0.3718  0.4506
  102MOL   C15744799   2.415   5.433   3.258  0.8396 -0.0878  0.2813
  102MOL   C15844800   2.557   5.392   3.224 -0.4450  0.2144 -0.3281
  102MOL   C15944801   2.668   5.481   3.283  0.2818  0.4359  0.4803
  102MOL   C16044802   2.639   5.623   3.260  0.4449  0.5170  0.4027
  102MOL   C16144803   2.510   5.665   3.326  0.1433  0.1705 -0.1702
  102MOL   C16244804   2.391   5.591   3.263 -0.3008 -0.0733 -0.4116
  102MOL   C16344805   2.266   5.397   3.039  0.6597  0.4511  0.2996
  102MOL   H16444806   2.353   5.250   3.173  0.1951  0.4577 -1.4767
  102MOL   H16544807   2.406   5.417   3.366 -0.8806  1.3154  0.3615
  102MOL   H16644808   2.573   5.288   3.254 -1.8478  0.0603 -0.0938
  102MOL   H16744809   2.567   5.392   3.116 -2.0825  0.0836 -0.4896
  102MOL   H16844810   2.675   5.470   3.391 -0.4875  0.1525  0.5016
  102MOL   H16944811   2.759   5.463   3.225  0.3732  2.4884 -0.0617
  102MOL   H17044812   2.629   5.655   3.156 -2.7540  0.3429  0.6074
  102MOL   H17144813   2.704   5.698   3.305 -0.7934  1.9399 -0.1274
  102MOL   H17244814   2.501   5.773   3.338 -0.2029 -0.0967  2.2193
  102MOL   H17344815   2.528   5.641   3.431 -1.2000  1.1980  0.3024
  102MOL   H17444816   2.307   5.603   3.330  1.9910 -0.9197  2.7461
  102MOL   H17544817   2.364   5.620   3.161  1.1732  0.2581 -0.7278
  102MOL   H17644818   2.294   5.500   3.016  1.9533  0.3490  1.3420
  102MOL   H17744819   2.158   5.401   3.021  1.0570 -0.0264 -2.4271
  102MOL   C17844820   2.334   5.311   2.924  0.2436  0.0159 -0.4010
  102MOL   C17944821   2.268   5.167   2.902 -0.0530 -0.4646  0.3807
  102MOL   C18044822   2.112   5.158   2.912  0.3291  0.3571 -0.3076
  102MOL   C18144823   2.065   5.021   2.869  0.3295  0.0041 -0.1302
  102MOL   C18244824   2.129   4.908   2.950  0.3536 -0.2656  0.3433
  102MOL   C18344825   2.286   4.920   2.931 -0.2102 -0.1333  0.2033
  102MOL   C18444826   2.341   5.056   2.976  0.1712  0.0588  0.8049
  102MOL   C18544827   2.344   5.386   2.789  0.0564 -0.2536 -0.8516
  102MOL   H18644828   2.438   5.299   2.954 -0.0130 -0.2114  0.3943
  102MOL   H18744829   2.280   5.151   2.795 -2.4043  1.8507 -0.2789
  102MOL   H18844830   2.075   5.171   3.014  0.4485 -1.1797 -0.0559
  102MOL   H18944831   2.069   5.238   2.853  2.2101  0.8956 -0.9973
  102MOL   H19044832   2.097   5.008   2.766  0.0436  0.9248 -0.3433
  102MOL   H19144833   1.956   5.028   2.866  0.4080  1.5365 -0.0818
  102MOL   H19244834   2.092   4.915   3.052 -0.6354 -2.0775  0.1379
  102MOL   H19344835   2.099   4.814   2.903 -0.3387  0.2372 -0.2242
  102MOL   H19444836   2.316   4.907   2.828  1.4714  2.3105  0.3327
  102MOL   H19544837   2.334   4.839   2.986 -0.8003  0.0692  1.0320
  102MOL   H19644838   2.330   5.064   3.084 -2.1594  1.1107  0.5322
  102MOL   H19744839   2.449   5.051   2.962  0.3925  3.8261  0.7790
  102MOL   H19844840   2.382   5.321   2.711  1.2072  0.2942 -0.7469
  102MOL   H19944841   2.240   5.413   2.766 -0.3898 -0.5032  0.7916
  102MOL   C20044842   2.429   5.514   2.774  0.7036 -0.2821 -0.3969
  102MOL   C20144843   2.573   5.509   2.833  0.3841 -0.4622  0.1577
  102MOL   C20244844   2.657   5.395   2.763  0.4903  0.3266 -0.2186
  102MOL   C20344845   2.789   5.390   2.832  0.6168 -0.1177  0.2005
  102MOL   C20444846   2.867   5.524   2.838 -0.1359 -0.0257 -0.2244
  102MOL   C20544847   2.777   5.629   2.913 -0.0095 -0.1957  0.0795
  102MOL   C20644848   2.652   5.641   2.832 -0.8408 -0.1247  0.4721
  102MOL   C20744849   2.418   5.560   2.623  0.3686  0.4932 -0.5712
  102MOL   H20844850   2.383   5.589   2.838  4.5139  0.8117  1.2076
  102MOL   H20944851   2.552   5.488   2.938 -0.1663  2.8374  0.7565
  102MOL   H21044852   2.672   5.426   2.659 -1.6263 -2.1076 -1.3288
  102MOL   H21144853   2.593   5.307   2.763  0.1278  0.5665  2.3092
  102MOL   H21244854   2.777   5.350   2.933  1.3608  1.2834  0.8557
  102MOL   H21344855   2.850   5.314   2.783  0.4471  1.1532 -2.0570
  102MOL   H21444856   2.966   5.501   2.877  0.5342  1.9877 -0.6398
  102MOL   H21544857   2.875   5.550   2.732 -1.8530 -1.4318 -0.7233
  102MOL   H21644858   2.758   5.586   3.011 -0.0907 -1.2457 -0.3979
  102MOL   H21744859   2.827   5.725   2.925  0.7362 -0.6228  0.3998
  102MOL   H21844860   2.593   5.716   2.886  0.5792 -0.5126  2.6249
  102MOL   H21944861   2.673   5.683   2.734 -1.2444  0.0581  0.4604
  102MOL   H22044862   2.515   5.603   2.600 -0.6753  3.3360  0.1450
  102MOL   H22144863   2.397   5.475   2.559 -0.0361 -0.4265  0.7689
  102MOL   C22244864   2.305   5.663   2.606 -0.0136 -0.2337  0.5206
  102MOL   C22344865   2.342   5.810   2.653 -0.6417 -0.3184  0.4093
  102MOL   C22444866   2.216   5.898   2.661  0.2668  0.9536  0.5213
  102MOL   C22544867   2.254   6.034   2.714 -0.5012 -0.7829  0.3445
  102MOL   C22644868   2.370   6.097   2.631 -0.1124  0.0708  0.1468
  102MOL   C22744869   2.493   6.006   2.617  0.0454 -0.6223 -0.6087
  102MOL   C22844870   2.459   5.869   2.564 -0.3419  0.0212  0.4429
  102MOL   C22944871   2.264   5.657   2.456 -0.9271  0.2466  0.2513
  102MOL   H23044872   2.219   5.629   2.663 -0.2054 -1.9068 -0.7425
  102MOL   H23144873   2.387   5.806   2.752  0.8166  0.4933 -0.2031
  102MOL   H23244874   2.165   5.909   2.565 -0.1150 -0.5810  0.5307
  102MOL   H23344875   2.148   5.843   2.727 -0.5264  0.1255 -0.9584
  102MOL   H23444876   2.279   6.027   2.820  1.6432  0.5571 -0.0392
  102MOL   H23544877   2.175   6.108   2.717 -1.1389 -1.4954  1.5501
  102MOL   H23644878   2.331   6.111   2.531 -1.6101 -3.1982  0.2330
  102MOL   H23744879   2.391   6.201   2.658 -2.5356  1.1172 -1.7972
  102MOL   H23844880   2.542   5.998   2.714  0.2212 -2.2628 -0.8173
  102MOL   H23944881   2.561   6.051   2.544  1.5298 -2.3838 -0.3420
  102MOL   H24044882   2.419   5.870   2.463  0.8340  0.1841 -0.0305
  102MOL   H24144883   2.552   5.812   2.557  0.3681  1.3246 -1.2455
  102MOL   H24244884   2.349   5.625   2.397 -2.1467 -1.9878 -0.3462
  102MOL   H24344885   2.237   5.760   2.431 -1.3521 -0.6406 -3.0865
  102MOL   C24444886   2.132   5.581   2.423  0.0658  0.2007  0.8302
  102MOL   C24544887   2.147   5.427   2.437  0.2032  0.6292  0.5660
  102MOL   C24644888   2.239   5.354   2.336 -0.2373 -0.3030  0.4049
  102MOL   C24744889   2.246   5.201   2.365 -0.1733 -0.5763  0.1693
  102MOL   C24844890   2.105   5.138   2.380  0.1708 -0.4689  0.1447
  102MOL   C24944891   2.022   5.209   2.491 -0.2161  0.1188 -0.0390
  102MOL   C25044892   2.007   5.357   2.453 -0.2979 -0.1434 -0.2548
  102MOL   C25144893   2.093   5.618   2.278 -0.0134  0.2823  0.3735
  102MOL   H25244894   2.050   5.617   2.484 -0.8962  0.2245 -0.4578
  102MOL   H25344895   2.179   5.410   2.539  2.3517  1.7699  0.0991
  102MOL   H25444896   2.338   5.399   2.351  0.4279 -1.9166  0.9794
  102MOL   H25544897   2.211   5.388   2.237  0.4197  1.0514  0.6720
  102MOL   H25644898   2.292   5.151   2.279  0.1167 -0.0656  0.0285
  102MOL   H25744899   2.304   5.182   2.455 -0.8271 -0.7430  0.5655
  102MOL   H25844900   2.047   5.121   2.289 -1.2695 -0.4500  1.0398
  102MOL   H25944901   2.125   5.031   2.389  1.9549 -0.2089 -0.7320
  102MOL   H26044902   2.070   5.206   2.588  1.5900 -0.2957 -0.9201
  102MOL   H26144903   1.923   5.163   2.496 -0.6377  0.7864 -1.7620
  102MOL   H26244904   1.946   5.359   2.362  1.6496 -0.0496 -1.5889
  102MOL   H26344905   1.944   5.412   2.523 -2.5133 -0.6805 -1.7826
  102MOL   H26444906   2.027   5.537   2.247  0.9015 -0.6792  0.9119
  102MOL   H26544907   2.176   5.598   2.211 -0.0688  3.4010 -0.7428
  102MOL   C26644908   2.018   5.752   2.254 -0.0888  0.1331 -0.1073
  102MOL   C26744909   2.083   5.843   2.151 -0.3147 -1.3360 -0.2158
  102MOL   C26844910   2.091   5.783   2.010  0.0121 -0.1233  0.4862
  102MOL   C26944911   2.156   5.878   1.908  0.3305  0.5538 -0.5130
  102MOL   C27044912   2.287   5.929   1.964 -0.5768  0.7820  0.1263
  102MOL   C27144913   2.272   6.001   2.099 -0.3459  0.5659  0.6983
  102MOL   C27244914   2.219   5.899   2.201 -0.3793 -0.0369 -0.9313
  102MOL   C27344915   1.868   5.716   2.201  0.3035 -0.2043 -0.0849
  102MOL   H27444916   2.016   5.811   2.346  1.3036 -1.0621  0.7034
  102MOL   H27544917   2.018   5.930   2.148  0.6618 -0.5515  0.9888
  102MOL   H27644918   2.147   5.691   1.995 -0.4216 -0.1778 -0.8853
  102MOL   H27744919   1.997   5.764   1.959  0.6604  0.2628 -0.8825
  102MOL   H27844920   2.102   5.969   1.881  1.5710  1.5456  0.3042
  102MOL   H27944921   2.171   5.822   1.816 -2.2723 -0.8215 -0.1604
  102MOL   H28044922   2.362   5.851   1.974 -0.1498  1.4047  1.9989
  102MOL   H28144923   2.333   5.995   1.890  0.7354  0.0874  0.3065
  102MOL   H28244924   2.206   6.087   2.083 -2.1536 -0.7454  0.9710
  102MOL   H28344925   2.375   6.032   2.116 -0.3527  1.0737 -0.1219
  102MOL   H28444926   2.205   5.943   2.300 -2.8081 -0.5713 -1.0119
  102MOL   H28544927   2.289   5.816   2.206 -1.1511 -0.6989 -1.0419
  102MOL   H28644928   1.881   5.641   2.124 -0.7347 -1.9102  1.3695
  102MOL   H28744929   1.817   5.803   2.160  0.1865  0.2439  0.9811
  102MOL   C28844930   1.767   5.669   2.309 -0.2045  0.6973 -0.6659
  102MOL   C28944931   1.653   5.578   2.246 -0.2931  0.1195 -0.1750
  102MOL   C29044932   1.591   5.635   2.111  0.1225  0.3413 -0.8561
  102MOL   C29144933   1.473   5.547   2.070 -0.6246  0.7588 -0.2344
  102MOL   C29244934   1.521   5.394   2.046  0.4130 -0.6722 -0.2035
  102MOL   C29344935   1.590   5.337   2.169  0.4284  0.1661  0.1199
  102MOL   C29444936   1.701   5.427   2.217 -0.1975 -0.5992 -0.3523
  102MOL   C29544937   1.714   5.787   2.398  0.1567 -0.4799  0.4733
  102MOL   H29644938   1.826   5.603   2.373 -0.2732 -0.7070 -2.0009
  102MOL   H29744939   1.561   5.564   2.303 -2.7257  0.3108 -3.8736
  102MOL   H29844940   1.561   5.739   2.118  0.3531  0.3440  0.0806
  102MOL   H29944941   1.667   5.640   2.033 -1.0947  3.6568 -1.9267
  102MOL   H30044942   1.390   5.552   2.141 -0.6199  1.0347 -0.2493
  102MOL   H30144943   1.428   5.579   1.977  0.0404 -2.0427 -1.5845
  102MOL   H30244944   1.593   5.395   1.965  1.2377  0.1229  0.5330
  102MOL   H30344945   1.443   5.327   2.010  1.4645 -1.1178 -1.6809
  102MOL   H30444946   1.629   5.236   2.154 -0.7729 -0.1908 -0.6573
  102MOL   H30544947   1.529   5.322   2.259  1.4165 -0.2905  0.7213
  102MOL   H30644948   1.782   5.415   2.145 -1.7204 -1.2398 -1.9764
  102MOL   H30744949   1.741   5.389   2.311  1.6010 -0.2749 -0.9636
  102MOL   H30844950   1.782   5.873   2.403 -1.8532  1.0358  2.8161
  102MOL   H30944951   1.619   5.827   2.362  0.1795  0.2751  1.2249
  102MOL   C31044952   1.698   5.751   2.554 -0.1904 -0.0227  0.0357
  102MOL   C31144953   1.664   5.875   2.645 -0.5347 -0.1690  0.3670
  102MOL   C31244954   1.794   5.942   2.695  0.7271 -1.2084 -0.4790
  102MOL   C31344955   1.767   6.072   2.778  0.7276  0.4031 -0.0074
  102MOL   C31444956   1.665   6.164   2.709 -0.3848 -0.6041 -0.3929
  102MOL   C31544957   1.536   6.084   2.689  0.5591  0.3249  0.0104
  102MOL   C31644958   1.572   5.984   2.582 -0.1214  0.0620  0.0253
  102MOL   C31744959   1.579   5.649   2.563 -0.3414  0.1283 -0.3855
  102MOL   H31844960   1.788   5.704   2.594  1.8585  0.2420 -4.0242
  102MOL   H31944961   1.622   5.837   2.738  0.2739 -1.5964  0.1713
  102MOL   H32044962   1.839   5.876   2.769  2.0140  1.8603  1.5598
  102MOL   H32144963   1.855   5.958   2.606  0.1129  1.1943 -0.4814
  102MOL   H32244964   1.859   6.127   2.799  0.7585 -0.8685  3.5026
  102MOL   H32344965   1.728   6.038   2.874 -1.4475  1.9344 -0.2939
  102MOL   H32444966   1.649   6.251   2.773 -0.5897 -0.8618 -0.0960
  102MOL   H32544967   1.701   6.193   2.610 -0.4142  0.2918 -0.1483
  102MOL   H32644968   1.509   6.041   2.785  0.3710 -0.9738 -0.6143
  102MOL   H32744969   1.449   6.146   2.663  1.4438  0.8671 -1.7453
  102MOL   H32844970   1.603   6.035   2.491  1.5445  0.2538  0.6923
  102MOL   H32944971   1.481   5.925   2.568 -1.1030  1.9902 -2.1420
  102MOL   H33044972   1.625   5.566   2.509 -0.3014  1.1302 -1.9410
  102MOL   H33144973   1.492   5.679   2.505 -0.4282  0.2303 -0.2006
  102MOL   C33244974   1.550   5.585   2.710  0.2451  0.2703  0.9672
  102MOL   C33344975   1.543   5.426   2.688  0.0657  0.1042  0.6711
  102MOL   C33444976   1.671   5.351   2.660  1.0561 -0.4051 -0.6863
  102MOL   C33544977   1.675   5.202   2.671  0.5299 -0.0992  0.3449
  102MOL   C33644978   1.573   5.144   2.573 -0.1039  0.2370  0.9975
  102MOL   C33744979   1.436   5.205   2.601  0.3605  0.5765 -0.1384
  102MOL   C33844980   1.435   5.366   2.591 -0.2236 -0.0143 -0.1269
  102MOL   C33944981   1.431   5.657   2.772 -0.0793  0.3042  0.0118
  102MOL   H34044982   1.647   5.597   2.758  0.4763  2.5480 -0.0165
  102MOL   H34144983   1.515   5.396   2.789 -0.7220  0.7359  0.6537
  102MOL   H34244984   1.702   5.384   2.561  0.1324  0.4498 -0.6924
  102MOL   H34344985   1.747   5.387   2.729  0.2332 -1.6860  0.9101
  102MOL   H34444986   1.775   5.165   2.651  1.9137  3.4347  0.3290
  102MOL   H34544987   1.661   5.178   2.776 -1.3479  0.0917  0.1642
  102MOL   H34644988   1.604   5.161   2.470  0.4987 -1.4648  0.8746
  102MOL   H34744989   1.564   5.036   2.588  0.6360 -0.2968 -1.9799
  102MOL   H34844990   1.396   5.173   2.698 -1.1505  1.5234 -0.4204
  102MOL   H34944991   1.366   5.160   2.530  1.0209 -1.7137  0.6369
  102MOL   H35044992   1.337   5.409   2.611 -0.2383 -1.5345  3.4046
  102MOL   H35144993   1.473   5.400   2.495 -1.0440 -1.1862 -0.8608
  102MOL   H35244994   1.344   5.621   2.717 -0.0996  1.3384 -0.6314
  102MOL   H35344995   1.430   5.765   2.761  0.7948  0.5194  1.8257
  102MOL   C35444996   1.409   5.635   2.927  0.2156  0.7911  0.2156
  102MOL   C35544997   1.268   5.683   2.965 -0.4451  0.3217 -0.1582
  102MOL   C35644998   1.249   5.835   2.987  0.3515 -0.2392 -0.5729
  102MOL   C35744999   1.098   5.867   3.011 -0.4958 -0.3474 -0.1681
  102MOL   C35845000   1.045   5.791   3.134 -0.0861 -0.3277  0.0570
  102MOL   C35945001   1.079   5.638   3.135  0.3293  0.2947  0.0160
  102MOL   C36045002   1.226   5.608   3.091  0.5384 -0.6531 -0.6200
  102MOL   C36145003   1.527   5.688   3.006  0.5099 -0.2816 -0.4841
  102MOL   H36245004   1.395   5.528   2.938  1.8583  0.5678  0.3167
  102MOL   H36345005   1.204   5.657   2.880 -1.3391 -0.6670  0.7877
  102MOL   H36445006   1.282   5.883   2.895  0.5812  2.0982  0.6756
  102MOL   H36545007   1.309   5.877   3.068 -1.6458 -1.9573  1.8667
  102MOL   H36645008   1.083   5.975   3.016 -1.1152 -0.4681  0.7869
  102MOL   H36745009   1.047   5.835   2.920  0.7672 -1.1493 -0.6050
  102MOL   H36845010   1.086   5.844   3.220  0.2734  1.2308 -1.0594
  102MOL   H36945011   0.938   5.807   3.144 -0.3857 -0.8402 -2.0308
  102MOL   H37045012   1.045   5.596   3.230 -1.1251 -1.1449 -1.1258
  102MOL   H37145013   1.014   5.592   3.061  0.8133  0.6596 -0.6312
  102MOL   H37245014   1.234   5.502   3.069 -1.3226 -1.5030  2.3731
  102MOL   H37345015   1.290   5.622   3.178 -0.3729  2.9727 -0.4716
  102MOL   H37445016   1.495   5.733   3.100 -2.1886 -0.7285 -1.1444
  102MOL   H37545017   1.566   5.766   2.940 -3.4120  1.5985 -0.7462
  102MOL   C37645018   1.639   5.581   3.035 -0.2144 -0.2201  0.3108
  102MOL   C37745019   1.781   5.644   3.018  0.7880 -0.1612 -0.5213
  102MOL   C37845020   1.890   5.547   2.969  0.5228 -0.8558 -0.3340
  102MOL   C37945021   2.013   5.627   2.922 -0.5860 -0.2085  0.2026
  102MOL   C38045022   2.065   5.713   3.037 -0.2321 -0.2292  0.3845
  102MOL   C38145023   1.958   5.800   3.096  0.3238 -0.1536 -0.1943
  102MOL   C38245024   1.835   5.722   3.140  0.3798  0.2309  0.3542
  102MOL   C38345025   1.621   5.512   3.176 -0.5257 -0.2051 -0.3105
  102MOL   H38445026   1.635   5.504   2.957  0.1580  0.6172 -0.5496
  102MOL   H38545027   1.772   5.708   2.931 -2.0659 -0.8386 -0.7789
  102MOL   H38645028   1.920   5.483   3.053  3.5745  0.9098 -0.0159
  102MOL   H38745029   1.857   5.481   2.889 -0.9824 -0.7769  0.2043
  102MOL   H38845030   1.982   5.694   2.842 -0.3678 -1.0769 -0.6204
  102MOL   H38945031   2.087   5.553   2.892 -1.2366 -1.3046  1.2477
  102MOL   H39045032   2.111   5.648   3.111  2.0508 -1.1017 -1.6820
  102MOL   H39145033   2.155   5.767   3.006 -1.2667 -0.6622 -3.7259
  102MOL   H39245034   2.002   5.862   3.174 -0.9246 -0.5189  0.8079
  102MOL   H39345035   1.925   5.868   3.017 -0.5103 -0.4957 -0.1446
  102MOL   H39445036   1.852   5.653   3.223 -0.9016 -0.4758  0.0465
  102MOL   H39545037   1.762   5.792   3.179  1.4128  1.9606 -0.7668
  102MOL   H39645038   1.576   5.588   3.240  1.1250 -0.9932  1.8741
  102MOL   H39745039   1.718   5.502   3.226 -0.6441  1.0419  0.1829
  102MOL   C39845040   1.540   5.379   3.192 -0.2327  0.1446 -0.1469
  102MOL   C39945041   1.618   5.255   3.135  0.3752 -0.1799 -0.0310
  102MOL   C40045042   1.722   5.192   3.232  0.0878 -0.0322  0.3116
  102MOL   C40145043   1.801   5.077   3.168  0.2240 -0.3013  0.0373
  102MOL   C40245044   1.706   4.967   3.113 -0.8215 -0.2688 -0.1071
  102MOL   C40345045   1.595   5.027   3.019  0.2840 -0.0956  0.1397
  102MOL   C40445046   1.524   5.143   3.083 -0.3700 -0.1443  0.2531
  102MOL   C40545047   1.517   5.349   3.345 -0.4518  0.4153  0.2281
  102MOL   H40645048   1.443   5.379   3.142  0.5845 -0.1294 -1.7495
  102MOL   H40745049   1.672   5.289   3.047  2.0064 -0.6279  0.7739
  102MOL   H40845050   1.668   5.153   3.319 -1.0649 -2.1350 -1.2853
  102MOL   H40945051   1.791   5.269   3.265 -1.6352  2.0971 -0.9181
  102MOL   H41045052   1.866   5.037   3.246  3.2883  0.8361 -1.8740
  102MOL   H41145053   1.876   5.115   3.099  0.2605  0.3267  0.4222
  102MOL   H41245054   1.659   4.921   3.200 -1.5957 -0.8514 -0.8323
  102MOL   H41345055   1.765   4.889   3.065 -1.9221 -1.0661 -0.1785
  102MOL   H41445056   1.625   5.058   2.919 -0.6305 -0.2115 -0.1748
  102MOL   H41545057   1.521   4.948   3.004 -0.5147  0.3162  1.8195
  102MOL   H41645058   1.469   5.199   3.008  1.4289  2.8214  1.0627
  102MOL   H41745059   1.463   5.104   3.164 -1.2223  0.7469  0.0415
  102MOL   H41845060   1.470   5.251   3.356  0.2961 -0.0069 -0.3344
  102MOL   H41945061   1.614   5.345   3.394  2.1716 -1.2625 -4.7459
  102MOL   C42045062   1.407   5.437   3.419  0.3471 -0.2756  0.0305
  102MOL   C42145063   1.427   5.454   3.573 -0.2581 -0.1539 -0.4394
  102MOL   C42245064   1.546   5.551   3.597 -0.0434 -0.0172  0.1033
  102MOL   C42345065   1.571   5.575   3.745  0.9545  0.2430  0.0311
  102MOL   C42445066   1.568   5.444   3.831 -0.4956 -0.1485  0.3368
  102MOL   C42545067   1.457   5.348   3.801  0.4224 -0.2239 -0.0232
  102MOL   C42645068   1.447   5.320   3.650 -0.8147  1.5048 -0.0776
  102MOL   C42745069   1.266   5.382   3.383  0.1125 -0.0776 -0.6445
  102MOL   H42845070   1.402   5.538   3.378 -0.2642 -0.5625 -0.6029
  102MOL   H42945071   1.338   5.510   3.602  0.4082  1.1375 -0.8582
  102MOL   H43045072   1.641   5.523   3.553  0.5965  0.6777  1.0160
  102MOL   H43145073   1.531   5.638   3.533 -0.5656  0.3379  0.6929
  102MOL   H43245074   1.654   5.641   3.768  2.6811 -1.4405 -1.2564
  102MOL   H43345075   1.490   5.644   3.772  0.4056 -0.0439 -0.8427
  102MOL   H43445076   1.568   5.475   3.935  4.9580 -1.4730  0.8864
  102MOL   H43545077   1.663   5.391   3.832 -0.5518 -0.2379  1.2936
  102MOL   H43645078   1.358   5.386   3.827  1.0197  0.7891  0.7883
  102MOL   H43745079   1.469   5.256   3.859  0.2179 -0.3832 -0.2301
  102MOL   H43845080   1.542   5.275   3.622 -1.7222 -0.6716  0.2439
  102MOL   H43945081   1.377   5.238   3.634  1.5175 -0.3961 -0.8029
  102MOL   H44045082   1.256   5.279   3.419  1.5164 -0.0594 -0.1758
  102MOL   H44145083   1.185   5.435   3.432  0.8456 -0.3969  0.9570
  102MOL   H44245084   1.250   5.365   3.276  0.5954  0.8732 -0.8667
  103MOL     C145085   6.983   3.126   5.761 -0.0827 -0.7754 -1.1035
  103MOL     C245086   6.966   3.277   5.795  0.4563  0.3245  0.0318
  103MOL     C345087   6.980   3.359   5.668  0.1593 -0.5653 -0.2496
  103MOL     C445088   6.997   3.514   5.695 -0.5586 -0.0932 -0.8029
  103MOL     C545089   7.084   3.550   5.816 -1.0546  0.8110  0.4471
  103MOL     C645090   7.058   3.466   5.939  0.2092 -0.0916 -0.2100
  103MOL     C745091   7.063   3.317   5.904  0.0420 -0.3050  0.1543
  103MOL     C845092   6.857   3.062   5.684 -0.8589 -0.2176  0.1063
  103MOL     H945093   7.078   3.100   5.714 -0.2877  1.6752 -2.9235
  103MOL    H1045094   6.867   3.296   5.837  0.0663 -0.3733 -0.5735
  103MOL    H1145095   7.067   3.315   5.619  1.7377  1.0627  1.0163
  103MOL    H1245096   6.899   3.336   5.600 -0.0209  1.4472 -0.7329
  103MOL    H1345097   6.901   3.558   5.724  0.3046  1.4722 -0.2637
  103MOL    H1445098   7.039   3.546   5.600  1.9225 -1.5192 -0.2273
  103MOL    H1545099   7.063   3.654   5.842  1.7029  1.6888 -0.6917
  103MOL    H1645100   7.189   3.551   5.787 -0.5758 -0.1592  2.0306
  103MOL    H1745101   7.135   3.489   6.012 -0.5960 -1.5789  1.1456
  103MOL    H1845102   6.959   3.489   5.980  0.7912 -0.2242  1.3156
  103MOL    H1945103   7.040   3.265   5.997  3.4868 -1.2906  0.5159
  103MOL    H2045104   7.164   3.291   5.876  0.0852 -1.7400  1.5431
  103MOL    H2145105   6.825   3.122   5.598 -0.7311 -0.2460  0.0393
  103MOL    H2245106   6.763   3.062   5.739 -1.0139  1.5504 -0.1223
  103MOL    H2345107   6.984   3.076   5.858  1.6634  1.2934 -0.0255
  103MOL    C2445108   6.869   2.913   5.648 -0.0576  0.3437 -0.8116
  103MOL    C2545109   7.000   2.885   5.566 -0.3931 -0.2874  0.4895
  103MOL    C2645110   7.008   2.965   5.436 -0.6792 -0.5946 -0.0375
  103MOL    C2745111   7.137   2.948   5.362 -0.0577  0.7835 -0.8874
  103MOL    C2845112   7.163   2.801   5.338 -0.0693 -0.3302  0.9460
  103MOL    C2945113   7.140   2.713   5.464 -0.3215  0.1500 -0.0397
  103MOL    C3045114   7.002   2.738   5.527  0.2422  0.3117  0.9354
  103MOL    C3145115   6.858   2.825   5.781 -0.1874  0.6867 -0.4064
  103MOL    H3245116   6.781   2.888   5.590  1.0808  0.0679 -2.4449
  103MOL    H3345117   7.091   2.901   5.624 -0.3926 -0.3625  0.5094
  103MOL    H3445118   6.998   3.073   5.449  2.2521 -0.2497 -0.4876
  103MOL    H3545119   6.921   2.948   5.372 -1.4679  2.9082  0.0060
  103MOL    H3645120   7.119   2.988   5.262 -0.9393 -1.7319 -1.7800
  103MOL    H3745121   7.221   2.989   5.418 -1.8208  1.4502  1.3484
  103MOL    H3845122   7.264   2.788   5.299 -0.2684  0.1910  0.2462
  103MOL    H3945123   7.099   2.757   5.261  0.8172 -1.7074  0.9662
  103MOL    H4045124   7.155   2.608   5.442 -1.9018  0.6208 -3.6250
  103MOL    H4145125   7.218   2.741   5.534 -2.4824  1.0417  2.1100
  103MOL    H4245126   6.917   2.708   5.466  1.5164  1.4016 -1.4399
  103MOL    H4345127   6.996   2.669   5.611 -0.4684  1.0636  1.5051
  103MOL    H4445128   6.915   2.870   5.862  0.2771 -1.4299  0.4859
  103MOL    H4545129   6.912   2.731   5.773 -0.8536  0.4764 -2.9057
  103MOL    C4645130   6.722   2.795   5.828  0.5839  0.3008 -0.2082
  103MOL    C4745131   6.686   2.842   5.979 -0.5104  1.3217  0.0154
  103MOL    C4845132   6.686   2.997   6.001  1.1584 -0.6652  0.1864
  103MOL    C4945133   6.631   3.021   6.140  0.2741 -0.6152 -0.3899
  103MOL    C5045134   6.719   2.945   6.249 -0.5352  0.8867 -0.7629
  103MOL    C5145135   6.720   2.788   6.221 -0.6922 -0.2483 -0.7227
  103MOL    C5245136   6.780   2.774   6.085  0.4461  0.1668 -0.6299
  103MOL    C5345137   6.675   2.649   5.807 -0.2696 -0.5511  0.9351
  103MOL    H5445138   6.661   2.852   5.759  1.5021  1.8362  0.2116
  103MOL    H5545139   6.581   2.810   5.985  0.2889 -1.6059 -0.6375
  103MOL    H5645140   6.786   3.034   5.979  1.4075 -2.4865 -1.8719
  103MOL    H5745141   6.624   3.043   5.924  1.4264  0.0803  0.4173
  103MOL    H5845142   6.526   2.998   6.157  0.6607 -1.7053  0.6073
  103MOL    H5945143   6.640   3.130   6.145 -0.6527 -0.6418  2.6544
  103MOL    H6045144   6.816   2.994   6.254  1.1894 -2.6230  3.3368
  103MOL    H6145145   6.668   2.959   6.344 -0.0551 -0.4803 -0.2919
  103MOL    H6245146   6.623   2.739   6.225 -1.4021  1.0881 -1.0200
  103MOL    H6345147   6.788   2.750   6.297 -2.1908  0.0244  0.7909
  103MOL    H6445148   6.880   2.818   6.092  0.1609  0.3697  3.5324
  103MOL    H6545149   6.788   2.669   6.059  0.0519 -0.4867  1.8165
  103MOL    H6645150   6.586   2.621   5.862 -0.7434 -1.7652 -0.4395
  103MOL    H6745151   6.751   2.588   5.855 -0.4179 -1.1664  0.3909
  103MOL    C6845152   6.656   2.604   5.660 -0.3359 -0.6133  0.1992
  103MOL    C6945153   6.672   2.456   5.617 -0.5024 -0.2369  0.0568
  103MOL    C7045154   6.813   2.404   5.644  0.5968  0.7147  0.9478
  103MOL    C7145155   6.819   2.261   5.600  0.9932  0.1779 -0.5980
  103MOL    C7245156   6.716   2.177   5.688  0.7279 -1.1297  0.0460
  103MOL    C7345157   6.573   2.219   5.659 -0.1410  0.4156 -0.6613
  103MOL    C7445158   6.554   2.368   5.674 -0.0552  0.4032 -0.0375
  103MOL    C7545159   6.527   2.666   5.606 -0.0679  0.7799 -0.2298
  103MOL    H7645160   6.732   2.655   5.600 -1.2317 -1.1277 -1.4135
  103MOL    H7745161   6.659   2.439   5.510 -1.7454  0.0448  0.1479
  103MOL    H7845162   6.835   2.406   5.751  0.5361 -2.6646  1.0709
  103MOL    H7945163   6.887   2.466   5.594  0.3364 -2.2986 -3.3945
  103MOL    H8045164   6.807   2.262   5.491  2.3738  2.5887 -0.7597
  103MOL    H8145165   6.922   2.235   5.623  0.4633 -1.3111  0.1582
  103MOL    H8245166   6.733   2.205   5.792 -2.3633  1.4788 -0.0791
  103MOL    H8345167   6.738   2.070   5.685  0.8318 -1.1121  0.1732
  103MOL    H8445168   6.497   2.161   5.712 -1.8595  1.8104 -1.5292
  103MOL    H8545169   6.548   2.209   5.553  0.9233  3.3972 -1.2217
  103MOL    H8645170   6.530   2.392   5.778 -2.0759  0.0073 -0.3912
  103MOL    H8745171   6.458   2.387   5.627 -0.1666 -1.0770 -0.4329
  103MOL    H8845172   6.435   2.633   5.655 -0.6346  0.9919 -1.1435
  103MOL    H8945173   6.525   2.774   5.622 -1.4117  0.6883  0.2702
  103MOL    C9045174   6.505   2.631   5.451  0.1831  0.8289 -0.3329
  103MOL    C9145175   6.375   2.700   5.392 -0.2742  0.5455 -0.2418
  103MOL    C9245176   6.246   2.664   5.453 -0.4216 -0.2750 -0.0095
  103MOL    C9345177   6.120   2.711   5.381  0.5461  0.6022  0.1159
  103MOL    C9445178   6.123   2.863   5.354  0.2672 -0.2665  0.0630
  103MOL    C9545179   6.264   2.907   5.298  0.2832 -0.1593  0.0465
  103MOL    C9645180   6.381   2.849   5.378 -0.2236 -0.5910 -0.4951
  103MOL    C9745181   6.637   2.666   5.364 -0.1191 -0.3671 -0.0751
  103MOL    H9845182   6.474   2.526   5.449  0.5731  0.7189 -0.4419
  103MOL    H9945183   6.371   2.655   5.292  0.9144  0.9962 -0.5012
  103MOL   H10045184   6.242   2.701   5.556  0.9632 -2.1084  0.7440
  103MOL   H10145185   6.231   2.556   5.458  0.4437 -0.3694  0.7107
  103MOL   H10245186   6.028   2.700   5.438  1.6299  1.1868  1.9965
  103MOL   H10345187   6.123   2.657   5.286  0.4738 -0.6562  0.8232
  103MOL   H10445188   6.098   2.916   5.445  0.1064 -3.2480  1.8383
  103MOL   H10545189   6.041   2.886   5.287  0.6659 -0.0762 -0.3627
  103MOL   H10645190   6.279   2.893   5.191 -1.3222 -1.7469 -0.0009
  103MOL   H10745191   6.277   3.015   5.307  0.7637 -0.0612 -1.7437
  103MOL   H10845192   6.481   2.872   5.344  1.2632 -3.6940  1.4536
  103MOL   H10945193   6.385   2.901   5.474  0.9822  1.5268 -1.6880
  103MOL   H11045194   6.675   2.762   5.400  0.0950  0.4049 -2.2745
  103MOL   H11145195   6.718   2.597   5.388  2.0248  2.1073  0.0747
  103MOL   C11245196   6.622   2.646   5.207  0.4009  0.0117 -0.8459
  103MOL   C11345197   6.572   2.508   5.154 -0.2701 -0.2806 -0.1585
  103MOL   C11445198   6.659   2.388   5.182 -0.8351 -0.3550 -0.1610
  103MOL   C11545199   6.590   2.259   5.128  0.2795  0.1476  0.4093
  103MOL   C11645200   6.545   2.269   4.987  0.4109  0.2064 -0.3734
  103MOL   C11745201   6.456   2.390   4.966 -0.4918  0.0406  0.2790
  103MOL   C11845202   6.522   2.517   5.007 -0.0706 -0.2946 -0.3767
  103MOL   C11945203   6.748   2.693   5.143 -0.0494  0.0986 -0.1965
  103MOL   H12045204   6.543   2.715   5.177  2.3870  2.8068  0.0955
  103MOL   H12145205   6.476   2.489   5.203 -0.6147 -0.4118 -0.8729
  103MOL   H12245206   6.674   2.377   5.289  0.1628 -0.1463 -0.2806
  103MOL   H12345207   6.756   2.412   5.138 -1.0004  0.8392  0.1016
  103MOL   H12445208   6.660   2.175   5.131  0.5288  0.3976  2.0252
  103MOL   H12545209   6.505   2.230   5.191  2.4693 -3.5562  1.8274
  103MOL   H12645210   6.625   2.265   4.913 -0.2545 -4.2780 -0.9629
  103MOL   H12745211   6.478   2.185   4.968  0.7805 -1.2000  4.1057
  103MOL   H12845212   6.430   2.400   4.860  0.7534 -0.0116 -0.0330
  103MOL   H12945213   6.362   2.380   5.020  0.1129 -0.3877  1.2728
  103MOL   H13045214   6.458   2.606   5.007 -1.5887 -1.2983  2.6882
  103MOL   H13145215   6.613   2.532   4.948  0.2905 -1.7453 -0.1881
  103MOL   H13245216   6.789   2.614   5.080  1.2970 -1.3320  2.3771
  103MOL   H13345217   6.831   2.699   5.214 -0.1275  1.2041 -0.1921
  103MOL   C13445218   6.735   2.822   5.054  0.2423  0.1584 -1.0455
  103MOL   C13545219   6.846   2.829   4.947  0.1472 -0.1275  0.8346
  103MOL   C13645220   6.824   2.724   4.831 -0.1060  0.0235  0.3493
  103MOL   C13745221   6.930   2.731   4.719  0.1941  0.3076  0.2853
  103MOL   C13845222   7.067   2.712   4.772 -0.3055 -0.2369 -0.7988
  103MOL   C13945223   7.099   2.819   4.879  0.4065  0.6244 -0.1124
  103MOL   C14045224   6.995   2.818   4.997 -0.3067  0.4001  0.4567
  103MOL   C14145225   6.727   2.947   5.151  0.3561 -0.5174  0.1780
  103MOL   H14245226   6.638   2.818   5.005 -0.9167 -0.9127  1.3059
  103MOL   H14345227   6.840   2.926   4.898 -0.4327 -0.7609 -0.3787
  103MOL   H14445228   6.816   2.623   4.872 -3.3355  0.3744  0.7623
  103MOL   H14545229   6.725   2.738   4.786 -0.2011 -0.7186  0.3198
  103MOL   H14645230   6.917   2.824   4.663  1.9883 -0.6071 -1.7232
  103MOL   H14745231   6.897   2.654   4.650  1.1572 -0.3223  0.5151
  103MOL   H14845232   7.090   2.612   4.808 -0.1725  0.3537  0.7708
  103MOL   H14945233   7.140   2.731   4.693  2.2421  1.4626  1.8872
  103MOL   H15045234   7.125   2.917   4.839 -1.3125  1.8224  1.6002
  103MOL   H15145235   7.200   2.802   4.915 -0.4229  0.0819  2.0373
  103MOL   H15245236   7.002   2.725   5.055  0.6137 -0.6998 -1.3799
  103MOL   H15345237   7.016   2.902   5.062 -1.1039  0.4347  0.6738
  103MOL   H15445238   6.827   2.967   5.190  1.5119 -0.9390 -2.4313
  103MOL   H15545239   6.665   2.929   5.238 -2.4651  1.2785 -1.4179
  103MOL   C15645240   6.675   3.082   5.088  0.1508 -0.1552 -0.5798
  103MOL   C15745241   6.739   3.215   5.141 -0.3031  0.5485 -0.6248
  103MOL   C15845242   6.727   3.244   5.291  0.6073  0.0228 -0.1412
  103MOL   C15945243   6.778   3.381   5.333  0.7370 -0.0278 -0.6353
  103MOL   C16045244   6.919   3.409   5.285  0.0017 -0.9631  0.1226
  103MOL   C16145245   6.933   3.380   5.135  0.2717  0.7183 -0.1690
  103MOL   C16245246   6.883   3.231   5.103 -0.1202 -0.3053  0.4205
  103MOL   C16345247   6.528   3.088   5.078  0.3304 -0.0173 -0.0419
  103MOL   H16445248   6.717   3.079   4.987 -1.2367  1.0908 -1.2196
  103MOL   H16545249   6.686   3.302   5.103 -1.1598  0.4428  0.2888
  103MOL   H16645250   6.624   3.259   5.323  0.5633 -1.2372  0.3316
  103MOL   H16745251   6.758   3.162   5.356 -0.0659 -0.2105 -0.1096
  103MOL   H16845252   6.717   3.457   5.283 -2.1323 -2.1459 -0.5298
  103MOL   H16945253   6.759   3.385   5.441 -1.1569  0.6644 -0.9589
  103MOL   H17045254   6.982   3.335   5.334 -0.8038 -1.6863  0.1030
  103MOL   H17145255   6.947   3.511   5.307 -2.5786 -0.3664  0.7990
  103MOL   H17245256   7.035   3.400   5.101  0.7677  0.4348  1.1395
  103MOL   H17345257   6.871   3.449   5.077 -1.7117  0.3262  1.4106
  103MOL   H17445258   6.907   3.211   4.999 -0.1265 -0.5219  0.4620
  103MOL   H17545259   6.951   3.162   5.153 -0.0252 -2.7511 -2.9588
  103MOL   H17645260   6.492   3.137   5.169  2.2042  1.8085 -0.2499
  103MOL   H17745261   6.501   2.983   5.079  2.2967 -0.5469  0.8817
  103MOL   C17845262   6.491   3.163   4.940  0.3733  0.4536  0.2987
  103MOL   C17945263   6.503   3.060   4.823 -0.4487 -0.2796 -0.1885
  103MOL   C18045264   6.514   3.127   4.683  0.0625 -0.1548 -0.5787
  103MOL   C18145265   6.527   3.015   4.576  0.1173  0.6350  0.3409
  103MOL   C18245266   6.412   2.918   4.582 -0.5821 -0.1395 -0.0661
  103MOL   C18345267   6.392   2.855   4.729 -0.0784 -1.1213  0.2472
  103MOL   C18445268   6.390   2.956   4.836 -0.7087  0.0053 -0.3608
  103MOL   C18545269   6.351   3.243   4.932  0.2773 -0.2245  0.0487
  103MOL   H18645270   6.564   3.243   4.924  0.1078  0.3572 -1.5608
  103MOL   H18745271   6.593   2.998   4.830  0.2323  0.6485 -0.5357
  103MOL   H18845272   6.431   3.195   4.661  0.3000  0.6408  0.9223
  103MOL   H18945273   6.610   3.179   4.688  0.1724 -0.1524 -2.3843
  103MOL   H19045274   6.616   2.954   4.596  1.5538  2.4706 -0.3067
  103MOL   H19145275   6.538   3.064   4.479 -1.2056 -1.7937 -1.0792
  103MOL   H19245276   6.320   2.958   4.539  0.1444  0.2706 -1.2899
  103MOL   H19345277   6.442   2.844   4.508  2.9326  1.7088 -0.6295
  103MOL   H19445278   6.480   2.791   4.735  2.8151  2.4335 -2.2401
  103MOL   H19545279   6.306   2.788   4.734 -0.9687  0.0244  0.6392
  103MOL   H19645280   6.289   2.995   4.829 -0.8086  0.8671  4.4844
  103MOL   H19745281   6.377   2.901   4.929  2.4256  0.3936  0.3724
  103MOL   H19845282   6.299   3.252   4.837 -1.1501 -1.3056  0.7213
  103MOL   H19945283   6.280   3.183   4.989  0.2968  0.7781  1.1703
  103MOL   C20045284   6.364   3.386   4.989 -0.0876  0.2616  0.3027
  103MOL   C20145285   6.441   3.488   4.905 -0.4205  0.2813  0.0972
  103MOL   C20245286   6.368   3.517   4.771 -0.2879  0.4839 -0.7050
  103MOL   C20345287   6.434   3.632   4.695  0.0423  0.1168 -0.3700
  103MOL   C20445288   6.442   3.756   4.789 -0.9813  0.1860  0.3605
  103MOL   C20545289   6.539   3.734   4.912  0.3205  0.2191  0.2530
  103MOL   C20645290   6.490   3.611   4.986 -0.2534  0.4699  0.2481
  103MOL   C20745291   6.219   3.441   5.023  0.0135 -0.3717 -0.4893
  103MOL   H20845292   6.428   3.389   5.077  1.6617 -0.1233 -0.9224
  103MOL   H20945293   6.533   3.443   4.866 -0.0545 -0.6957  2.0206
  103MOL   H21045294   6.261   3.528   4.787 -0.4614 -2.0439  0.1997
  103MOL   H21145295   6.373   3.437   4.697 -1.4747  0.0660 -0.3384
  103MOL   H21245296   6.529   3.588   4.664 -0.6917 -1.1534 -0.8549
  103MOL   H21345297   6.385   3.658   4.601 -0.2118  0.5422 -0.1187
  103MOL   H21445298   6.470   3.852   4.746  0.4832 -0.1434  0.5609
  103MOL   H21545299   6.342   3.777   4.827 -1.8311 -0.5325 -1.4100
  103MOL   H21645300   6.641   3.721   4.876 -0.4429 -3.0399 -0.8889
  103MOL   H21745301   6.530   3.822   4.975 -0.6279 -0.1772  0.6700
  103MOL   H21845302   6.576   3.580   5.046 -1.3088 -1.7384  0.6573
  103MOL   H21945303   6.413   3.638   5.057  0.0292 -1.7149  1.4362
  103MOL   H22045304   6.214   3.550   5.026 -3.7539 -0.4753 -0.5788
  103MOL   H22145305   6.153   3.409   4.943  1.0651  1.1373 -1.9996
  103MOL   C22245306   6.150   3.385   5.145  0.1352 -0.2527 -0.2280
  103MOL   C22345307   6.239   3.366   5.268 -0.7957 -0.0976 -0.1841
  103MOL   C22445308   6.179   3.284   5.384  0.2091  0.2033  0.5304
  103MOL   C22545309   6.285   3.248   5.486 -0.9014  0.1079 -0.6621
  103MOL   C22645310   6.337   3.376   5.555  0.0253  0.2046 -1.0185
  103MOL   C22745311   6.391   3.478   5.457 -0.4510  0.4342  0.0952
  103MOL   C22845312   6.308   3.496   5.326  0.3068 -0.1416 -0.2304
  103MOL   C22945313   6.030   3.469   5.181  0.7984 -0.4449 -0.5334
  103MOL   H23045314   6.108   3.287   5.120 -0.1147 -0.1356 -0.2708
  103MOL   H23145315   6.316   3.294   5.240 -0.7921 -0.8990  1.8213
  103MOL   H23245316   6.103   3.350   5.427 -0.7168  0.4975 -1.4731
  103MOL   H23345317   6.135   3.190   5.353  2.1536 -1.0378  1.4605
  103MOL   H23445318   6.372   3.194   5.448  0.7872  1.5009  1.1093
  103MOL   H23545319   6.247   3.183   5.566 -0.9746  0.3457 -0.5057
  103MOL   H23645320   6.255   3.416   5.614 -0.8760 -0.6550 -1.6678
  103MOL   H23745321   6.412   3.348   5.629 -1.3909  0.3031  0.4996
  103MOL   H23845322   6.485   3.437   5.421  0.5572  3.4494 -0.7960
  103MOL   H23945323   6.405   3.577   5.501  1.9828  1.0810 -2.0936
  103MOL   H24045324   6.236   3.573   5.355  0.9970  0.5555 -0.3360
  103MOL   H24145325   6.375   3.540   5.253  1.8328 -0.9023  0.6829
  103MOL   H24245326   6.072   3.562   5.217 -1.3228  1.0426 -1.7453
  103MOL   H24345327   5.984   3.426   5.270  2.2898 -0.7504  0.0972
  103MOL   C24445328   5.935   3.496   5.069 -0.3812 -0.1462 -0.8622
  103MOL   C24545329   5.833   3.609   5.121 -0.7675  0.6763 -0.2600
  103MOL   C24645330   5.907   3.744   5.132 -0.4650  0.8245  0.3454
  103MOL   C24745331   5.812   3.858   5.156 -0.3441 -1.1451  0.0305
  103MOL   C24845332   5.728   3.840   5.279 -0.7321 -0.1287 -0.2112
  103MOL   C24945333   5.657   3.701   5.281 -0.1300  0.5057 -0.3060
  103MOL   C25045334   5.745   3.580   5.246  0.1669  0.2510 -0.3804
  103MOL   C25145335   5.858   3.376   5.023 -0.0854 -0.2264 -0.7112
  103MOL   H25245336   5.996   3.531   4.986 -0.2467 -2.1469 -1.6305
  103MOL   H25345337   5.754   3.618   5.047  0.2994  1.2387 -1.3505
  103MOL   H25445338   5.954   3.761   5.035 -0.5736 -1.2121 -0.0955
  103MOL   H25545339   5.979   3.745   5.214  0.5069  2.6154 -0.4839
  103MOL   H25645340   5.864   3.952   5.170 -1.2732 -0.6156 -0.0821
  103MOL   H25745341   5.742   3.869   5.073 -2.1888 -0.9172  1.5963
  103MOL   H25845342   5.796   3.857   5.362 -0.9298  0.8798 -0.2556
  103MOL   H25945343   5.668   3.930   5.283  1.3296  1.3111 -1.0854
  103MOL   H26045344   5.572   3.705   5.212  1.3372  1.8703 -2.1009
  103MOL   H26145345   5.615   3.685   5.380 -2.0326  2.1351 -0.8081
  103MOL   H26245346   5.806   3.556   5.334  0.3988 -1.1997 -0.9222
  103MOL   H26345347   5.687   3.489   5.231 -1.8415  1.3524  0.4960
  103MOL   H26445348   5.750   3.383   5.037 -0.5718 -1.8605 -3.2647
  103MOL   H26545349   5.875   3.297   5.097  0.7271  2.3546  1.9476
  103MOL   C26645350   5.877   3.337   4.871  0.2848  0.6618 -0.4494
  103MOL   C26745351   5.864   3.181   4.845  0.1537 -1.1267 -0.6562
  103MOL   C26845352   5.733   3.114   4.897 -0.3303  0.7089  0.3266
  103MOL   C26945353   5.725   2.961   4.878  0.2236  1.0479  0.4674
  103MOL   C27045354   5.855   2.897   4.938 -0.0263 -0.7700 -0.0009
  103MOL   C27145355   5.984   2.946   4.884 -0.3302 -0.6873  0.2404
  103MOL   C27245356   5.985   3.102   4.905 -0.1396 -0.0519  0.3816
  103MOL   C27345357   5.779   3.431   4.782 -0.4449 -0.3503  0.1318
  103MOL   H27445358   5.976   3.374   4.843  0.6908  1.4245  1.8720
  103MOL   H27545359   5.863   3.180   4.736 -0.8410  2.1222 -0.7109
  103MOL   H27645360   5.740   3.132   5.004  1.0816  0.6195  0.2572
  103MOL   H27745361   5.647   3.165   4.853 -0.3958  1.1392  0.9468
  103MOL   H27845362   5.716   2.929   4.774 -0.6929 -0.4811  1.0064
  103MOL   H27945363   5.636   2.920   4.925  1.1551 -0.4402  0.9601
  103MOL   H28045364   5.849   2.889   5.047 -0.7908 -1.9457 -0.1209
  103MOL   H28145365   5.857   2.792   4.909  0.4790 -0.2745 -1.7945
  103MOL   H28245366   5.985   2.924   4.778 -0.1100  1.2467 -0.1723
  103MOL   H28345367   6.075   2.909   4.931 -0.8524  0.2627  2.0541
  103MOL   H28445368   6.078   3.135   4.860 -0.0907  0.4979  0.8866
  103MOL   H28545369   5.987   3.123   5.012  4.5653  0.5276  0.2686
  103MOL   H28645370   5.793   3.534   4.815  2.6251 -0.1466 -1.5399
  103MOL   H28745371   5.678   3.401   4.810  0.0689 -1.6712  0.5821
  103MOL   C28845372   5.788   3.429   4.631  0.6586  0.2050 -0.0448
  103MOL   C28945373   5.924   3.445   4.568 -0.1729 -0.1900  0.1939
  103MOL   C29045374   5.926   3.383   4.425  0.2320  0.1023  0.1767
  103MOL   C29145375   6.072   3.384   4.367  0.1905  0.4266  0.1989
  103MOL   C29245376   6.110   3.527   4.358 -0.3702  0.0753 -0.0131
  103MOL   C29345377   6.108   3.597   4.498 -0.2958  0.4949  0.4493
  103MOL   C29445378   5.967   3.594   4.558 -0.1693 -0.2793  0.3891
  103MOL   C29545379   5.680   3.521   4.576  0.0063  0.0771  0.4327
  103MOL   H29645380   5.762   3.327   4.600 -0.0703 -0.2468  2.0054
  103MOL   H29745381   5.995   3.390   4.628 -1.0594 -0.8286  0.6742
  103MOL   H29845382   5.894   3.279   4.432 -1.5996  0.7341  1.4676
  103MOL   H29945383   5.856   3.424   4.352  0.3169  0.3371  0.2281
  103MOL   H30045384   6.139   3.320   4.424 -0.0479 -1.3964 -1.5508
  103MOL   H30145385   6.061   3.351   4.264 -0.6917  1.0668  0.0853
  103MOL   H30245386   6.035   3.582   4.302  1.0737  1.5368 -0.5430
  103MOL   H30345387   6.207   3.542   4.309 -0.5476 -1.6414 -0.9159
  103MOL   H30445388   6.136   3.702   4.491  1.0708  0.1244  0.2201
  103MOL   H30545389   6.176   3.550   4.570 -0.8613 -2.2223 -0.7362
  103MOL   H30645390   5.901   3.653   4.494 -0.1659 -0.7911 -0.0881
  103MOL   H30745391   5.963   3.634   4.659  2.4621 -0.8928  0.7807
  103MOL   H30845392   5.690   3.611   4.638 -0.4250 -0.4480  1.2768
  103MOL   H30945393   5.707   3.552   4.475  1.8136  1.6452  1.3602
  103MOL   C31045394   5.529   3.483   4.580 -0.3996 -0.6877  0.3750
  103MOL   C31145395   5.438   3.612   4.599 -0.3261  0.3709  0.3581
  103MOL   C31245396   5.438   3.705   4.476 -0.0184  1.2028  0.9732
  103MOL   C31345397   5.357   3.833   4.498  0.3398 -0.2586  0.1866
  103MOL   C31445398   5.217   3.805   4.566  0.2451  0.6258 -0.6249
  103MOL   C31545399   5.215   3.713   4.692 -0.2260  0.1555  0.0890
  103MOL   C31645400   5.292   3.590   4.639  0.3164 -0.3551  0.5340
  103MOL   C31745401   5.510   3.390   4.454  0.0487 -0.0193  0.6895
  103MOL   H31845402   5.510   3.421   4.667 -0.4690  0.6826  1.3635
  103MOL   H31945403   5.488   3.657   4.685 -0.4425  1.4343 -0.1199
  103MOL   H32045404   5.533   3.729   4.428 -0.3850  1.9370  0.6083
  103MOL   H32145405   5.390   3.654   4.392  1.5947 -0.5140  1.0451
  103MOL   H32245406   5.331   3.864   4.396  1.3565  0.7012  0.2010
  103MOL   H32345407   5.412   3.921   4.534 -2.0486  0.8758  1.1376
  103MOL   H32445408   5.167   3.899   4.589  0.5673  0.0046  2.8700
  103MOL   H32545409   5.150   3.758   4.493 -1.5421  2.3100 -0.0936
  103MOL   H32645410   5.261   3.769   4.773 -1.6631  2.5566 -0.6966
  103MOL   H32745411   5.118   3.684   4.733  0.9515 -1.6544  1.6436
  103MOL   H32845412   5.231   3.539   4.564 -0.3592  1.6643 -0.3168
  103MOL   H32945413   5.298   3.508   4.711  0.9646  0.7862  1.7880
  103MOL   H33045414   5.599   3.328   4.450  0.5478  0.6925  0.6375
  103MOL   H33145415   5.508   3.446   4.360  0.9282  0.5426  1.0007
  103MOL   C33245416   5.376   3.306   4.450  0.0089 -0.5888  0.1932
  103MOL   C33345417   5.357   3.195   4.566  0.8018 -0.2306 -0.8461
  103MOL   C33445418   5.470   3.098   4.560 -0.8419  0.1326 -0.9415
  103MOL   C33545419   5.453   2.999   4.672 -0.4538  0.2597 -0.2183
  103MOL   C33645420   5.316   2.937   4.687  0.4620  0.4615  0.7423
  103MOL   C33745421   5.202   3.044   4.698  0.0746 -0.1700 -0.5332
  103MOL   C33845422   5.213   3.136   4.575  0.0328 -0.2357  0.4857
  103MOL   C33945423   5.348   3.247   4.308 -0.4791  0.1770 -0.3545
  103MOL   H34045424   5.294   3.375   4.470  0.0004 -0.2277 -1.0268
  103MOL   H34145425   5.364   3.266   4.649  0.9437 -0.5082 -0.6223
  103MOL   H34245426   5.467   3.049   4.463 -0.5087 -1.3019 -0.2422
  103MOL   H34345427   5.559   3.160   4.576  0.0573 -1.5220  0.6984
  103MOL   H34445428   5.523   2.921   4.642 -0.5544 -0.1596  0.6081
  103MOL   H34545429   5.489   3.043   4.765  3.3639 -2.3871 -0.3261
  103MOL   H34645430   5.285   2.873   4.604 -1.2154 -0.0560  1.7273
  103MOL   H34745431   5.305   2.890   4.785 -3.1164  2.0547  1.2148
  103MOL   H34845432   5.209   3.116   4.779 -2.5065 -0.2619 -0.1816
  103MOL   H34945433   5.108   2.988   4.694 -0.2414  0.2445  0.9551
  103MOL   H35045434   5.134   3.211   4.585  0.6754  0.6553 -0.9906
  103MOL   H35145435   5.197   3.077   4.485  0.7716  1.6950 -0.9229
  103MOL   H35245436   5.275   3.166   4.318  0.7891 -1.0559 -0.8217
  103MOL   H35345437   5.437   3.198   4.269  0.7791  0.6036  1.8967
  103MOL   C35445438   5.278   3.356   4.219 -1.1794 -0.1170  0.0381
  103MOL   C35545439   5.129   3.379   4.250  0.6024 -0.2856  0.3262
  103MOL   C35645440   5.030   3.281   4.182 -0.9418 -0.3136  0.2416
  103MOL   C35745441   4.888   3.302   4.223  0.5779 -0.4645 -0.0627
  103MOL   C35845442   4.850   3.455   4.210  0.0024 -0.5834 -0.5106
  103MOL   C35945443   4.946   3.552   4.279 -0.4995  0.0424  0.0297
  103MOL   C36045444   5.089   3.524   4.226 -0.2006  0.6886 -0.0313
  103MOL   C36145445   5.303   3.325   4.069 -0.2623 -0.0204  0.5390
  103MOL   H36245446   5.330   3.446   4.250  2.1802 -2.2847  0.9948
  103MOL   H36345447   5.113   3.367   4.357 -2.2016  0.8655  0.0736
  103MOL   H36445448   5.048   3.175   4.200  1.7097  0.2537  1.1178
  103MOL   H36545449   5.037   3.292   4.074 -0.9787 -0.0824  0.2621
  103MOL   H36645450   4.814   3.250   4.162 -0.1468 -0.6747  0.9762
  103MOL   H36745451   4.865   3.264   4.322 -0.8343 -1.1518 -0.6413
  103MOL   H36845452   4.851   3.478   4.104 -0.3246  0.7273 -0.2390
  103MOL   H36945453   4.752   3.467   4.256 -1.3795 -0.9034 -3.2774
  103MOL   H37045454   4.931   3.658   4.258  0.5973  0.0840 -0.5976
  103MOL   H37145455   4.944   3.538   4.387  2.7065  0.2283  0.1805
  103MOL   H37245456   5.162   3.580   4.285 -0.7128  1.8783 -0.5099
  103MOL   H37345457   5.096   3.542   4.119  1.0828 -1.7870 -0.3942
  103MOL   H37445458   5.218   3.373   4.021 -0.9020 -1.5781  0.1207
  103MOL   H37545459   5.287   3.221   4.042 -3.3991  0.3598  0.7809
  103MOL   C37645460   5.427   3.386   4.002  0.4183  0.0052  0.1049
  103MOL   C37745461   5.463   3.315   3.865  0.6201 -0.8945 -1.1567
  103MOL   C37845462   5.351   3.292   3.763  0.2963  0.7570  0.0622
  103MOL   C37945463   5.398   3.225   3.633 -0.5098 -0.8519  1.2265
  103MOL   C38045464   5.469   3.099   3.657  0.5278 -0.0445  0.3770
  103MOL   C38145465   5.580   3.106   3.765 -0.3560  0.1086 -0.7230
  103MOL   C38245466   5.537   3.183   3.897 -0.2397  0.2755  0.0543
  103MOL   C38345467   5.414   3.540   3.995 -0.4926 -0.5064 -0.0213
  103MOL   H38445468   5.512   3.359   4.064  0.8076  0.0441 -0.4045
  103MOL   H38545469   5.535   3.382   3.817  1.0040 -0.1158  0.4695
  103MOL   H38645470   5.282   3.220   3.807  0.7426  0.5547  0.4323
  103MOL   H38745471   5.283   3.377   3.748 -1.9474 -0.8921  0.5398
  103MOL   H38845472   5.455   3.301   3.580  0.3001 -1.3409  1.3903
  103MOL   H38945473   5.302   3.206   3.585 -0.9372  0.3209  1.5831
  103MOL   H39045474   5.396   3.024   3.689 -0.6713  0.9705  0.0929
  103MOL   H39145475   5.507   3.059   3.563 -1.2548  1.0867 -0.8617
  103MOL   H39245476   5.614   3.003   3.779  0.9898  0.6508  0.1936
  103MOL   H39345477   5.671   3.150   3.723 -0.7212  0.4869 -1.1169
  103MOL   H39445478   5.460   3.122   3.945 -0.3163 -1.3059 -2.0235
  103MOL   H39545479   5.620   3.205   3.964 -0.4735  0.4007  0.3072
  103MOL   H39645480   5.374   3.588   4.084 -2.2226 -0.6167 -0.7096
  103MOL   H39745481   5.346   3.567   3.914 -0.7580 -0.1736  0.3090
  103MOL   C39845482   5.536   3.621   3.955  0.2813 -0.0891  0.2818
  103MOL   C39945483   5.514   3.775   3.923 -1.1606 -0.6395  0.5253
  103MOL   C40045484   5.435   3.800   3.785 -0.3433  0.5169  0.2428
  103MOL   C40145485   5.421   3.942   3.751 -0.3479 -0.1711  0.8722
  103MOL   C40245486   5.367   4.037   3.860 -0.6594 -0.2006 -0.2796
  103MOL   C40345487   5.425   3.999   3.999  0.2140  0.4692 -0.5036
  103MOL   C40445488   5.443   3.856   4.027 -0.0349  0.6040 -0.1661
  103MOL   C40545489   5.649   3.598   4.059 -0.4892  0.7627  1.1843
  103MOL   H40645490   5.576   3.577   3.863 -0.7462  1.5155 -0.9614
  103MOL   H40745491   5.608   3.827   3.905 -1.2258 -1.3782 -2.1251
  103MOL   H40845492   5.342   3.744   3.790 -0.5795  0.5839 -2.6588
  103MOL   H40945493   5.483   3.754   3.699 -1.2758 -0.4184  0.2163
  103MOL   H41045494   5.352   3.950   3.667 -0.7716  1.3163  1.3330
  103MOL   H41145495   5.508   3.980   3.699 -0.2735 -3.0480 -1.1845
  103MOL   H41245496   5.259   4.034   3.875 -0.6612 -0.6917 -0.3607
  103MOL   H41345497   5.399   4.140   3.843 -0.7286 -0.6288 -3.2728
  103MOL   H41445498   5.522   4.046   4.014 -0.3980  1.8240 -0.6990
  103MOL   H41545499   5.368   4.043   4.082 -2.0279  1.9447 -2.7526
  103MOL   H41645500   5.473   3.841   4.130  1.6892 -0.2480 -0.7808
  103MOL   H41745501   5.346   3.805   4.031  0.6964 -0.7833 -0.0417
  103MOL   H41845502   5.616   3.664   4.139  2.1251  1.6416  1.5941
  103MOL   H41945503   5.656   3.497   4.100  1.5241  0.4793  0.1878
  103MOL   C42045504   5.789   3.650   4.010 -0.1298 -0.1105  0.8532
  103MOL   C42145505   5.902   3.540   4.025 -0.1867 -0.8018 -0.2343
  103MOL   C42245506   6.042   3.597   4.002  0.1576 -0.4284 -0.8155
  103MOL   C42345507   6.155   3.500   3.997 -0.1266  0.3487  0.0350
  103MOL   C42445508   6.124   3.383   3.906 -0.3021 -0.6101  0.3294
  103MOL   C42545509   5.988   3.316   3.938 -0.2604 -0.3165 -0.4180
  103MOL   C42645510   5.877   3.419   3.933  0.4893  0.5105  0.4069
  103MOL   C42745511   5.821   3.779   4.087  0.6899  0.5279  0.9557
  103MOL   H42845512   5.771   3.671   3.904 -0.9050 -0.6680  0.8712
  103MOL   H42945513   5.889   3.502   4.127 -0.7095  0.0340  0.0142
  103MOL   H43045514   6.049   3.665   3.917  3.3720  2.2598  1.4495
  103MOL   H43145515   6.069   3.663   4.085 -2.2892 -0.0154 -0.3131
  103MOL   H43245516   6.251   3.532   3.957  0.8504 -2.2470  0.2285
  103MOL   H43345517   6.180   3.466   4.097  0.3632  3.3444  0.9870
  103MOL   H43445518   6.202   3.307   3.902  2.1867  1.8410  0.8523
  103MOL   H43545519   6.129   3.425   3.805 -0.3916  0.3747  0.7338
  103MOL   H43645520   5.995   3.260   4.030  0.1962  0.5760  0.1005
  103MOL   H43745521   5.975   3.248   3.854  2.3022  0.8889 -1.8455
  103MOL   H43845522   5.871   3.456   3.831  0.5866 -0.1228  0.1677
  103MOL   H43945523   5.787   3.370   3.970  0.1985 -0.3594 -1.3837
  103MOL   H44045524   5.917   3.830   4.075  0.9074  0.0063  0.4472
  103MOL   H44145525   5.738   3.850   4.088  0.6339  0.4860  0.0048
  103MOL   H44245526   5.831   3.769   4.195  0.1412 -1.0666  0.8597
  104MOL     C145527   7.376   7.059   4.481  0.0221  0.5400 -0.0452
  104MOL     C245528   7.262   7.130   4.560 -0.2403  0.9560  0.0496
  104MOL     C345529   7.321   7.247   4.647 -0.6682 -1.1294 -0.0712
  104MOL     C445530   7.225   7.307   4.748  0.6233  0.7183 -0.2909
  104MOL     C545531   7.145   7.205   4.830  0.1674  0.2700 -0.4409
  104MOL     C645532   7.079   7.100   4.736  0.0206 -0.6037 -0.2926
  104MOL     C745533   7.189   7.032   4.650 -0.4763 -0.0377 -0.5222
  104MOL     C845534   7.336   6.960   4.375 -0.9811  0.0624  0.6396
  104MOL     H945535   7.437   7.134   4.430 -1.2885  0.3302 -1.9743
  104MOL    H1045536   7.196   7.178   4.487 -0.7129  0.0947 -0.0899
  104MOL    H1145537   7.396   7.206   4.715  0.0547  0.2537 -0.0345
  104MOL    H1245538   7.358   7.322   4.577 -1.9577 -0.1908  0.2410
  104MOL    H1345539   7.153   7.372   4.698  2.3180  0.6067 -2.9923
  104MOL    H1445540   7.270   7.367   4.827 -0.1749  2.7297 -1.3110
  104MOL    H1545541   7.072   7.249   4.898  0.6303  0.7996 -0.2784
  104MOL    H1645542   7.216   7.149   4.890 -2.4616 -0.5222  2.0540
  104MOL    H1745543   7.034   7.028   4.804 -0.2224 -0.0455  0.1399
  104MOL    H1845544   6.998   7.139   4.675 -1.4854 -0.0344  2.0176
  104MOL    H1945545   7.139   6.959   4.585  1.1517  0.8256 -2.8015
  104MOL    H2045546   7.266   6.986   4.711 -0.7599 -0.0306 -0.1547
  104MOL    H2145547   7.271   7.016   4.306 -0.5140 -1.3221 -0.9575
  104MOL    H2245548   7.284   6.877   4.422  0.1617 -1.4838 -0.7880
  104MOL    H2345549   7.440   7.008   4.553  0.5840 -0.0643 -0.9557
  104MOL    C2445550   7.447   6.911   4.282 -0.0258 -0.1341 -0.1702
  104MOL    C2545551   7.548   6.816   4.358 -0.6330 -0.1300 -0.6649
  104MOL    C2645552   7.686   6.813   4.280  0.2157 -0.0942  0.6183
  104MOL    C2745553   0.012   6.716   4.337 -0.1761 -0.1666 -0.2320
  104MOL    C2845554   7.723   6.575   4.337 -0.3109  0.2678  0.0997
  104MOL    C2945555   7.599   6.575   4.434 -0.3850 -0.1981  0.6918
  104MOL    C3045556   7.495   6.676   4.385  0.1566 -0.1777  0.2018
  104MOL    C3145557   7.381   6.861   4.150 -0.6643  0.5600  0.1258
  104MOL    H3245558   7.508   6.995   4.247 -0.5291 -0.6891 -2.4495
  104MOL    H3345559   7.579   6.852   4.456  1.7090 -1.2775 -0.9320
  104MOL    H3445560   7.735   6.910   4.287  0.9515 -0.4239  0.1544
  104MOL    H3545561   7.676   6.801   4.172 -0.5123 -2.6749  0.9498
  104MOL    H3645562   0.114   6.724   4.298 -0.1733 -1.4981 -0.5159
  104MOL    H3745563   0.028   6.747   4.440  1.9323 -0.3331 -0.4849
  104MOL    H3845564   0.023   6.514   4.391 -1.7248 -0.9167  0.6777
  104MOL    H3945565   7.704   6.532   4.238  0.1684  0.4356 -0.0654
  104MOL    H4045566   7.549   6.479   4.425 -2.0259  0.6587  0.5835
  104MOL    H4145567   7.624   6.595   4.538 -1.5718 -1.7588  1.2826
  104MOL    H4245568   7.448   6.633   4.297  3.0167 -2.2031 -0.4059
  104MOL    H4345569   7.410   6.683   4.453  1.0310 -1.7867  1.4910
  104MOL    H4445570   7.294   6.803   4.180 -1.0533  1.0155 -0.1237
  104MOL    H4545571   7.457   6.792   4.113 -0.7762  0.0961  0.7585
  104MOL    C4645572   7.343   6.966   4.035 -0.7270  0.3422  0.4318
  104MOL    C4745573   7.242   6.902   3.937  0.4333 -0.5903  0.7390
  104MOL    C4845574   7.103   6.873   4.000  0.2154  0.2827  0.4761
  104MOL    C4945575   7.000   6.804   3.912  0.3327 -0.3328 -0.6495
  104MOL    C5045576   7.062   6.687   3.836  0.1781 -0.2988  0.3873
  104MOL    C5145577   7.199   6.719   3.767 -0.2970 -0.1336  0.3868
  104MOL    C5245578   7.298   6.774   3.872 -0.4776  0.2527 -0.0248
  104MOL    C5345579   7.464   7.039   3.965 -0.1173  0.3321 -0.3435
  104MOL    H5445580   7.290   7.042   4.092 -1.5176 -0.0324  0.1936
  104MOL    H5545581   7.225   6.981   3.863 -0.2601 -0.7343  0.7419
  104MOL    H5645582   7.121   6.809   4.087 -1.0693 -0.5522  0.1485
  104MOL    H5745583   7.063   6.962   4.049 -2.1333  1.6450 -3.6456
  104MOL    H5845584   6.951   6.875   3.845 -0.0830 -0.0674 -0.0739
  104MOL    H5945585   6.927   6.761   3.981  1.9936 -0.0132  1.3666
  104MOL    H6045586   7.090   6.608   3.905  1.6019 -1.1554 -1.1103
  104MOL    H6145587   6.999   6.647   3.756 -0.0248  0.9410 -0.0830
  104MOL    H6245588   7.181   6.788   3.684  0.8017 -1.2168 -0.7736
  104MOL    H6345589   7.243   6.631   3.720  1.5593  1.4734 -0.9554
  104MOL    H6445590   7.317   6.703   3.952 -2.2148 -0.8042 -0.5230
  104MOL    H6545591   7.393   6.807   3.830  0.6129 -0.1980  2.0226
  104MOL    H6645592   7.440   7.069   3.864 -2.1892  0.0133  0.0432
  104MOL    H6745593   7.543   6.966   3.945 -0.1277  0.0899  0.4462
  104MOL    C6845594   7.515   7.166   4.036 -0.0732 -0.2092 -0.3052
  104MOL    C6945595   7.667   7.155   4.067 -0.1933 -0.6226  0.4792
  104MOL    C7045596   7.761   7.191   3.952 -0.1987  0.0038  0.4026
  104MOL    C7145597   0.133   7.196   3.995  0.1643 -0.3130 -0.2434
  104MOL    C7245598   0.154   7.285   4.121 -0.0037  0.5429  0.1496
  104MOL    C7345599   0.076   7.235   4.239  0.8573 -0.0647 -0.2708
  104MOL    C7445600   7.702   7.237   4.193 -0.0535  0.2266 -0.0711
  104MOL    C7545601   7.477   7.297   3.959  0.1516 -0.4117  0.0623
  104MOL    H7645602   7.459   7.168   4.129  0.3201  2.2545 -0.0746
  104MOL    H7745603   7.696   7.054   4.095  0.4946 -0.2966  0.9511
  104MOL    H7845604   7.734   7.288   3.910  0.3227  0.4575  1.1067
  104MOL    H7945605   7.756   7.122   3.868  2.2302  1.2905 -0.8565
  104MOL    H8045606   0.166   7.097   4.028  0.6460 -1.2367 -3.2992
  104MOL    H8145607   0.200   7.229   3.916  0.6113 -1.8461 -0.5156
  104MOL    H8245608   0.132   7.389   4.100 -1.2072  0.2135 -0.2794
  104MOL    H8345609   0.261   7.279   4.142  0.5643  0.8458 -2.4635
  104MOL    H8445610   0.099   7.295   4.327  1.5156  1.6706 -1.5881
  104MOL    H8545611   0.103   7.130   4.251  1.2554  0.4002  3.4616
  104MOL    H8645612   7.670   7.341   4.187 -0.3026  0.1746  0.3444
  104MOL    H8745613   7.646   7.187   4.272 -0.1461  0.6415  0.1226
  104MOL    H8845614   7.522   7.384   4.007 -0.8577 -0.5414  1.2701
  104MOL    H8945615   7.521   7.284   3.860  0.5346 -0.5478  0.2493
  104MOL    C9045616   7.327   7.323   3.942 -0.1627  0.3939  0.4979
  104MOL    C9145617   7.253   7.370   4.075  0.1115  0.7785  0.1200
  104MOL    C9245618   7.293   7.514   4.120 -0.7338 -0.0522 -0.0408
  104MOL    C9345619   7.256   7.542   4.269  0.0107  0.3295  0.1827
  104MOL    C9445620   7.103   7.533   4.279 -0.5971 -0.3781  0.0366
  104MOL    C9545621   7.045   7.399   4.219  1.1069 -0.3542 -0.6627
  104MOL    C9645622   7.100   7.371   4.085  0.0011 -0.5656  0.6363
  104MOL    C9745623   7.304   7.418   3.817 -0.3695  0.8409  0.4015
  104MOL    H9845624   7.291   7.222   3.921  0.2787  0.6634 -1.6685
  104MOL    H9945625   7.290   7.296   4.146  1.2963  0.5721 -0.7057
  104MOL   H10045626   7.258   7.595   4.057 -0.5126 -0.0930 -0.2134
  104MOL   H10145627   7.400   7.529   4.109 -0.6700 -1.1615 -0.9690
  104MOL   H10245628   7.277   7.642   4.305  2.6803 -0.0405 -0.2771
  104MOL   H10345629   7.308   7.485   4.346 -0.3235 -0.0890  0.1059
  104MOL   H10445630   7.052   7.618   4.231  1.5690  0.7442 -0.3583
  104MOL   H10545631   7.070   7.549   4.382 -2.0991  0.9614 -0.6166
  104MOL   H10645632   7.076   7.322   4.290 -0.7834 -0.6704 -0.1436
  104MOL   H10745633   6.936   7.412   4.215  1.1095  0.3100  0.8283
  104MOL   H10845634   7.061   7.274   4.053  0.0063 -1.6358  3.6732
  104MOL   H10945635   7.065   7.447   4.016 -0.0239  0.2594  1.5523
  104MOL   H11045636   7.323   7.518   3.858  2.6877  0.0463  1.0628
  104MOL   H11145637   7.394   7.406   3.757 -0.5156 -1.5445  0.6207
  104MOL   C11245638   7.168   7.411   3.742 -0.1530 -0.0266  0.3501
  104MOL   C11345639   7.169   7.285   3.645  0.1103 -1.0504  0.4642
  104MOL   C11445640   7.275   7.283   3.533 -0.5501  0.0733  0.0027
  104MOL   C11545641   7.268   7.144   3.460  0.2189 -0.1645 -0.2223
  104MOL   C11645642   7.128   7.115   3.404  0.8746 -0.3814 -0.1731
  104MOL   C11745643   7.028   7.098   3.524 -0.4345 -0.3192  0.7906
  104MOL   C11845644   7.025   7.235   3.602 -0.2313  0.2866  0.3815
  104MOL   C11945645   7.148   7.536   3.666  0.7958  0.1992 -0.3174
  104MOL   H12045646   7.087   7.398   3.814 -1.2670  0.6489 -0.7698
  104MOL   H12145647   7.198   7.205   3.713  0.2721 -2.0014 -0.6978
  104MOL   H12245648   7.371   7.304   3.580 -0.5222 -0.6582  0.2778
  104MOL   H12345649   7.264   7.369   3.467  1.3912  0.2530 -0.1167
  104MOL   H12445650   7.342   7.145   3.380  0.6627  1.4397  0.1882
  104MOL   H12545651   7.303   7.066   3.528  0.4260 -1.3361 -1.6545
  104MOL   H12645652   7.091   7.196   3.341 -0.6531 -1.7431 -1.0644
  104MOL   H12745653   7.120   7.023   3.346 -0.6930 -2.4413  3.1859
  104MOL   H12845654   6.927   7.070   3.493 -1.3380 -0.6100  3.8678
  104MOL   H12945655   7.060   7.019   3.592 -0.7592  0.3390  1.7047
  104MOL   H13045656   6.956   7.225   3.686 -0.6792  3.4401  0.4445
  104MOL   H13145657   6.978   7.316   3.547  1.0160  0.2974 -0.6859
  104MOL   H13245658   7.076   7.521   3.586  1.2375 -0.3468 -0.6201
  104MOL   H13345659   7.241   7.564   3.617  0.2901  0.1956 -1.2890
  104MOL   C13445660   7.086   7.657   3.752  0.1086 -0.2279  0.0670
  104MOL   C13545661   6.934   7.636   3.806  0.3786  0.1348 -0.1651
  104MOL   C13645662   6.831   7.662   3.686 -0.0947  0.1572 -0.7860
  104MOL   C13745663   6.682   7.631   3.734 -0.1514 -0.0281  0.0389
  104MOL   C13845664   6.651   7.696   3.867 -0.4309  0.4945 -0.1273
  104MOL   C13945665   6.750   7.665   3.973 -0.0560  0.7189 -0.5384
  104MOL   C14045666   6.890   7.713   3.933 -0.0017 -0.0819  0.0876
  104MOL   C14145667   7.102   0.019   3.685 -0.3201 -0.4562  0.3200
  104MOL   H14245668   7.149   7.665   3.841 -0.3748  0.1680  0.3825
  104MOL   H14345669   6.929   7.530   3.829  2.5373 -0.3873 -1.9654
  104MOL   H14445670   6.831   7.769   3.664 -2.8528 -0.2562 -3.3104
  104MOL   H14545671   6.855   7.592   3.605  2.4626 -0.7372  0.7050
  104MOL   H14645672   6.685   7.523   3.751 -0.2443 -0.2665 -1.4403
  104MOL   H14745673   6.606   7.649   3.659 -0.1594  1.3299  0.3680
  104MOL   H14845674   6.647   0.033   3.870  3.8500  0.7300  1.1032
  104MOL   H14945675   6.558   7.651   3.901 -1.2031  2.0251 -0.1853
  104MOL   H15045676   6.740   7.558   3.988  0.6676  0.4804 -1.6861
  104MOL   H15145677   6.716   7.701   4.070  0.2751 -1.8112  0.5431
  104MOL   H15245678   6.895   0.049   3.927 -1.4865 -0.0764 -1.4165
  104MOL   H15345679   6.959   7.689   4.014  0.3268 -2.2590 -0.8104
  104MOL   H15445680   7.038   0.087   3.742 -1.8008 -0.0765 -1.7323
  104MOL   H15545681   7.049   0.013   3.590  0.2605  0.3846 -0.0485
  104MOL   C15645682   7.242   0.093   3.660 -0.0702 -0.0891  0.1987
  104MOL   C15745683   7.338   0.071   3.776 -0.2445  0.6057  0.2524
  104MOL   C15845684   7.488   0.087   3.735  0.4005 -0.3463  0.0132
  104MOL   C15945685   7.573   0.036   3.852  0.2552 -0.5015 -0.2606
  104MOL   C16045686   7.551   0.121   3.976 -0.1666 -0.9080  0.1297
  104MOL   C16145687   7.406   0.114   4.018 -0.1283  0.1137  0.2909
  104MOL   C16245688   7.308   0.147   3.906  0.7670  0.2478 -0.0660
  104MOL   C16345689   7.218   0.245   3.631 -0.6558  0.6918 -0.1149
  104MOL   H16445690   7.285   0.047   3.571  0.8843  1.3114 -0.0688
  104MOL   H16545691   7.346   7.737   3.796 -0.3492  0.4903 -0.3001
  104MOL   H16645692   7.502   0.033   3.641 -0.0040  0.1875 -0.3630
  104MOL   H16745693   7.507   0.192   3.714  1.8255 -0.7960 -1.0175
  104MOL   H16845694   7.542   7.705   3.870 -0.9281 -0.2828 -0.9462
  104MOL   H16945695   7.676   0.025   3.820  0.4778  1.0082 -0.0797
  104MOL   H17045696   7.579   0.223   3.945 -1.3724 -0.1983  1.3501
  104MOL   H17145697   7.615   0.092   4.059  0.2965 -1.2949 -0.3492
  104MOL   H17245698   7.397   0.190   4.096  2.2504  0.0581  0.6724
  104MOL   H17345699   7.392   0.011   4.052  0.8391 -0.8191 -2.0483
  104MOL   H17445700   7.209   0.125   3.948 -0.5411  2.8344 -1.7065
  104MOL   H17545701   7.319   0.255   3.897 -0.1115  0.4713  1.3539
  104MOL   H17645702   7.312   0.296   3.611  0.3748 -0.6860  1.0518
  104MOL   H17745703   7.176   0.280   3.725 -0.1791  1.2387 -0.1060
  104MOL   C17845704   7.129   0.275   3.509 -0.1098  0.4864 -0.0266
  104MOL   C17945705   7.026   0.393   3.532 -1.2611 -0.5008  0.1033
  104MOL   C18045706   7.101   0.522   3.574  0.4038 -0.5149 -0.8772
  104MOL   C18145707   7.002   0.636   3.605  0.3674  1.0981 -0.4186
  104MOL   C18245708   6.894   0.595   3.701 -0.0934 -0.0717 -0.3501
  104MOL   C18345709   6.813   0.475   3.647  0.5285 -0.2049 -0.0441
  104MOL   C18445710   6.907   0.357   3.631 -0.6433  0.1205 -0.1355
  104MOL   C18545711   7.206   0.284   3.379 -0.3462 -0.4350 -0.4179
  104MOL   H18645712   7.056   0.196   3.489  2.0378 -1.6422  0.3802
  104MOL   H18745713   6.980   0.403   3.434 -0.7816  0.6097 -0.0204
  104MOL   H18845714   7.158   0.507   3.665 -1.0773 -0.1628  0.1155
  104MOL   H18945715   7.184   0.541   3.505  1.7367  0.1414  0.8802
  104MOL   H19045716   6.970   0.671   3.507  0.8366 -0.8807 -1.3071
  104MOL   H19145717   7.059   0.714   3.655  0.3779 -0.8561  2.7999
  104MOL   H19245718   6.947   0.571   3.793 -2.8549  0.2668  1.3771
  104MOL   H19345719   6.822   0.673   3.725 -0.1541 -1.0705  2.9286
  104MOL   H19445720   6.765   0.503   3.553  0.1092  0.1033  0.2590
  104MOL   H19545721   6.731   0.452   3.716  0.0156  2.5199  0.3031
  104MOL   H19645722   6.936   0.340   3.734 -1.1779  0.0039 -0.0030
  104MOL   H19745723   6.851   0.270   3.597 -0.7779  0.1329  0.0539
  104MOL   H19845724   7.271   0.372   3.377 -0.1967 -0.5649 -2.3528
  104MOL   H19945725   7.271   0.196   3.378 -1.0051 -0.9610  1.2909
  104MOL   C20045726   7.137   0.256   3.241  0.1562  0.1540 -0.1965
  104MOL   C20145727   7.190   0.352   3.133  0.1261 -0.0624 -0.0401
  104MOL   C20245728   7.139   0.498   3.150  0.6260  0.2412 -0.0825
  104MOL   C20345729   7.154   0.575   3.019 -0.4379 -0.2737  0.7145
  104MOL   C20445730   7.302   0.575   2.979 -0.1091 -0.1473  0.1335
  104MOL   C20545731   7.364   0.435   2.978 -0.5396  0.8568  0.1442
  104MOL   C20645732   7.336   0.359   3.107 -0.9662  0.5769  0.3978
  104MOL   C20745733   7.133   0.107   3.202  0.4661  0.0815 -0.0285
  104MOL   H20845734   7.035   0.289   3.263  0.8524  0.5626  2.6900
  104MOL   H20945735   7.141   0.332   3.037 -0.2427 -0.3291  0.2013
  104MOL   H21045736   7.201   0.541   3.229  1.1781 -3.5131  1.6622
  104MOL   H21145737   7.040   0.506   3.194  0.0686 -2.1312 -0.8388
  104MOL   H21245738   7.092   0.522   2.946 -0.9211  1.5607 -0.2556
  104MOL   H21345739   7.128   0.681   3.010 -1.0979 -0.3877  1.2551
  104MOL   H21445740   7.308   0.613   2.877 -0.2003  1.1451  0.6066
  104MOL   H21545741   7.350   0.643   3.050  0.3862  1.7886 -1.9951
  104MOL   H21645742   7.312   0.386   2.896 -0.0364  0.5020  0.0362
  104MOL   H21745743   7.468   0.440   2.946  0.5039 -1.2113  2.9906
  104MOL   H21845744   7.379   0.259   3.098 -1.5036  0.4862 -1.2138
  104MOL   H21945745   7.386   0.410   3.190 -1.2672  0.0559  0.8997
  104MOL   H22045746   7.230   0.082   3.158 -0.5827 -1.4918 -1.5442
  104MOL   H22145747   7.138   0.046   3.293 -1.1859 -3.0396 -1.9151
  104MOL   C22245748   7.027   0.058   3.101 -0.3837 -0.3878 -0.1966
  104MOL   C22345749   7.086   7.758   2.978 -0.6823  0.2940  0.0829
  104MOL   C22445750   7.173   7.633   3.009 -0.9113 -0.4425 -0.2266
  104MOL   C22545751   7.204   7.562   2.876  0.3979 -0.1167 -0.4112
  104MOL   C22645752   7.291   7.647   2.790 -0.6474  0.2188  0.8165
  104MOL   C22745753   7.212   0.001   2.751 -0.2066 -0.1909 -0.2120
  104MOL   C22845754   7.155   0.079   2.879  0.2105  0.5165  0.1212
  104MOL   C22945755   6.923   7.758   3.189  0.5129  0.3406  0.5837
  104MOL   H23045756   6.975   0.145   3.061 -0.6493 -0.9342 -1.0567
  104MOL   H23145757   7.001   7.716   2.924  0.6416 -2.7993  0.3043
  104MOL   H23245758   7.263   7.664   3.062 -1.0215 -0.4560 -0.0307
  104MOL   H23345759   7.118   7.571   3.080 -0.9278  2.0501  2.0618
  104MOL   H23445760   7.110   7.523   2.836 -1.0618  0.9825  1.8655
  104MOL   H23545761   7.260   7.471   2.897 -1.5238 -1.4150 -0.7478
  104MOL   H23645762   7.382   7.668   2.845 -0.7497  1.1995  0.6297
  104MOL   H23745763   7.315   7.586   2.703  2.3200 -0.5149  2.0927
  104MOL   H23845764   7.134   7.757   2.677 -1.4565  0.6585  0.8914
  104MOL   H23945765   7.276   0.062   2.688  0.8427 -3.2021 -2.1859
  104MOL   H24045766   7.243   0.126   2.925  0.3241 -0.5423  0.9880
  104MOL   H24145767   7.095   0.163   2.845 -0.6146  0.8637  2.3565
  104MOL   H24245768   6.921   0.020   3.293 -2.0026 -0.2738  0.7653
  104MOL   H24345769   6.951   7.652   3.190 -2.0025 -0.3702  3.0483
  104MOL   C24445770   6.772   7.762   3.130 -0.6231 -0.3476 -0.0355
  104MOL   C24545771   6.702   0.108   3.205 -0.1915 -0.1402  0.5640
  104MOL   C24645772   6.672   0.081   3.351  0.0714 -0.2645  0.3986
  104MOL   C24745773   6.614   0.208   3.411 -0.0822  0.1787 -0.2337
  104MOL   C24845774   6.486   0.270   3.354  0.6338  0.0356  0.1756
  104MOL   C24945775   6.513   0.287   3.202 -0.2885 -0.0685  0.1780
  104MOL   C25045776   6.581   0.167   3.130 -0.8110  0.1191  0.4136
  104MOL   C25145777   6.697   7.629   3.145  0.5434 -0.2135  0.2505
  104MOL   H25245778   6.766   0.016   3.024  2.2962 -0.8549 -0.3761
  104MOL   H25345779   6.774   0.190   3.206 -0.6210  0.3048 -1.9524
  104MOL   H25445780   6.762   0.069   3.411  0.0940 -1.5476  0.1366
  104MOL   H25545781   6.616   7.763   3.379  0.6790 -0.2289  1.7921
  104MOL   H25645782   6.592   0.196   3.517 -1.8779 -1.7301 -0.7990
  104MOL   H25745783   6.681   0.294   3.412  0.1668  0.0729 -3.2521
  104MOL   H25845784   6.403   0.200   3.367  0.6844 -0.0153  0.2197
  104MOL   H25945785   6.465   0.366   3.401  0.2891  1.0045 -1.8916
  104MOL   H26045786   6.570   0.379   3.194  0.0449 -0.2443  0.5231
  104MOL   H26145787   6.416   0.319   3.163 -0.7771  1.1305  2.3206
  104MOL   H26245788   6.500   0.103   3.095 -0.2448  0.6596 -1.9646
  104MOL   H26345789   6.615   0.208   3.035  1.1655  1.1499  1.5100
  104MOL   H26445790   6.589   7.642   3.152  0.6500  0.3517  0.8741
  104MOL   H26545791   6.717   7.586   3.243 -0.6441  0.8727  0.9771
  104MOL   C26645792   6.712   7.523   3.028 -0.7453  0.2102 -0.0665
  104MOL   C26745793   6.687   7.379   3.078  0.3516 -0.7971  0.0779
  104MOL   C26845794   6.548   7.347   3.146  0.3764  0.1781  0.1452
  104MOL   C26945795   6.531   7.201   3.190  0.3367  0.5597  0.0986
  104MOL   C27045796   6.645   7.169   3.275  0.0583  0.2704 -0.0949
  104MOL   C27145797   6.779   7.186   3.200  0.6947 -0.2245  0.1824
  104MOL   C27245798   6.814   7.330   3.159  0.1754  0.0532  0.4071
  104MOL   C27345799   6.620   7.557   2.906 -0.0466 -0.1084 -0.5466
  104MOL   H27445800   6.816   7.520   2.994 -1.3522 -0.1979 -1.9698
  104MOL   H27545801   6.703   7.320   2.988  1.7715  0.0314 -0.2166
  104MOL   H27645802   6.530   7.411   3.232 -1.5693 -0.1141 -0.0189
  104MOL   H27745803   6.462   7.360   3.080  0.6655  0.8989 -0.0894
  104MOL   H27845804   6.524   7.131   3.106 -1.9253 -0.3050  0.9741
  104MOL   H27945805   6.437   7.187   3.244  1.0250 -0.7419  0.9848
  104MOL   H28045806   6.635   7.242   3.356  3.0347 -0.3962  0.9580
  104MOL   H28145807   6.633   7.068   3.315 -2.6695  1.0554  1.1932
  104MOL   H28245808   6.767   7.126   3.110 -0.3218  3.3020 -2.1114
  104MOL   H28345809   6.863   7.145   3.256  2.2384  1.2666 -0.9772
  104MOL   H28445810   6.894   7.339   3.086 -1.5406 -1.7741 -1.7504
  104MOL   H28545811   6.839   7.382   3.252  0.0244 -2.1505  1.7247
  104MOL   H28645812   6.607   7.665   2.900  1.5889  0.1786  0.4899
  104MOL   H28745813   6.521   7.521   2.931  0.9697 -1.1528  2.2055
  104MOL   C28845814   6.660   7.490   2.765  0.4897 -0.5386  0.2407
  104MOL   C28945815   6.785   7.571   2.691  0.3625  0.0683  0.6189
  104MOL   C29045816   6.843   7.474   2.590  0.5183  0.4322 -0.1842
  104MOL   C29145817   6.970   7.529   2.525  0.1803 -0.3921  0.2570
  104MOL   C29245818   6.947   7.667   2.455 -0.0601  0.0063 -0.3809
  104MOL   C29345819   6.870   7.769   2.552  0.4079 -0.1321  0.7264
  104MOL   C29445820   6.747   7.711   2.636  0.5661  0.0749  0.1722
  104MOL   C29545821   6.529   7.471   2.678 -0.6591 -0.0324  0.9900
  104MOL   H29645822   6.700   7.391   2.787 -0.9300 -0.6206  2.6004
  104MOL   H29745823   6.866   7.586   2.763  1.1128  1.1015 -0.4305
  104MOL   H29845824   6.864   7.374   2.629  0.0382  0.8251  1.1068
  104MOL   H29945825   6.772   7.446   2.512 -0.4019  0.5001  0.6191
  104MOL   H30045826   7.045   7.548   2.603 -0.5690  0.2008  0.8459
  104MOL   H30145827   7.021   7.469   2.450  1.8255  0.3882  0.7184
  104MOL   H30245828   6.888   7.650   2.365  0.6648  0.3226 -0.9155
  104MOL   H30345829   7.043   7.714   2.435 -1.3612  2.5916 -0.7283
  104MOL   H30445830   6.835   0.086   2.501  0.5122 -0.2722  0.4115
  104MOL   H30545831   6.944   0.033   2.623  2.1754 -1.9358 -0.1544
  104MOL   H30645832   6.657   7.698   2.576 -0.0648  0.1870  1.0940
  104MOL   H30745833   6.714   7.771   2.720 -0.4060  0.7574 -0.6941
  104MOL   H30845834   6.475   7.564   2.661 -0.0455  0.2387  0.4500
  104MOL   H30945835   6.576   7.457   2.580 -1.2341 -0.9799  0.8470
  104MOL   C31045836   6.443   7.352   2.727 -0.3632 -0.1124 -0.3747
  104MOL   C31145837   6.294   7.403   2.765 -1.0078  0.0035  1.3725
  104MOL   C31245838   6.215   7.458   2.643 -0.1161 -0.5508  0.1232
  104MOL   C31345839   6.073   7.502   2.673  0.4515  0.4502 -0.8874
  104MOL   C31445840   5.997   7.394   2.756 -0.0289 -0.2575  0.9371
  104MOL   C31545841   6.069   7.359   2.886 -0.2476 -0.2209  0.5795
  104MOL   C31645842   6.210   7.302   2.847  0.7827 -0.4351  0.5111
  104MOL   C31745843   6.430   7.242   2.615 -0.4441  0.6506 -1.0634
  104MOL   H31845844   6.481   7.308   2.819  0.5239  0.7958 -0.2997
  104MOL   H31945845   6.310   7.487   2.833  1.4803  3.2219 -2.9033
  104MOL   H32045846   6.267   7.542   2.597 -3.2205  1.7727  0.7275
  104MOL   H32145847   6.212   7.379   2.568  0.4644  1.1827 -1.7963
  104MOL   H32245848   6.021   7.529   2.581  0.2029  4.5001  0.3462
  104MOL   H32345849   6.069   7.596   2.729  1.8431  1.4195 -2.3629
  104MOL   H32445850   5.893   7.426   2.767  0.1960  1.5848 -1.7626
  104MOL   H32545851   5.996   7.310   2.687 -0.8387  1.1008 -0.7545
  104MOL   H32645852   6.068   7.455   2.938 -0.4144 -0.2829  0.6918
  104MOL   H32745853   6.028   7.279   2.947  0.0686  0.5833  1.8604
  104MOL   H32845854   6.207   7.206   2.795  0.1666  0.3456 -0.9233
  104MOL   H32945855   6.261   7.269   2.938  1.2362 -0.9179  0.0850
  104MOL   H33045856   6.437   7.280   2.513  0.7024 -1.1905 -1.6957
  104MOL   H33145857   6.334   7.190   2.624  0.0039 -0.2921 -1.6740
  104MOL   C33245858   6.533   7.130   2.622  0.0795  0.2205  0.2972
  104MOL   C33345859   6.572   7.054   2.493 -0.1682  0.3367  0.1509
  104MOL   C33445860   6.655   7.135   2.390  0.1346 -0.4266  0.6992
  104MOL   C33545861   6.699   7.031   2.279 -0.0694  0.3015 -0.4258
  104MOL   C33645862   6.572   6.978   2.205  0.4477  0.0251 -0.0570
  104MOL   C33745863   6.493   6.896   2.307  0.2471  0.3456 -0.3351
  104MOL   C33845864   6.457   6.986   2.423 -0.6050  0.0071 -0.9214
  104MOL   C33945865   6.491   7.026   2.736 -0.0807  0.1795  0.2963
  104MOL   H34045866   6.623   7.182   2.656  0.4207 -2.1610  3.2221
  104MOL   H34145867   6.637   6.969   2.514  0.6605  0.5588 -1.4847
  104MOL   H34245868   6.598   7.214   2.342  0.5867 -1.7473 -2.1409
  104MOL   H34345869   6.738   7.181   2.443 -1.0571  1.1227  1.2405
  104MOL   H34445870   6.758   7.087   2.207  0.3250 -0.0012 -0.3364
  104MOL   H34545871   6.758   6.947   2.316  1.3666  1.6116  0.3077
  104MOL   H34645872   6.515   7.060   2.163 -1.0036 -0.0583  1.7078
  104MOL   H34745873   6.603   6.923   2.116  0.1890 -1.2894  0.6531
  104MOL   H34845874   6.554   6.809   2.332  0.3096 -0.3142 -2.6862
  104MOL   H34945875   6.404   6.853   2.262 -0.9047  0.0589  2.1198
  104MOL   H35045876   6.405   6.923   2.495  0.7621  0.3144  0.3478
  104MOL   H35145877   6.375   7.053   2.395 -0.0327  0.6276 -1.1222
  104MOL   H35245878   6.395   6.983   2.706 -0.3973  0.8825  0.2853
  104MOL   H35345879   6.482   7.098   2.818 -0.9051 -1.1232  1.3799
  104MOL   C35445880   6.595   6.914   2.777 -0.0235 -0.1366 -0.1199
  104MOL   C35545881   6.534   6.809   2.880  0.4712  0.4584  0.2122
  104MOL   C35645882   6.401   6.740   2.838 -0.1489 -0.3236  0.9008
  104MOL   C35745883   6.345   6.626   2.924  0.0160 -0.2963  1.0667
  104MOL   C35845884   6.335   6.675   3.072  0.2504  0.1776  0.4762
  104MOL   C35945885   6.463   6.754   3.115  0.4091 -0.1111 -0.1034
  104MOL   C36045886   6.513   6.866   3.021 -0.1924  0.7457 -0.5169
  104MOL   C36145887   6.720   6.976   2.828 -0.8579 -0.3806  0.0005
  104MOL   H36245888   6.624   6.870   2.681  2.4896  1.6351 -0.2374
  104MOL   H36345889   6.606   6.728   2.882  0.9879  0.9253  1.8733
  104MOL   H36445890   6.384   6.716   2.733 -0.8128 -0.2005  0.9774
  104MOL   H36545891   6.324   6.813   2.864 -2.2241 -1.8442 -0.7187
  104MOL   H36645892   6.248   6.599   2.884  0.2917 -0.5289  0.5515
  104MOL   H36745893   6.399   6.532   2.924  0.8271  0.1634  0.9075
  104MOL   H36845894   6.245   6.736   3.079  0.3830  0.2060  2.1496
  104MOL   H36945895   6.303   6.593   3.137  1.3594 -0.5161  0.1684
  104MOL   H37045896   6.447   6.804   3.211 -2.2213  0.7698 -0.9561
  104MOL   H37145897   6.543   6.680   3.120 -1.0178 -1.6778  0.0849
  104MOL   H37245898   6.608   6.903   3.060  0.7674 -0.4283 -1.6800
  104MOL   H37345899   6.457   6.959   3.023  0.3208  1.0624 -0.7379
  104MOL   H37445900   6.701   7.032   2.919 -0.3885  1.8505 -1.2326
  104MOL   H37545901   6.739   7.052   2.751 -2.0075 -0.6469 -0.5522
  104MOL   C37645902   6.852   6.890   2.840  0.4541 -0.5324 -0.2789
  104MOL   C37745903   6.973   6.979   2.809 -0.2848 -0.0033  0.6635
  104MOL   C37845904   6.970   7.107   2.896 -0.6501 -0.0609 -0.1434
  104MOL   C37945905   7.102   7.178   2.886 -0.3383 -0.1902 -0.5867
  104MOL   C38045906   7.127   7.231   2.751  0.6012  0.2931  0.2244
  104MOL   C38145907   7.122   7.121   2.647 -0.3019 -0.1219  0.6364
  104MOL   C38245908   6.994   7.033   2.667 -0.0984 -0.1183  0.5942
  104MOL   C38345909   6.856   6.814   2.975 -0.0255 -0.0039 -0.7325
  104MOL   H38445910   6.850   6.805   2.771  0.4507 -1.1249  0.4417
  104MOL   H38545911   7.065   6.922   2.826 -1.1933 -1.2589  1.4578
  104MOL   H38645912   6.881   7.165   2.871 -1.9275 -1.9046  0.0428
  104MOL   H38745913   6.962   7.075   3.000  1.9432  1.7400  0.6375
  104MOL   H38845914   7.186   7.108   2.895  0.8377  1.0451 -1.7235
  104MOL   H38945915   7.118   7.246   2.970 -1.5227 -1.6274  0.8302
  104MOL   H39045916   7.059   7.313   2.728 -0.4024 -0.6538 -0.2443
  104MOL   H39145917   7.227   7.275   2.749  2.1851 -3.2313 -0.2970
  104MOL   H39245918   7.120   7.154   2.543 -0.0667 -1.0572  0.3327
  104MOL   H39345919   7.207   7.054   2.661  0.7232  0.9985 -0.0626
  104MOL   H39445920   6.914   7.086   2.617 -0.7147 -1.3182  0.2801
  104MOL   H39545921   7.014   6.943   2.608  1.2053  0.8804 -0.5174
  104MOL   H39645922   6.766   6.754   2.987  1.5301 -1.9517  1.8191
  104MOL   H39745923   6.851   6.893   3.050  0.4282  1.5131 -2.2567
  104MOL   C39845924   6.976   6.717   3.016  0.1780 -0.1217  0.5888
  104MOL   C39945925   6.979   6.678   3.167 -0.6481 -0.0015  0.0281
  104MOL   C40045926   7.036   6.797   3.251 -0.2120  0.6902  0.1574
  104MOL   C40145927   7.040   6.759   3.396 -0.2918 -0.0475  0.0322
  104MOL   C40245928   6.901   6.723   3.447  0.9463 -0.3588  0.2655
  104MOL   C40345929   6.842   6.601   3.367 -0.2266  0.0114 -0.1043
  104MOL   C40445930   6.839   6.627   3.216  0.6818 -0.5116 -0.5877
  104MOL   C40545931   6.975   6.602   2.916  0.2104  0.3091 -0.1131
  104MOL   H40645932   7.069   6.769   2.995  0.1730 -0.9270 -1.4788
  104MOL   H40745933   7.046   6.594   3.188 -0.6394 -0.1881 -0.7088
  104MOL   H40845934   6.980   6.888   3.229  0.7799  0.5357 -3.2442
  104MOL   H40945935   7.135   6.821   3.213  0.1814  1.5549  1.6452
  104MOL   H41045936   7.078   6.845   3.451  2.1694 -0.9476 -0.1996
  104MOL   H41145937   7.107   6.679   3.430  0.9948  0.5054 -1.1877
  104MOL   H41245938   6.852   6.818   3.425  2.3298  0.6409  1.3624
  104MOL   H41345939   6.904   6.695   3.552  0.8344  2.7405  1.1472
  104MOL   H41445940   6.912   6.519   3.380 -0.1183  0.3266  1.4026
  104MOL   H41545941   6.744   6.570   3.404 -0.8568  1.9498 -0.0926
  104MOL   H41645942   6.803   6.543   3.157 -0.1033 -0.8434  0.3474
  104MOL   H41745943   6.769   6.710   3.203  2.3038  0.3538 -4.8632
  104MOL   H41845944   6.882   6.546   2.924  0.9591 -0.5385  3.1170
  104MOL   H41945945   6.966   6.632   2.811  1.2649 -0.9348 -0.5747
  104MOL   C42045946   7.106   6.516   2.927 -0.6551  0.1789  0.8661
  104MOL   C42145947   7.186   6.508   2.800 -0.6915  1.0942 -0.0651
  104MOL   C42245948   7.322   6.431   2.818  0.0275  0.3229  0.1069
  104MOL   C42345949   7.417   6.429   2.694  0.3305  0.3938 -0.4693
  104MOL   C42445950   7.456   6.569   2.658  0.6182  0.1975 -0.1108
  104MOL   C42545951   7.319   6.632   2.617 -0.9167  0.1231 -0.1192
  104MOL   C42645952   7.223   6.644   2.739  0.0267  0.2511 -0.2325
  104MOL   C42745953   7.065   6.382   2.978  0.0812 -0.0458  0.3823
  104MOL   H42845954   7.176   6.566   2.994  0.9788 -0.2812 -0.4599
  104MOL   H42945955   7.126   6.459   2.724  0.7404  0.3982 -0.7760
  104MOL   H43045956   7.371   6.465   2.909  1.3934  0.4282 -0.6515
  104MOL   H43145957   7.294   6.327   2.836  0.1787  0.3876  0.7236
  104MOL   H43245958   7.503   6.365   2.711 -0.3224 -0.6629 -1.0991
  104MOL   H43345959   7.371   6.376   2.611  0.2366 -0.4706  0.1301
  104MOL   H43445960   7.527   6.574   2.576  0.3761  0.3422 -0.3124
  104MOL   H43545961   7.490   6.611   2.752  0.7838  1.4272 -0.7125
  104MOL   H43645962   7.281   6.589   2.525 -1.4643 -0.2897  0.2996
  104MOL   H43745963   7.338   6.737   2.592  2.6667  0.0525  1.9011
  104MOL   H43845964   7.254   6.715   2.816 -3.2792  3.0905 -1.3823
  104MOL   H43945965   7.135   6.695   2.700 -0.6239 -0.3983  0.3860
  104MOL   H44045966   7.019   6.316   2.904  0.8999 -0.1639 -0.0304
  104MOL   H44145967   7.149   6.321   3.013  1.0826  1.1720  0.1248
  104MOL   H44245968   7.010   6.391   3.071  1.4909  2.5070  0.9853
  105MOL     C145969   0.089   7.647   2.961 -0.8081  0.3429 -0.7605
  105MOL     C245970   0.116   0.020   3.003  0.1840  0.3532 -0.5183
  105MOL     C345971   0.240   0.021   3.087 -0.3262 -0.4090  0.0997
  105MOL     C445972   0.262   0.152   3.170  0.6522 -0.0771  0.2315
  105MOL     C545973   0.141   0.211   3.241 -0.1992 -0.2040 -0.8806
  105MOL     C645974   0.022   0.223   3.138 -0.4638  0.0513  0.3558
  105MOL     C745975   7.766   0.084   3.078  0.3772 -0.3843 -0.9714
  105MOL     C845976   7.756   7.638   2.845  0.0807  0.2513  0.2369
  105MOL     H945977   0.178   7.586   2.951 -1.2974 -0.5886  0.4894
  105MOL    H1045978   0.146   0.084   2.920  3.9592  1.5261  1.6127
  105MOL    H1145979   0.234   7.713   3.161  0.1204 -1.8435 -1.3767
  105MOL    H1245980   0.333   7.761   3.039  1.1749 -1.5205  3.6173
  105MOL    H1345981   0.306   0.224   3.102  1.8813  0.0679  1.1654
  105MOL    H1445982   0.339   0.128   3.243 -1.5699 -3.5508  1.5348
  105MOL    H1545983   0.160   0.310   3.284  3.0469 -0.9530 -0.4318
  105MOL    H1645984   0.103   0.147   3.321  0.7245  1.8157  1.2238
  105MOL    H1745985   7.717   0.258   3.207 -0.4197  0.2387  0.3120
  105MOL    H1845986   0.046   0.287   3.053  0.6510  1.2692  1.5665
  105MOL    H1945987   7.670   0.080   3.026 -0.5933  0.3749  0.7229
  105MOL    H2045988   7.744   0.014   3.159 -0.0936 -0.3364 -1.0561
  105MOL    H2145989   0.021   7.709   2.771  1.1865 -1.7091 -1.1410
  105MOL    H2245990   7.659   7.678   2.874 -0.5397  1.5684 -3.4477
  105MOL    H2345991   0.048   7.597   3.049  2.4381 -0.3192  0.4193
  105MOL    C2445992   7.743   7.499   2.780 -0.2321 -0.0353  0.3169
  105MOL    C2545993   7.686   7.397   2.887 -0.6897 -0.6073  0.5315
  105MOL    C2645994   7.690   7.251   2.836  0.5836  0.9155  0.1893
  105MOL    C2745995   7.648   7.157   2.948  0.2275  0.2057 -0.8362
  105MOL    C2845996   7.499   7.188   2.986  0.1377  0.6047 -0.5699
  105MOL    C2945997   7.490   7.327   3.043  0.6486  0.2674  0.3446
  105MOL    C3045998   7.541   7.427   2.943  0.2850 -0.7384 -0.0516
  105MOL    C3145999   7.655   7.512   2.651 -0.1813  0.2735 -0.1925
  105MOL    H3246000   0.072   7.474   2.750  0.2899 -1.3618  3.0833
  105MOL    H3346001   7.759   7.407   2.967  0.5897 -0.2454 -0.6576
  105MOL    H3446002   0.018   7.224   2.804  1.5710  1.9198  2.2840
  105MOL    H3546003   7.618   7.241   2.755  0.5869  0.3878  0.2495
  105MOL    H3646004   7.648   7.054   2.914  2.2733  0.3609 -1.3865
  105MOL    H3746005   7.726   7.154   3.025 -1.6296 -1.5098  1.0465
  105MOL    H3846006   7.472   7.108   3.055 -0.4633  1.2364 -0.0638
  105MOL    H3946007   7.439   7.173   2.896  1.4521 -0.2626 -1.3162
  105MOL    H4046008   7.389   7.354   3.074  0.0792 -2.2180  0.7582
  105MOL    H4146009   7.553   7.336   3.132  0.1981  2.0365  0.5032
  105MOL    H4246010   7.476   7.430   2.856  0.0796  0.9969  0.1403
  105MOL    H4346011   7.546   7.521   2.999  2.0287 -1.1848  0.5433
  105MOL    H4446012   7.562   7.555   2.689  1.3947  1.4213  2.4909
  105MOL    H4546013   7.627   7.410   2.624 -0.0231 -0.4015  2.0827
  105MOL    C4646014   7.720   7.585   2.528 -0.0103 -0.5816  0.6139
  105MOL    C4746015   7.606   7.645   2.448  0.5447  0.0058  0.4702
  105MOL    C4846016   7.535   7.768   2.512  0.1607 -0.0271 -0.4387
  105MOL    C4946017   7.419   0.049   2.423  0.0256 -0.2727 -0.3630
  105MOL    C5046018   7.321   7.711   2.384 -0.4403 -0.1168  0.4246
  105MOL    C5146019   7.390   7.596   2.315 -0.1355  0.0105  0.1264
  105MOL    C5246020   7.499   7.537   2.408  0.0463 -0.1156  0.1269
  105MOL    C5346021   0.044   7.492   2.454 -0.1958 -0.0725 -0.3461
  105MOL    H5446022   0.003   7.673   2.561  0.8308 -0.8306 -0.1105
  105MOL    H5546023   7.644   7.684   2.354 -1.1146 -0.1517 -0.2861
  105MOL    H5646024   7.505   7.749   2.616 -0.5557 -0.4135 -0.7087
  105MOL    H5746025   7.601   0.080   2.532  0.9890 -0.5154 -1.1307
  105MOL    H5846026   7.459   0.097   2.334 -3.1343  0.9441 -1.2060
  105MOL    H5946027   7.368   0.132   2.472  1.4027  0.6348 -0.4641
  105MOL    H6046028   7.279   7.663   2.472 -0.4485 -1.6675 -0.4008
  105MOL    H6146029   7.236   7.743   2.323 -1.9217 -4.4586  0.0933
  105MOL    H6246030   7.429   7.623   2.217  1.7804 -2.4398  0.1635
  105MOL    H6346031   7.315   7.521   2.289 -0.0545  0.4471 -1.4389
  105MOL    H6446032   7.450   7.505   2.500  0.5581 -1.0579  0.0720
  105MOL    H6546033   7.539   7.445   2.365  2.0323 -0.1561  1.9816
  105MOL    H6646034   7.754   7.420   2.402 -0.0450 -1.2247  1.0462
  105MOL    H6746035   0.090   7.433   2.534  1.8235  2.6102  0.5649
  105MOL    C6846036   0.154   7.567   2.363 -0.1519 -0.1252  0.1593
  105MOL    C6946037   0.267   7.639   2.441 -0.7472  0.4647 -0.4692
  105MOL    C7046038   0.380   7.547   2.486 -0.0397  0.1133  0.8823
  105MOL    C7146039   0.481   7.631   2.564  0.6104 -0.6517 -0.3134
  105MOL    C7246040   0.542   7.745   2.476 -0.1401 -0.3303  0.4154
  105MOL    C7346041   0.433   0.064   2.428 -0.2875  0.9799  0.0945
  105MOL    C7446042   0.319   7.764   2.362 -0.2819  0.3256  0.3757
  105MOL    C7546043   0.193   7.501   2.223 -1.1287  0.8029  0.0087
  105MOL    H7646044   0.105   7.661   2.340  0.1362  0.2869  1.2223
  105MOL    H7746045   0.227   7.686   2.531 -2.5976  1.3442 -1.7342
  105MOL    H7846046   0.420   7.495   2.399  0.4907  0.1555  1.0981
  105MOL    H7946047   0.354   7.464   2.552  1.0016  0.0485  1.2158
  105MOL    H8046048   0.435   7.668   2.655  0.9049 -0.0758 -0.3953
  105MOL    H8146049   0.560   7.564   2.600 -0.7959 -0.5070  3.1941
  105MOL    H8246050   0.594   7.705   2.389 -0.6229  0.2634 -0.1549
  105MOL    H8346051   0.608   0.038   2.533 -0.5771  0.8152 -0.3603
  105MOL    H8446052   0.463   0.142   2.359 -1.8800  1.1848 -0.3783
  105MOL    H8546053   0.398   0.119   2.516  1.3154 -0.9896  2.0371
  105MOL    H8646054   0.343   7.741   2.258 -3.2325 -1.2860 -0.0141
  105MOL    H8746055   0.240   0.067   2.361 -0.2361  0.4020 -2.3938
  105MOL    H8846056   0.275   7.556   2.179 -0.4730  0.5012  0.8479
  105MOL    H8946057   0.232   7.405   2.257  1.9207  1.7237 -0.7388
  105MOL    C9046058   0.090   7.489   2.102 -0.0718 -0.1156 -0.0973
  105MOL    C9146059   0.039   7.626   2.054 -0.4223  0.3678 -0.5421
  105MOL    C9246060   0.141   7.696   1.965  0.2474 -0.3169  0.4245
  105MOL    C9346061   0.086   0.064   1.915 -0.3657 -0.1996 -0.3869
  105MOL    C9446062   7.717   0.047   1.856  0.0971  0.4657 -0.3801
  105MOL    C9546063   7.621   7.758   1.953  0.1296  0.8683 -0.1429
  105MOL    C9646064   7.671   7.617   1.993 -0.1636  0.8334 -0.1972
  105MOL    C9746065   0.130   7.389   1.985 -0.1124  0.4602  0.0578
  105MOL    H9846066   0.009   7.440   2.156  0.8785 -1.6649 -0.0430
  105MOL    H9946067   0.035   7.699   2.135  0.5455 -0.7311  0.5215
  105MOL   H10046068   0.192   7.635   1.891  3.7152  0.6301  1.9148
  105MOL   H10146069   0.224   7.719   2.032 -0.6123  1.0717  1.0416
  105MOL   H10246070   0.148   0.100   1.833  0.3827  1.6704  0.9595
  105MOL   H10346071   0.081   0.137   1.996  0.3367  0.0849 -0.5900
  105MOL   H10446072   7.720   7.759   1.765 -1.0943 -0.8636  0.4503
  105MOL   H10546073   7.674   0.141   1.821 -1.8334 -0.8029 -1.4622
  105MOL   H10646074   7.620   0.043   2.046 -2.6689  2.1549 -0.9099
  105MOL   H10746075   7.521   7.750   1.912 -0.1460  1.9592  0.2989
  105MOL   H10846076   7.596   7.573   2.060 -1.1182 -0.3066 -1.9706
  105MOL   H10946077   7.672   7.555   1.903 -1.2597  0.5832 -0.0541
  105MOL   H11046078   0.070   7.397   1.894  2.5352  0.7157 -1.7287
  105MOL   H11146079   0.234   7.410   1.960  0.1534 -1.9906 -1.0355
  105MOL   C11246080   0.108   7.238   2.021  0.8992 -0.0820 -0.1704
  105MOL   C11346081   0.218   7.136   1.979 -0.2217  0.4889  0.2346
  105MOL   C11446082   0.348   7.148   2.067 -0.1174  0.1413  0.3577
  105MOL   C11546083   0.463   7.056   2.025 -0.6105 -1.0881 -0.0020
  105MOL   C11646084   0.497   7.095   1.883 -0.7484 -0.4967  0.7477
  105MOL   C11746085   0.383   7.062   1.793  0.0820 -0.2623 -0.0108
  105MOL   C11846086   0.263   7.150   1.825 -0.1494  0.6524 -0.4635
  105MOL   C11946087   7.734   7.185   1.977  0.0129 -0.1531  0.8694
  105MOL   H12046088   0.112   7.235   2.130  1.4553  0.5098 -0.1755
  105MOL   H12146089   0.167   7.041   1.993  0.8789  0.0067  1.1623
  105MOL   H12246090   0.324   7.121   2.170  0.6320 -2.6205 -0.1661
  105MOL   H12346091   0.382   7.251   2.068  3.1027 -0.8661 -0.3809
  105MOL   H12446092   0.547   7.080   2.090 -0.2895 -0.8562 -0.5034
  105MOL   H12546093   0.449   6.948   2.028  1.5590 -1.4520 -1.9724
  105MOL   H12646094   0.528   7.198   1.869  2.1609 -1.3422  0.5989
  105MOL   H12746095   0.592   7.046   1.862 -0.2046  0.8152  0.1288
  105MOL   H12846096   0.409   7.068   1.688  0.0855 -0.2244 -0.0078
  105MOL   H12946097   0.349   6.959   1.802  2.4137 -1.0459 -0.0006
  105MOL   H13046098   0.182   7.131   1.754 -2.4051 -0.8288  2.4079
  105MOL   H13146099   0.307   7.247   1.801  1.3335 -0.4128 -2.1453
  105MOL   H13246100   7.733   7.081   1.944  0.6718  0.1304 -0.0456
  105MOL   H13346101   7.723   7.241   1.884  0.8143 -0.4472  0.5900
  105MOL   C13446102   7.620   7.219   2.082  0.3828  1.1008  0.0498
  105MOL   C13546103   7.600   7.113   2.202 -0.6432 -0.0647 -0.7074
  105MOL   C13646104   7.538   7.172   2.327 -0.0161  0.7301 -0.6066
  105MOL   C13746105   7.498   7.060   2.432  0.0988  0.1014  0.2486
  105MOL   C13846106   7.624   6.979   2.468  1.0890  0.7796 -0.1369
  105MOL   C13946107   7.708   6.924   2.347  0.3841 -0.3578 -0.7880
  105MOL   C14046108   7.722   7.037   2.249  0.2903 -0.1205  1.2933
  105MOL   C14146109   7.498   7.271   2.001 -0.2782 -0.4006 -0.2197
  105MOL   H14246110   7.638   7.310   2.139  2.2484 -0.6092  2.2695
  105MOL   H14346111   7.529   7.044   2.158 -1.0975 -0.5466  0.7661
  105MOL   H14446112   7.598   7.249   2.376  1.8147 -0.7414 -0.4746
  105MOL   H14546113   7.449   7.218   2.285  0.0536  1.4165 -0.0262
  105MOL   H14646114   7.426   6.995   2.382 -0.7039  2.7837 -2.2029
  105MOL   H14746115   7.451   7.098   2.522  0.9566  0.6310  0.4789
  105MOL   H14846116   7.694   7.029   2.534 -1.1477  1.2344  1.9423
  105MOL   H14946117   7.590   6.891   2.523 -0.2176  0.5080 -1.3224
  105MOL   H15046118   7.656   6.837   2.306  0.2418 -0.7344  0.1772
  105MOL   H15146119   0.030   6.889   2.388 -0.5037 -1.9078 -0.0017
  105MOL   H15246120   0.019   7.109   2.294  0.9436  0.2786 -0.3189
  105MOL   H15346121   0.004   7.011   2.157 -0.1126  0.9548  0.7516
  105MOL   H15446122   7.542   7.347   1.936  1.1830  0.1215  1.3611
  105MOL   H15546123   7.436   7.329   2.070  0.5274 -2.6318  2.4665
  105MOL   C15646124   7.411   7.171   1.921 -0.3879  0.0162  0.0457
  105MOL   C15746125   7.345   7.247   1.801 -0.4655  0.2135  0.5685
  105MOL   C15846126   7.279   7.379   1.837  0.3114  0.5260 -0.2085
  105MOL   C15946127   7.200   7.441   1.718  0.0276  0.4530  0.7589
  105MOL   C16046128   7.294   7.453   1.591  0.2574  0.3045 -0.0953
  105MOL   C16146129   7.362   7.318   1.569 -0.6924  0.3896  0.4514
  105MOL   C16246130   7.441   7.258   1.684 -0.6091 -0.3656  0.4693
  105MOL   C16346131   7.306   7.095   2.016 -0.1893 -0.8933 -0.6662
  105MOL   H16446132   7.482   7.095   1.888 -0.4417 -1.1910  2.5756
  105MOL   H16546133   7.274   7.173   1.764 -0.5510 -0.1764  1.5124
  105MOL   H16646134   7.214   7.379   1.924 -1.7139  1.2594 -1.6745
  105MOL   H16746135   7.360   7.446   1.865  1.2662 -0.2664 -1.0233
  105MOL   H16846136   7.121   7.374   1.685 -1.3422  1.7188  1.3928
  105MOL   H16946137   7.151   7.528   1.763 -1.3680  0.4695 -0.7826
  105MOL   H17046138   7.371   7.526   1.614 -0.3060  0.3272  1.8191
  105MOL   H17146139   7.232   7.487   1.508 -0.8714  0.8454  0.9421
  105MOL   H17246140   7.433   7.331   1.487 -1.3474  1.6915  0.0697
  105MOL   H17346141   7.285   7.248   1.534 -1.0212  1.1440 -0.3725
  105MOL   H17446142   7.479   7.161   1.654 -1.4266 -0.4166 -0.4307
  105MOL   H17546143   7.516   7.335   1.703  1.8830 -2.2837 -1.1936
  105MOL   H17646144   7.209   7.143   2.009  0.3661  0.7567  2.1424
  105MOL   H17746145   7.336   7.124   2.117 -0.1199 -2.7625 -0.1266
  105MOL   C17846146   7.295   6.942   1.991 -0.1795  0.1639  0.0286
  105MOL   C17946147   7.243   6.872   2.118 -0.1829  0.3620  0.1202
  105MOL   C18046148   7.255   6.718   2.118 -0.6357  0.1338  0.1773
  105MOL   C18146149   7.235   6.667   2.260 -0.4160  0.0438 -0.5934
  105MOL   C18246150   7.102   6.706   2.320 -0.3648  0.3795 -0.2125
  105MOL   C18346151   7.072   6.856   2.316 -0.4142 -0.1055 -0.1700
  105MOL   C18446152   7.098   6.915   2.176 -0.0661  0.3068  0.2344
  105MOL   C18546153   7.208   6.907   1.870 -0.2064 -0.3409  0.4709
  105MOL   H18646154   7.395   6.902   1.981 -0.0848  0.3186  0.3531
  105MOL   H18746155   7.318   6.900   2.193 -1.0865  2.1154  0.3952
  105MOL   H18846156   7.178   6.668   2.059 -0.9735 -0.0484  0.7724
  105MOL   H18946157   7.352   6.697   2.073 -1.4419  0.0988 -1.6050
  105MOL   H19046158   7.324   6.696   2.316 -1.4091  0.1826  0.9351
  105MOL   H19146159   7.234   6.559   2.263 -2.1512  0.0245 -1.3394
  105MOL   H19246160   7.019   6.645   2.285 -1.5681  2.1240 -0.4601
  105MOL   H19346161   7.093   6.671   2.423  2.4740  0.2475  0.0311
  105MOL   H19446162   7.147   6.906   2.379 -1.6661  0.7766  0.6490
  105MOL   H19546163   6.976   6.896   2.348 -0.5183  1.1813 -2.0404
  105MOL   H19646164   7.019   6.885   2.107 -0.3890  1.5807  0.0407
  105MOL   H19746165   7.090   7.023   2.178  0.1370  0.3869 -2.0195
  105MOL   H19846166   7.101   6.884   1.877 -0.5026  0.3170 -1.3599
  105MOL   H19946167   7.199   6.994   1.805  0.3592 -0.1557  0.6459
  105MOL   C20046168   7.262   6.792   1.771  0.5459 -0.4173  0.1068
  105MOL   C20146169   7.154   6.772   1.655 -0.6756 -0.2346 -0.4656
  105MOL   C20246170   7.173   6.882   1.548 -0.5664  0.4959  0.2504
  105MOL   C20346171   7.051   6.884   1.457  0.4768  0.1601 -1.2568
  105MOL   C20446172   7.036   6.746   1.384  0.8195 -0.0946  0.7091
  105MOL   C20546173   7.016   6.633   1.493 -0.1332  0.5345 -0.3630
  105MOL   C20646174   7.137   6.633   1.590  0.2469  0.3750 -0.1609
  105MOL   C20746175   7.407   6.815   1.719  0.0298  0.4480  0.3031
  105MOL   H20846176   7.248   6.700   1.829  0.3395  0.6005  1.7081
  105MOL   H20946177   7.054   6.797   1.692 -0.5453 -2.0782  1.1994
  105MOL   H21046178   7.266   6.851   1.501 -0.5034 -1.6196  1.7348
  105MOL   H21146179   7.183   6.978   1.599  0.0550  0.3862  0.3267
  105MOL   H21246180   6.963   6.915   1.514  1.3903 -2.4363  1.7180
  105MOL   H21346181   7.061   6.957   1.376  0.7560  1.0418 -0.4450
  105MOL   H21446182   6.957   6.746   1.310  1.1333 -2.8613  0.3328
  105MOL   H21546183   7.131   6.719   1.338  0.7128 -1.1103  1.0745
  105MOL   H21646184   6.924   6.644   1.550 -0.2699 -2.4442  0.0766
  105MOL   H21746185   7.014   6.541   1.433  2.6993  0.4127 -0.3431
  105MOL   H21846186   7.113   6.556   1.663 -2.2789 -0.2418 -1.5601
  105MOL   H21946187   7.230   6.608   1.538 -0.3272 -0.0710 -0.9935
  105MOL   H22046188   7.415   6.910   1.664 -0.0160  1.6569  2.3334
  105MOL   H22146189   7.468   6.839   1.807  0.1466 -0.0179  0.3508
  105MOL   C22246190   7.488   6.694   1.669  0.5305 -0.4157  0.4240
  105MOL   C22346191   7.625   6.734   1.625 -0.4920  0.1151 -0.5153
  105MOL   C22446192   7.718   6.805   1.732  0.0545 -0.0588 -0.1314
  105MOL   C22546193   0.080   6.837   1.660 -0.3902  0.4145  0.1652
  105MOL   C22646194   0.074   6.912   1.528  0.7293 -0.5070  0.2050
  105MOL   C22746195   7.753   6.842   1.429 -0.2059 -0.3110  0.8568
  105MOL   C22846196   7.617   6.826   1.495  0.7395 -0.2221 -0.2159
  105MOL   C22946197   7.485   6.572   1.766  0.5623  0.1959 -0.1863
  105MOL   H23046198   7.448   6.664   1.572  0.5563  1.8146 -0.2939
  105MOL   H23146199   7.671   6.638   1.602  0.0123 -0.2793  1.9291
  105MOL   H23246200   7.677   6.897   1.772  1.6011 -0.5097  2.5630
  105MOL   H23346201   7.723   6.739   1.818 -2.2372 -0.3510 -0.1732
  105MOL   H23446202   0.144   6.753   1.636 -0.8939 -0.0751  0.5389
  105MOL   H23546203   0.140   6.894   1.732 -1.1463 -1.2722  2.1815
  105MOL   H23646204   0.031   7.011   1.546  1.9164 -0.5049  3.2571
  105MOL   H23746205   0.172   6.936   1.488  0.1191 -1.3781 -1.9000
  105MOL   H23846206   0.027   6.755   1.381 -0.1562  0.7510 -1.0547
  105MOL   H23946207   7.731   6.905   1.343 -1.2092 -2.0798 -0.2226
  105MOL   H24046208   7.579   6.926   1.520  1.4125 -0.8355  3.5805
  105MOL   H24146209   7.545   6.785   1.425  0.5648 -0.7042  0.2460
  105MOL   H24246210   7.385   6.529   1.775  1.1823 -1.9787 -3.0002
  105MOL   H24346211   7.523   6.613   1.860 -0.5636 -0.0853  0.3962
  105MOL   C24446212   7.565   6.438   1.730  0.3297  0.0549 -0.1474
  105MOL   C24546213   7.508   6.357   1.601 -0.2363  0.2151  0.1709
  105MOL   C24646214   7.378   6.277   1.633  0.3849 -0.3236  0.2052
  105MOL   C24746215   7.336   6.187   1.513 -1.0060 -0.5558  0.5288
  105MOL   C24846216   7.450   6.112   1.451 -0.6752 -0.5546 -0.7102
  105MOL   C24946217   7.578   6.200   1.425 -0.1024  0.6918 -0.4210
  105MOL   C25046218   7.618   6.280   1.545  0.2147  0.6022  0.1354
  105MOL   C25146219   7.579   6.345   1.858 -0.1953 -0.2158 -0.0757
  105MOL   H25246220   7.665   6.473   1.705 -0.2626  1.8666 -0.0144
  105MOL   H25346221   7.475   6.423   1.521  2.7394  0.0353 -1.2780
  105MOL   H25446222   7.294   6.339   1.663  0.4290 -0.0540 -0.2253
  105MOL   H25546223   7.390   6.225   1.728  0.6097  0.6338  0.7068
  105MOL   H25646224   7.257   6.116   1.533 -1.1857 -0.5139 -0.0167
  105MOL   H25746225   7.304   6.245   1.426 -0.1845  1.0504  1.2722
  105MOL   H25846226   7.474   6.024   1.511  2.1687 -0.1402 -1.1529
  105MOL   H25946227   7.417   6.088   1.350  0.3147 -0.2672 -1.1067
  105MOL   H26046228   7.547   6.268   1.346 -0.4161  1.7301  0.5728
  105MOL   H26146229   7.667   6.152   1.384 -1.7941 -1.2171 -1.9598
  105MOL   H26246230   7.677   6.225   1.619 -0.9497  0.8682  1.2754
  105MOL   H26346231   7.698   6.350   1.518  0.2912  0.2976 -0.4264
  105MOL   H26446232   7.609   6.245   1.825 -0.6670 -0.1791 -0.5996
  105MOL   H26546233   7.481   6.323   1.901 -0.9186  0.3471 -1.4220
  105MOL   C26646234   7.684   6.377   1.972  0.2244  0.5817  0.2558
  105MOL   C26746235   7.652   6.296   2.103 -0.0638  0.1915 -0.0917
  105MOL   C26846236   7.633   6.142   2.085  0.4921 -0.0649  0.5266
  105MOL   C26946237   7.615   6.066   2.220 -0.0411  0.4771 -1.2623
  105MOL   C27046238   7.500   6.140   2.296  0.3419 -0.3750 -0.4774
  105MOL   C27146239   7.512   6.285   2.314  0.5644 -0.2909 -0.0578
  105MOL   C27246240   7.528   6.353   2.174  0.0446 -0.0843 -0.3760
  105MOL   C27346241   0.055   6.345   1.920 -0.1890 -0.1475  0.2467
  105MOL   H27446242   7.688   6.484   1.993 -2.5305  0.5630  1.0235
  105MOL   H27546243   7.730   6.315   2.176 -0.6997 -1.5158  1.0833
  105MOL   H27646244   7.545   6.135   2.021  0.4910  0.9321  0.4136
  105MOL   H27746245   7.709   6.095   2.023 -0.9991 -0.5413 -0.9835
  105MOL   H27846246   7.706   6.070   2.279 -0.1065  0.2631 -1.1476
  105MOL   H27946247   7.597   5.958   2.220  1.8808  0.1459 -0.8600
  105MOL   H28046248   7.404   6.118   2.248  0.8894 -2.7831 -0.5325
  105MOL   H28146249   7.489   6.096   2.395  1.9580 -2.1414 -1.0590
  105MOL   H28246250   7.591   6.314   2.383 -0.8203 -1.3684  2.0205
  105MOL   H28346251   7.419   6.318   2.362  1.1041 -1.2445  1.6892
  105MOL   H28446252   7.542   6.460   2.191 -2.8211 -0.3425  4.5231
  105MOL   H28546253   7.433   6.331   2.126 -1.0445  1.4979  0.9888
  105MOL   H28646254   0.075   6.409   1.834  0.8940  0.3322  0.8462
  105MOL   H28746255   0.060   6.243   1.882  2.0378 -0.9122  2.4522
  105MOL   C28846256   0.178   6.350   2.014  0.1331 -0.3502 -0.1925
  105MOL   C28946257   0.170   6.470   2.118 -0.0863  0.2528 -0.2022
  105MOL   C29046258   0.262   6.455   2.235 -0.5248 -0.7752 -0.7731
  105MOL   C29146259   0.235   6.568   2.342 -0.8352 -0.4042  0.1066
  105MOL   C29246260   0.264   6.703   2.278  0.4350  0.0720  0.3159
  105MOL   C29346261   0.182   6.725   2.149 -0.1276 -0.1853  0.9530
  105MOL   C29446262   0.200   6.605   2.052 -0.1942  0.1898  0.0397
  105MOL   C29546263   0.305   6.353   1.931 -0.3667  0.8271 -0.4589
  105MOL   H29646264   0.173   6.254   2.065 -1.6900 -0.1271  0.0566
  105MOL   H29746265   0.073   6.483   2.166  0.3976 -0.6556  1.0717
  105MOL   H29846266   0.237   6.366   2.292 -1.5246 -0.4101 -0.6347
  105MOL   H29946267   0.366   6.463   2.204 -0.4520  0.3530 -0.2866
  105MOL   H30046268   0.129   6.558   2.367 -0.7298  1.6433  1.5333
  105MOL   H30146269   0.302   6.559   2.427 -1.7043  3.3026  1.2599
  105MOL   H30246270   0.369   6.719   2.255 -0.2187  2.0440 -1.4748
  105MOL   H30346271   0.242   6.784   2.348  0.1206  2.3010 -2.2386
  105MOL   H30446272   0.214   6.823   2.111 -0.3348 -0.1951  0.7576
  105MOL   H30546273   0.076   6.723   2.172 -0.0308 -1.9738  1.3191
  105MOL   H30646274   0.305   6.612   2.021 -0.1404  0.8067  0.3667
  105MOL   H30746275   0.139   6.640   1.969  0.7725 -1.5277 -1.4453
  105MOL   H30846276   0.288   6.420   1.847  1.4129 -0.1272 -1.6085
  105MOL   H30946277   0.389   6.382   1.994 -0.3633 -0.5552  0.1964
  105MOL   C31046278   0.345   6.213   1.878  0.0936 -1.1661 -0.4675
  105MOL   C31146279   0.426   6.223   1.739 -0.0978 -0.2583 -0.3389
  105MOL   C31246280   0.326   6.264   1.627  0.1230 -0.4750  0.1853
  105MOL   C31346281   0.397   6.281   1.488  0.8700  0.2551 -0.8770
  105MOL   C31446282   0.512   6.375   1.486  0.4918  0.3191  0.6551
  105MOL   C31546283   0.617   6.318   1.581  0.3245  0.3787 -0.6732
  105MOL   C31646284   0.550   6.309   1.728 -0.3416  0.2625 -0.0207
  105MOL   C31746285   0.412   6.126   1.994  0.4088  0.6149 -0.4610
  105MOL   H31846286   0.248   6.172   1.850 -0.0323 -1.2024  0.0144
  105MOL   H31946287   0.459   6.124   1.709 -2.0996 -1.6124  1.7408
  105MOL   H32046288   0.242   6.195   1.615  0.0480 -0.0261 -2.0333
  105MOL   H32146289   0.281   6.359   1.654 -2.7748 -1.3435 -1.3782
  105MOL   H32246290   0.328   6.320   1.413 -0.7377  0.8678  0.8798
  105MOL   H32346291   0.426   6.180   1.457 -2.4437 -0.6222 -1.3542
  105MOL   H32446292   0.562   6.390   1.390 -1.6084  1.3649 -0.3068
  105MOL   H32546293   0.477   6.474   1.515  0.7010  0.6043 -0.0564
  105MOL   H32646294   0.654   6.222   1.545  1.4914 -0.3934  2.4261
  105MOL   H32746295   0.696   6.393   1.587 -0.0313  0.5643  2.2348
  105MOL   H32846296   0.501   6.405   1.747 -1.9840 -0.3903 -0.8268
  105MOL   H32946297   0.622   6.282   1.805 -1.8995 -3.8289  0.1232
  105MOL   H33046298   0.365   6.136   2.091 -0.9939 -2.0542 -0.8230
  105MOL   H33146299   0.513   6.165   2.006 -0.1861  1.1157  3.4603
  105MOL   C33246300   0.441   5.978   1.965 -1.1241 -0.2698  0.4003
  105MOL   C33346301   0.324   5.882   1.931  0.1782 -0.0096  0.1762
  105MOL   C33446302   0.278   5.870   1.785 -0.4031  0.3594  0.1541
  105MOL   C33546303   0.167   5.764   1.762  0.6647  1.0013 -0.1286
  105MOL   C33646304   0.047   5.794   1.854  0.3887  0.6262  0.3001
  105MOL   C33746305   0.093   5.807   2.002  0.6350  0.0653 -0.0088
  105MOL   C33846306   0.200   5.907   2.019 -0.0249  0.5518  0.2548
  105MOL   C33946307   0.560   5.917   2.045 -0.2549  0.6929 -0.9057
  105MOL   H34046308   0.502   5.969   1.875  2.3191 -0.0860  2.6026
  105MOL   H34146309   0.358   5.780   1.947 -1.0811 -0.1720  1.9996
  105MOL   H34246310   0.242   5.969   1.755 -3.8421 -0.8913 -0.1728
  105MOL   H34346311   0.356   5.843   1.715 -0.6389  1.7676 -0.6739
  105MOL   H34446312   0.143   5.764   1.656 -0.9921 -0.0815  0.2261
  105MOL   H34546313   0.193   5.660   1.782 -2.2558  0.1051 -0.7208
  105MOL   H34646314   0.003   5.890   1.827 -1.8028 -0.3454  0.2612
  105MOL   H34746315   7.730   5.732   1.848 -0.1772  1.5625 -1.0733
  105MOL   H34846316   0.121   5.703   2.019 -0.8485 -0.1424  1.2865
  105MOL   H34946317   0.001   5.827   2.058 -1.1754 -2.3047 -1.9816
  105MOL   H35046318   0.224   5.932   2.122  0.8244 -0.4935  0.3236
  105MOL   H35146319   0.147   5.995   1.984  1.6579  1.1307 -0.8696
  105MOL   H35246320   0.634   5.994   2.066 -0.5451  0.3610  1.4908
  105MOL   H35346321   0.598   5.838   1.980 -1.8235 -0.5245 -0.3620
  105MOL   C35446322   0.537   5.847   2.184 -0.3597 -0.0888  0.2938
  105MOL   C35546323   0.515   5.960   2.288 -0.3433 -0.7243  0.3163
  105MOL   C35646324   0.648   6.010   2.348 -0.3122  0.5386 -0.2698
  105MOL   C35746325   0.614   6.137   2.435  0.1629  0.3845  0.0365
  105MOL   C35846326   0.514   6.102   2.546 -0.2925  0.0045  0.5607
  105MOL   C35946327   0.387   6.037   2.494 -0.3553  0.1805 -0.1605
  105MOL   C36046328   0.416   5.923   2.398  0.5198  0.3479  0.1701
  105MOL   C36146329   0.644   5.741   2.205  0.2507 -0.5518  0.0302
  105MOL   H36246330   0.443   5.794   2.173 -1.5215  1.7541  1.1257
  105MOL   H36346331   0.472   6.050   2.245  1.2775  0.2037  0.6101
  105MOL   H36446332   0.725   6.036   2.274 -2.1761 -0.7625 -2.7147
  105MOL   H36546333   0.691   5.933   2.412 -0.3975  0.3429 -0.4468
  105MOL   H36646334   0.701   6.197   2.464  0.9429 -0.3542 -0.7602
  105MOL   H36746335   0.566   6.203   2.363 -0.1237 -0.2597 -0.3638
  105MOL   H36846336   0.561   6.028   2.611 -1.6560 -0.0194  1.5433
  105MOL   H36946337   0.488   6.190   2.604  0.2155  0.8392 -0.4723
  105MOL   H37046338   0.315   6.009   2.571 -0.5573 -2.2701 -1.2094
  105MOL   H37146339   0.337   6.107   2.426  1.8733  0.4665 -1.5400
  105MOL   H37246340   0.330   5.866   2.366  0.8976 -0.2115  0.1496
  105MOL   H37346341   0.458   5.838   2.450  0.5408  0.8940  1.0495
  105MOL   H37446342   0.735   5.801   2.206  0.3488 -0.6582 -1.6379
  105MOL   H37546343   0.656   5.679   2.117 -2.1139  0.6940 -1.2227
  105MOL   C37646344   0.642   5.645   2.324 -0.3006  0.1416 -0.3718
  105MOL   C37746345   0.512   5.566   2.346 -0.0236 -1.0386 -0.3823
  105MOL   C37846346   0.504   5.471   2.460 -0.5005 -0.4755 -0.2568
  105MOL   C37946347   0.362   5.423   2.475  0.2869  0.6070  0.1172
  105MOL   C38046348   0.306   5.351   2.347 -1.2202 -0.2164  0.2898
  105MOL   C38146349   0.327   5.432   2.219  0.8363 -0.0443 -0.2755
  105MOL   C38246350   0.468   5.489   2.217  0.0360 -0.1249 -0.4632
  105MOL   C38346351   0.767   5.546   2.296  0.5136 -0.1502 -0.7807
  105MOL   H38446352   0.655   5.702   2.416  2.6725 -2.5599  0.9843
  105MOL   H38546353   0.429   5.629   2.375  0.0264 -2.1417  2.3180
  105MOL   H38646354   0.573   5.387   2.452 -1.2742 -1.2760  1.0661
  105MOL   H38746355   0.529   5.527   2.550 -0.9014  0.0901 -0.4956
  105MOL   H38846356   0.286   5.497   2.499  0.4220  0.5601  0.7000
  105MOL   H38946357   0.372   5.361   2.564  2.3845  1.4363  0.4698
  105MOL   H39046358   0.367   5.261   2.342 -3.2938 -1.8730  3.2678
  105MOL   H39146359   0.206   5.314   2.365 -2.5452  2.1137 -1.9021
  105MOL   H39246360   0.298   5.377   2.130 -0.2135 -0.0037  0.0280
  105MOL   H39346361   0.260   5.518   2.222 -1.1230 -1.5762  1.4588
  105MOL   H39446362   0.530   5.403   2.192 -1.8326 -0.7531 -3.2498
  105MOL   H39546363   0.465   5.562   2.136 -0.3356  0.6923  0.2852
  105MOL   H39646364   0.838   5.580   2.220  2.1300 -1.2593  0.2087
  105MOL   H39746365   0.724   5.456   2.253  2.0371 -1.0200 -0.5064
  105MOL   C39846366   0.856   5.517   2.417  0.0904  0.3551 -0.4987
  105MOL   C39946367   0.944   5.397   2.395  0.1105 -0.3730 -0.2429
  105MOL   C40046368   0.866   5.267   2.357  0.0969 -0.5724  0.3598
  105MOL   C40146369   0.941   5.139   2.369 -0.3608  0.0524  0.1313
  105MOL   C40246370   1.064   5.140   2.274 -0.2424 -0.3831 -0.0437
  105MOL   C40346371   1.140   5.269   2.286 -0.0041 -0.1715 -0.0219
  105MOL   C40446372   1.055   5.405   2.289 -0.1928 -0.0054 -0.3310
  105MOL   C40546373   0.944   5.640   2.454  0.5810  0.3373 -0.2959
  105MOL   H40646374   0.789   5.486   2.497  1.3091  2.0953  1.2480
  105MOL   H40746375   0.982   5.377   2.495 -1.3371  1.6512  0.7684
  105MOL   H40846376   0.818   5.271   2.259 -0.4412  1.1196  0.6816
  105MOL   H40946377   0.784   5.261   2.429  0.4289 -0.3378  0.7599
  105MOL   H41046378   0.879   5.057   2.333  0.4527 -1.8982  2.9222
  105MOL   H41146379   0.966   5.113   2.472 -1.5110 -0.4104  0.2919
  105MOL   H41246380   1.046   5.124   2.167 -0.8850 -0.1707  0.0320
  105MOL   H41346381   1.128   5.057   2.303 -0.6445  0.1686  2.5803
  105MOL   H41446382   1.199   5.275   2.378 -0.6235  2.2671  0.2355
  105MOL   H41546383   1.218   5.267   2.210 -0.4789  1.2146 -0.5517
  105MOL   H41646384   1.122   5.490   2.300  0.3318 -0.1929 -1.8383
  105MOL   H41746385   1.017   5.412   2.187  0.0450  0.7558 -0.3694
  105MOL   H41846386   1.044   5.601   2.474  0.1174 -0.7737 -0.1041
  105MOL   H41946387   0.951   5.713   2.373  0.1727  0.5402 -0.1532
  105MOL   C42046388   0.903   5.723   2.573 -0.1613 -0.3107  0.1170
  105MOL   C42146389   0.959   5.869   2.575  0.2547  0.3701 -0.2246
  105MOL   C42246390   1.113   5.868   2.586 -0.1174 -0.0080 -0.0690
  105MOL   C42346391   1.159   6.013   2.578 -0.0044  1.1646  0.0154
  105MOL   C42446392   1.099   6.101   2.689 -0.1438  0.6773  0.5958
  105MOL   C42546393   0.948   6.104   2.671  0.1936  0.2773  0.7657
  105MOL   C42646394   0.894   5.963   2.680  0.2176 -0.0528 -0.7409
  105MOL   C42746395   0.944   5.646   2.698 -0.1431 -0.0489  0.4186
  105MOL   H42846396   0.795   5.738   2.574  0.0931  1.7728 -0.6060
  105MOL   H42946397   0.940   5.909   2.476  1.2000 -0.3900 -0.7154
  105MOL   H43046398   1.152   5.830   2.681  1.2015 -1.5321 -1.1990
  105MOL   H43146399   1.160   5.820   2.500  1.1695  2.6176 -0.8930
  105MOL   H43246400   1.266   6.025   2.564 -0.4886  1.6709 -3.7262
  105MOL   H43346401   1.118   6.049   2.484 -2.2491  0.7638  0.7967
  105MOL   H43446402   1.135   6.204   2.686 -1.2820  1.0946  1.4077
  105MOL   H43546403   1.121   6.054   2.785 -1.1787 -1.0912 -0.0116
  105MOL   H43646404   0.925   6.139   2.570  2.5928 -1.7016 -0.5357
  105MOL   H43746405   0.893   6.167   2.740  0.7388  3.4885 -1.5921
  105MOL   H43846406   0.888   5.929   2.783 -1.5056 -0.7537 -1.0547
  105MOL   H43946407   0.786   5.961   2.663  0.5764 -1.0766 -3.1603
  105MOL   H44046408   0.888   5.554   2.714 -3.1187  1.4792 -0.6806
  105MOL   H44146409   1.049   5.620   2.697 -0.7351 -2.6494  1.9255
  105MOL   H44246410   0.934   5.711   2.785  0.6067 -0.8333  1.0874
  106MOL     C146411   4.680   5.248   0.636  0.6121  0.2143 -0.4644
  106MOL     C246412   4.830   5.281   0.609 -0.2155 -0.3293 -0.2164
  106MOL     C346413   4.893   5.187   0.502  0.8216  0.4092 -0.2105
  106MOL     C446414   5.050   5.201   0.486  0.6311 -0.8539 -0.9841
  106MOL     C546415   5.113   5.191   0.620  0.6255  0.0339 -0.0248
  106MOL     C646416   5.067   5.298   0.718  0.8418 -0.1630 -0.1670
  106MOL     C746417   4.907   5.282   0.745 -0.1811 -0.5370 -0.2652
  106MOL     C846418   4.646   5.106   0.690 -0.1056 -0.4528  0.4904
  106MOL     H946419   4.658   5.320   0.715 -1.0116 -1.4614  0.6405
  106MOL    H1046420   4.841   5.377   0.559  2.3551 -0.3038  0.3706
  106MOL    H1146421   4.858   5.084   0.513  0.0606  1.0999  5.5005
  106MOL    H1246422   4.842   5.214   0.410 -0.1789 -0.2184  0.1475
  106MOL    H1346423   5.067   5.305   0.456  2.3355 -0.3108  1.7264
  106MOL    H1446424   5.099   5.134   0.416  1.4052  0.6562 -1.9028
  106MOL    H1546425   5.220   5.206   0.606  0.9229 -2.8799 -1.2920
  106MOL    H1646426   5.087   5.095   0.665 -0.3866  0.9076  1.3194
  106MOL    H1746427   5.122   5.286   0.812 -0.7296 -2.1308  0.5415
  106MOL    H1846428   5.102   5.390   0.672  1.3502 -0.2122  0.1171
  106MOL    H1946429   4.866   5.348   0.821 -0.9820 -1.2627 -0.0598
  106MOL    H2046430   4.894   5.182   0.786  1.6224 -0.7881 -0.2412
  106MOL    H2146431   4.719   5.062   0.759 -0.4451  3.6330  3.6368
  106MOL    H2246432   4.629   5.041   0.605 -0.6815  0.2006  0.1054
  106MOL    H2346433   4.612   5.273   0.554  0.2678 -0.8595 -0.5056
  106MOL    C2446434   4.514   5.113   0.777  0.0933  0.9949  0.3179
  106MOL    C2546435   4.378   5.106   0.693  1.1463  0.1798 -0.4912
  106MOL    C2646436   4.252   5.164   0.775 -0.5088 -0.2165 -0.9927
  106MOL    C2746437   4.136   5.180   0.677 -1.0787 -0.3009 -0.3132
  106MOL    C2846438   4.095   5.051   0.607  0.0856  0.2533  0.0105
  106MOL    C2946439   4.210   4.996   0.519 -0.5044  0.6346  0.2543
  106MOL    C3046440   4.340   4.985   0.605 -0.7867 -0.2294 -0.3410
  106MOL    C3146441   4.521   5.029   0.901 -0.1412 -0.4375 -0.2770
  106MOL    H3246442   4.511   5.210   0.826 -1.7259  0.5434  1.1264
  106MOL    H3346443   4.388   5.191   0.625  2.1753 -1.5136 -2.5068
  106MOL    H3446444   4.277   5.261   0.819  0.2039 -0.1347 -1.5690
  106MOL    H3546445   4.225   5.086   0.846 -0.9749 -2.6281 -3.7199
  106MOL    H3646446   4.052   5.213   0.738  0.0490  1.9344  0.1113
  106MOL    H3746447   4.162   5.249   0.596 -0.6522 -2.4804 -2.0810
  106MOL    H3846448   4.014   5.082   0.541 -0.0725 -1.3845 -0.5740
  106MOL    H3946449   4.048   4.979   0.674 -1.4460  0.2121 -1.0988
  106MOL    H4046450   4.190   4.896   0.482  1.2937 -0.0247  1.0390
  106MOL    H4146451   4.228   5.053   0.428 -0.2699  0.5987  0.2784
  106MOL    H4246452   4.328   4.900   0.672 -3.0810 -0.1340 -0.6116
  106MOL    H4346453   4.419   4.961   0.534  0.7174  0.3506  1.0840
  106MOL    H4446454   4.573   4.937   0.875  1.9227  0.1681  1.6602
  106MOL    H4546455   4.420   5.005   0.934 -0.0165  2.5983  2.4881
  106MOL    C4646456   4.599   5.075   1.028  0.5240  0.4302  0.1749
  106MOL    C4746457   4.638   4.955   1.113 -0.5305 -0.8963  0.0405
  106MOL    C4846458   4.765   4.879   1.050 -0.3839 -1.1906  0.3392
  106MOL    C4946459   4.808   4.762   1.136  0.5578  0.4126  0.0873
  106MOL    C5046460   4.695   4.661   1.159  0.1496  0.4383 -0.0463
  106MOL    C5146461   4.571   4.730   1.223  0.7223  0.4430 -0.0810
  106MOL    C5246462   4.529   4.854   1.147  0.5430  0.0493  0.2145
  106MOL    C5346463   4.520   5.181   1.105  0.0280  0.2003 -0.6409
  106MOL    H5446464   4.692   5.117   0.990  1.2137  0.6917  2.1043
  106MOL    H5546465   4.674   5.002   1.205 -0.0808 -0.3581 -0.4110
  106MOL    H5646466   4.738   4.835   0.954 -0.7187  2.9692 -1.5946
  106MOL    H5746467   4.848   4.949   1.038 -0.8566 -0.5380  0.8318
  106MOL    H5846468   4.854   4.812   1.221  1.2105 -0.5990  0.3381
  106MOL    H5946469   4.889   4.709   1.087 -0.1744 -1.8186  1.2418
  106MOL    H6046470   4.663   4.616   1.065 -3.7215  0.1997  1.3036
  106MOL    H6146471   4.732   4.587   1.230 -0.9042 -0.7873 -0.7649
  106MOL    H6246472   4.608   4.729   1.326 -1.3896 -0.8431  0.6958
  106MOL    H6346473   4.491   4.657   1.238  1.0692 -0.1694 -1.1816
  106MOL    H6446474   4.486   4.818   1.054  2.8344  0.6275 -1.1097
  106MOL    H6546475   4.450   4.899   1.207  1.3424 -0.4574  1.6641
  106MOL    H6646476   4.469   5.130   1.187 -1.6731  0.8748 -1.2660
  106MOL    H6746477   4.450   5.235   1.042  1.7516  0.5921 -2.2930
  106MOL    C6846478   4.597   5.296   1.171 -0.6019  0.3480  0.0861
  106MOL    C6946479   4.664   5.396   1.076 -0.5282 -0.0519  0.2212
  106MOL    C7046480   4.566   5.491   1.010  1.2582  0.6266 -0.2522
  106MOL    C7146481   4.634   5.601   0.926  0.6081  0.8136 -0.3056
  106MOL    C7246482   4.749   5.667   0.995 -0.2371 -0.4754  0.6624
  106MOL    C7346483   4.853   5.569   1.051 -0.1860  0.0733 -0.2129
  106MOL    C7446484   4.772   5.480   1.143 -0.6469  0.3779  0.5614
  106MOL    C7546485   4.509   5.373   1.276 -0.1386  0.0324 -0.1386
  106MOL    H7646486   4.678   5.249   1.229  0.0654 -1.8491 -2.5248
  106MOL    H7746487   4.707   5.341   0.992  1.7765  0.6099  0.9236
  106MOL    H7846488   4.504   5.545   1.082  1.4573  0.2203  0.2297
  106MOL    H7946489   4.502   5.426   0.950  0.5765  0.0591  1.0675
  106MOL    H8046490   4.663   5.558   0.830  1.6450 -0.9336  0.7657
  106MOL    H8146491   4.564   5.680   0.898 -0.6213  0.0463  0.5406
  106MOL    H8246492   4.716   5.723   1.083 -2.6186  2.2220 -1.8274
  106MOL    H8346493   4.800   5.733   0.924  1.1670 -0.1992  1.8999
  106MOL    H8446494   4.934   5.632   1.089  1.7206 -1.7740 -1.1253
  106MOL    H8546495   4.902   5.525   0.964 -1.0765 -0.0008 -0.6745
  106MOL    H8646496   4.748   5.527   1.238  0.4451  2.7259 -0.2788
  106MOL    H8746497   4.838   5.403   1.183 -1.1990 -0.5084 -0.2055
  106MOL    H8846498   4.568   5.456   1.316  1.5838 -0.6151 -1.2754
  106MOL    H8946499   4.427   5.414   1.217 -0.9787 -0.1357  0.8945
  106MOL    C9046500   4.440   5.301   1.390  0.1519  0.1363  0.4736
  106MOL    C9146501   4.530   5.185   1.448  0.3631 -0.1186  0.1650
  106MOL    C9246502   4.664   5.241   1.509  0.2007  0.3628 -0.0847
  106MOL    C9346503   4.746   5.115   1.545 -0.1189 -0.1029  0.8069
  106MOL    C9446504   4.678   5.030   1.650 -0.1346 -0.4306  0.0467
  106MOL    C9546505   4.539   4.978   1.597 -0.1801 -0.0629 -0.2780
  106MOL    C9646506   4.449   5.094   1.546  0.3931  0.6879  0.1687
  106MOL    C9746507   4.387   5.399   1.493  1.4536 -0.3933 -0.2380
  106MOL    H9846508   4.357   5.255   1.336  2.2858 -0.1902 -2.6483
  106MOL    H9946509   4.561   5.110   1.375 -0.8297  1.5212 -2.0822
  106MOL   H10046510   4.646   5.306   1.595 -2.5889  1.4749 -1.4623
  106MOL   H10146511   4.721   5.291   1.431  0.3409  0.6659  0.2119
  106MOL   H10246512   4.836   5.158   1.590  0.1349 -0.1792  0.3713
  106MOL   H10346513   4.769   5.049   1.461  0.7601  2.3984 -0.9530
  106MOL   H10446514   4.672   5.083   1.745  0.3565  0.4597 -0.4098
  106MOL   H10546515   4.731   4.941   1.682 -2.5801 -1.3584  1.6955
  106MOL   H10646516   4.565   4.911   1.514  0.6395 -1.0979  0.8039
  106MOL   H10746517   4.500   4.912   1.674 -0.4593  0.8158  0.3307
  106MOL   H10846518   4.363   5.057   1.491  0.3078  0.8505  0.1905
  106MOL   H10946519   4.405   5.140   1.635 -0.3278  0.3005  0.0090
  106MOL   H11046520   4.345   5.341   1.576 -1.6813  1.4249 -0.4512
  106MOL   H11146521   4.472   5.457   1.527  1.5557 -0.9405  0.4650
  106MOL   C11246522   4.282   5.505   1.455 -0.2916  0.0777  0.0044
  106MOL   C11346523   4.328   5.643   1.521 -0.5702  0.2450 -0.3022
  106MOL   C11446524   4.332   5.654   1.679  0.0936 -0.2184 -0.3478
  106MOL   C11546525   4.388   5.790   1.716 -0.2599  0.1572  0.0803
  106MOL   C11646526   4.308   5.910   1.653 -0.2078  0.1940 -0.0677
  106MOL   C11746527   4.303   5.900   1.498 -0.2214  0.1593  0.3275
  106MOL   C11846528   4.252   5.759   1.460  0.4862 -0.0790 -0.1424
  106MOL   C11946529   4.141   5.467   1.505 -0.1293 -0.6386 -0.2905
  106MOL   H12046530   4.297   5.515   1.347  0.1016 -1.2419 -0.0680
  106MOL   H12146531   4.433   5.665   1.504 -0.1314 -1.3463  0.2641
  106MOL   H12246532   4.387   5.563   1.704 -0.9321 -0.5752  0.6438
  106MOL   H12346533   4.234   5.655   1.725 -0.1620 -0.6020 -0.8885
  106MOL   H12446534   4.373   5.797   1.823  1.9740  0.9447  0.3674
  106MOL   H12546535   4.495   5.792   1.695 -0.2479 -1.7905 -0.2047
  106MOL   H12646536   4.208   5.925   1.695 -1.5089 -0.9272 -2.6622
  106MOL   H12746537   4.362   6.001   1.678  3.2613 -2.1268  1.3504
  106MOL   H12846538   4.233   5.979   1.470  0.9271  0.7774 -0.8505
  106MOL   H12946539   4.400   5.927   1.455 -0.7915  1.1216 -0.3678
  106MOL   H13046540   4.273   5.762   1.353  0.8263 -0.0241 -0.0749
  106MOL   H13146541   4.143   5.758   1.464  0.3908  3.0178 -0.9357
  106MOL   H13246542   4.074   5.552   1.510 -2.9116 -2.7974  0.6480
  106MOL   H13346543   4.145   5.436   1.609  0.6512  2.3449  0.6083
  106MOL   C13446544   4.061   5.353   1.445 -0.3427 -0.0220  0.2078
  106MOL   C13546545   4.049   5.348   1.289 -0.1285  0.0348 -0.2989
  106MOL   C13646546   3.955   5.459   1.232 -0.6749  0.0758  0.2651
  106MOL   C13746547   3.954   5.457   1.076  0.2031 -0.1248  0.2441
  106MOL   C13846548   3.908   5.324   1.015  0.0491 -0.3921  0.5597
  106MOL   C13946549   4.014   5.223   1.066  0.0443  0.4502 -0.6864
  106MOL   C14046550   4.010   5.209   1.219 -0.8799 -0.0289 -0.1723
  106MOL   C14146551   3.928   5.321   1.523  0.0029 -0.0474 -0.0150
  106MOL   H14246552   4.119   5.265   1.469 -1.7092 -1.1485 -0.5525
  106MOL   H14346553   4.147   5.377   1.252  0.6955 -0.5520  1.4000
  106MOL   H14446554   3.850   5.451   1.259 -0.4448 -0.8730  0.9133
  106MOL   H14546555   3.997   5.555   1.260 -1.3158  0.7260 -0.9553
  106MOL   H14646556   4.053   5.485   1.039 -0.5554  0.0088 -1.7735
  106MOL   H14746557   3.883   5.534   1.047  1.5281  1.4719  1.1666
  106MOL   H14846558   3.809   5.302   1.055  0.1442 -0.7398  0.6063
  106MOL   H14946559   3.899   5.321   0.907  0.7716 -1.7078  0.5232
  106MOL   H15046560   4.115   5.248   1.031  0.8278 -2.6885 -0.8475
  106MOL   H15146561   3.993   5.122   1.030  0.2278  0.8261 -1.8646
  106MOL   H15246562   3.914   5.174   1.256 -0.7665 -2.0464 -1.6703
  106MOL   H15346563   4.095   5.151   1.256 -1.8442  0.2660  2.6561
  106MOL   H15446564   3.863   5.261   1.460 -0.0484  2.1435 -2.1411
  106MOL   H15546565   3.872   5.414   1.526  0.4991  0.3034 -1.1046
  106MOL   C15646566   3.922   5.254   1.669  1.1803  0.5022 -0.1994
  106MOL   C15746567   3.853   5.118   1.672 -0.8905 -0.2350  0.8370
  106MOL   C15846568   3.696   5.128   1.636  0.0723  0.1633  0.0871
  106MOL   C15946569   3.641   4.987   1.641 -0.2909  0.8876 -0.0368
  106MOL   C16046570   3.726   4.878   1.565 -0.0482  0.3728 -0.5419
  106MOL   C16146571   3.878   4.888   1.598 -0.5840  0.5970  0.1710
  106MOL   C16246572   3.924   5.024   1.572 -0.4507 -0.2825  0.5664
  106MOL   C16346573   3.857   5.342   1.778  0.8595  0.4414  0.3160
  106MOL   H16446574   4.026   5.238   1.696  1.0063  0.8999  0.7389
  106MOL   H16546575   3.856   5.076   1.772  1.1796 -0.8667  0.5324
  106MOL   H16646576   3.645   5.194   1.707 -1.0181 -0.1210 -0.4308
  106MOL   H16746577   3.680   5.181   1.542 -0.7472  1.0005  0.6774
  106MOL   H16846578   3.620   4.955   1.743  3.6817 -0.4986  0.4504
  106MOL   H16946579   3.543   4.976   1.595 -0.0426  1.1430 -0.6386
  106MOL   H17046580   3.718   4.899   1.459  1.0960  2.7703 -0.1900
  106MOL   H17146581   3.696   4.777   1.591  0.7256  0.4382  0.6644
  106MOL   H17246582   3.926   4.820   1.527 -3.5858 -2.6548  1.1221
  106MOL   H17346583   3.904   4.852   1.697 -1.2355 -3.6256 -1.0911
  106MOL   H17446584   4.032   5.027   1.578 -0.4444  0.4547  0.0404
  106MOL   H17546585   3.900   5.051   1.469 -1.6178  0.4345  1.0118
  106MOL   H17646586   3.829   5.278   1.861  1.3986  0.1386  0.2671
  106MOL   H17746587   3.761   5.373   1.737  0.1772 -2.0291 -0.0166
  106MOL   C17846588   3.934   5.461   1.834 -0.1443 -0.7783 -0.1346
  106MOL   C17946589   3.847   5.591   1.820  0.3270  0.7690 -0.1094
  106MOL   C18046590   3.922   5.721   1.840 -0.4538 -0.4292  0.6104
  106MOL   C18146591   3.831   5.846   1.811 -0.0397 -0.4744 -0.1520
  106MOL   C18246592   3.704   5.843   1.888 -0.1202  0.1931  0.5195
  106MOL   C18346593   3.630   5.712   1.867 -0.1045 -0.3516 -1.5352
  106MOL   C18446594   3.717   5.593   1.903  0.1473 -0.3560  0.1950
  106MOL   C18546595   3.992   5.440   1.984  0.1197 -0.4877 -0.2808
  106MOL   H18646596   4.019   5.473   1.767 -1.6111 -2.6522 -2.4098
  106MOL   H18746597   3.818   5.607   1.716 -0.5390  0.2459  0.0445
  106MOL   H18846598   3.957   5.719   1.944  0.5050 -0.7048  0.2875
  106MOL   H18946599   4.020   5.729   1.793 -1.1738  0.7274 -0.7131
  106MOL   H19046600   3.789   5.847   1.710 -2.9475 -0.5580  1.0149
  106MOL   H19146601   3.898   5.931   1.824 -0.6137  0.2210 -1.5727
  106MOL   H19246602   3.717   5.856   1.996 -0.1158  2.2158  0.3057
  106MOL   H19346603   3.634   5.915   1.846 -1.3953 -2.3166 -1.8085
  106MOL   H19446604   3.599   5.698   1.764  0.0499 -0.6655 -1.5391
  106MOL   H19546605   3.541   5.711   1.930  1.2510 -1.3228  0.4235
  106MOL   H19646606   3.747   5.604   2.007  0.6415 -0.3651  0.0545
  106MOL   H19746607   3.669   5.495   1.892  0.8207 -0.7420  0.7156
  106MOL   H19846608   4.033   5.533   2.023 -0.6660  0.4236 -1.5813
  106MOL   H19946609   3.904   5.426   2.047 -0.1144 -2.7474 -1.0592
  106MOL   C20046610   4.118   5.332   2.001 -0.8298 -0.1507  0.4358
  106MOL   C20146611   4.260   5.384   1.970 -0.7376 -0.3862  0.0233
  106MOL   C20246612   4.299   5.498   2.058  0.2172  0.2661 -0.0325
  106MOL   C20346613   4.446   5.533   2.028 -0.2885 -0.4381  0.0467
  106MOL   C20446614   4.545   5.414   2.029  0.4776  1.1686  0.3503
  106MOL   C20546615   4.498   5.307   1.931 -0.2048  0.0507 -1.2938
  106MOL   C20646616   4.360   5.265   1.969  0.1975 -0.0026 -0.0436
  106MOL   C20746617   4.109   5.259   2.142 -0.3636  0.2107 -0.2579
  106MOL   H20846618   4.104   5.247   1.934 -1.5836  0.4350 -0.1557
  106MOL   H20946619   4.267   5.422   1.868  0.5418  2.3564  1.0793
  106MOL   H21046620   4.282   5.470   2.162  0.0659  0.1773 -0.0816
  106MOL   H21146621   4.250   5.594   2.038  0.5991  0.8081  1.5295
  106MOL   H21246622   4.463   5.579   1.930 -0.0761 -3.1984 -1.2528
  106MOL   H21346623   4.479   5.602   2.105 -1.0240 -0.1515  0.1056
  106MOL   H21446624   4.647   5.448   2.014 -0.4062  2.7824 -2.3488
  106MOL   H21546625   4.543   5.359   2.123 -0.2063 -0.3502 -0.5254
  106MOL   H21646626   4.497   5.346   1.829  1.1861  1.2498 -0.8675
  106MOL   H21746627   4.569   5.225   1.932 -0.2784 -0.0050  1.5067
  106MOL   H21846628   4.332   5.187   1.898 -0.7405 -1.4988  1.8994
  106MOL   H21946629   4.370   5.215   2.065  0.7539  2.7729  1.4054
  106MOL   H22046630   4.172   5.171   2.130 -1.5371 -0.5550 -0.9849
  106MOL   H22146631   4.145   5.318   2.225 -1.8583  1.2398 -0.3208
  106MOL   C22246632   3.962   5.210   2.185  0.0629 -0.0583  0.3887
  106MOL   C22346633   3.952   5.054   2.205  0.0019 -0.1094 -0.2224
  106MOL   C22446634   4.040   4.990   2.306  0.3107 -0.3057  0.5311
  106MOL   C22546635   4.018   4.837   2.327  0.9382 -0.1174 -0.2502
  106MOL   C22646636   4.017   4.759   2.196  0.1617  0.5292 -0.4517
  106MOL   C22746637   3.920   4.821   2.100 -0.3270 -0.1336  0.5703
  106MOL   C22846638   3.951   4.973   2.072 -0.0515  0.2623 -0.5193
  106MOL   C22946639   3.917   5.298   2.305  0.0064  0.0753 -0.0499
  106MOL   H23046640   3.888   5.230   2.107  0.4157 -0.7537 -0.1221
  106MOL   H23146641   3.852   5.028   2.241  0.9291 -1.9396  1.1042
  106MOL   H23246642   4.144   5.009   2.284  0.4532 -0.8518  0.7263
  106MOL   H23346643   4.026   5.037   2.404  1.3958 -1.4840  1.2638
  106MOL   H23446644   3.921   4.837   2.375  2.2887  2.2789  2.6704
  106MOL   H23546645   4.082   4.796   2.406  0.5316 -0.3398 -0.0354
  106MOL   H23646646   4.115   4.771   2.149  0.3704  0.0897 -0.1355
  106MOL   H23746647   3.998   4.653   2.214  0.2219  0.7283  0.8197
  106MOL   H23846648   3.824   4.807   2.151  0.2558 -2.0274  1.2152
  106MOL   H23946649   3.900   4.761   2.011  1.5157 -1.7246  1.1903
  106MOL   H24046650   4.049   4.983   2.026  0.3727  1.0716  0.5495
  106MOL   H24146651   3.870   5.014   2.012 -0.5012 -0.0226 -0.1040
  106MOL   H24246652   3.966   5.394   2.290 -2.2678  1.1014 -1.2482
  106MOL   H24346653   3.946   5.260   2.403 -1.6931 -0.9900  0.0700
  106MOL   C24446654   3.765   5.326   2.321  0.0339  0.0861 -0.0478
  106MOL   C24546655   3.737   5.458   2.392  0.4921 -1.1569 -0.3604
  106MOL   C24646656   3.737   5.576   2.286 -0.0846  0.0264  0.1116
  106MOL   C24746657   3.708   5.710   2.346  0.3514  0.1810  0.3383
  106MOL   C24846658   3.791   5.735   2.466  0.5250  0.9576 -0.3613
  106MOL   C24946659   3.781   5.624   2.576  0.1747  0.2065  0.6879
  106MOL   C25046660   3.821   5.494   2.519  0.6341  0.7299 -0.0453
  106MOL   C25146661   3.684   5.217   2.391 -0.0200  0.0360 -0.2481
  106MOL   H25246662   3.727   5.334   2.219 -1.2267 -1.4318  0.2756
  106MOL   H25346663   3.632   5.462   2.421  0.3884  1.8168 -0.9104
  106MOL   H25446664   3.666   5.553   2.207  0.2379 -0.5256 -0.0213
  106MOL   H25546665   3.836   5.578   2.241 -0.9628 -0.2343 -1.8818
  106MOL   H25646666   3.725   5.786   2.270 -0.9761  0.5116  0.3648
  106MOL   H25746667   3.600   5.717   2.362  0.2341  0.9754 -0.7309
  106MOL   H25846668   3.893   5.726   2.428 -0.5869  0.1830 -3.3281
  106MOL   H25946669   3.785   5.840   2.495 -2.1676  0.6266  0.4759
  106MOL   H26046670   3.683   5.611   2.621 -0.1180  0.0352  0.0176
  106MOL   H26146671   3.849   5.650   2.657  1.0160  1.2736 -0.3288
  106MOL   H26246672   3.923   5.499   2.481  0.5618  0.2622 -0.3117
  106MOL   H26346673   3.819   5.419   2.598  1.2078  0.3806 -0.3569
  106MOL   H26446674   3.692   5.225   2.499 -0.6303 -0.6232 -0.1484
  106MOL   H26546675   3.740   5.123   2.385 -0.5263 -0.1936 -1.6184
  106MOL   C26646676   3.538   5.205   2.331 -0.1592  0.2195  0.0513
  106MOL   C26746677   3.540   5.116   2.199  0.4266 -0.0226 -0.2904
  106MOL   C26846678   3.420   5.151   2.106  0.9738  0.0690  0.2093
  106MOL   C26946679   3.428   5.070   1.982  0.6449 -0.0007  0.2307
  106MOL   C27046680   3.448   4.917   2.012  0.3758 -0.2171 -0.2587
  106MOL   C27146681   3.571   4.879   2.093  0.3745  0.1372  0.3016
  106MOL   C27246682   3.554   4.958   2.226  0.6999  0.1578  0.5551
  106MOL   C27346683   3.434   5.140   2.426 -0.0114 -0.0071  0.1958
  106MOL   H27446684   3.510   5.303   2.293 -1.5574 -0.4316 -0.6441
  106MOL   H27546685   3.632   5.152   2.155 -0.4587  1.2086 -1.1422
  106MOL   H27646686   3.321   5.149   2.150  0.3651 -2.5956 -1.1431
  106MOL   H27746687   3.441   5.251   2.069  0.4662  0.0518 -0.1369
  106MOL   H27846688   3.508   5.111   1.920  1.1082 -1.6783 -0.2889
  106MOL   H27946689   3.339   5.083   1.920  0.0324  0.1497  1.1313
  106MOL   H28046690   3.361   4.876   2.063  0.0791  0.7673  0.0381
  106MOL   H28146691   3.440   4.855   1.923  1.7183  0.9923 -1.2366
  106MOL   H28246692   3.663   4.903   2.039  1.7164 -0.9940  2.0287
  106MOL   H28346693   3.578   4.771   2.110 -3.5555  0.0671  2.0923
  106MOL   H28446694   3.636   4.936   2.296  1.3984  2.0071  0.3478
  106MOL   H28546695   3.468   4.923   2.282  0.0778  0.6435 -0.0997
  106MOL   H28646696   3.462   5.040   2.459 -0.8535  0.2148  1.6247
  106MOL   H28746697   3.338   5.121   2.380 -1.2829  1.0865  2.3177
  106MOL   C28846698   3.407   5.225   2.552  0.2047 -0.5844 -0.0016
  106MOL   C28946699   3.352   5.147   2.673 -0.0025 -0.2898 -0.8178
  106MOL   C29046700   3.229   5.055   2.641 -0.0855  0.0723  0.1935
  106MOL   C29146701   3.183   4.980   2.763  0.1248 -0.7481  0.3266
  106MOL   C29246702   3.294   4.907   2.824  0.2823  0.3779  0.0370
  106MOL   C29346703   3.407   4.998   2.861 -0.3065  0.0482 -0.6340
  106MOL   C29446704   3.459   5.067   2.735 -0.2740 -0.4866 -0.5711
  106MOL   C29546705   3.315   5.354   2.528 -0.0271  0.3884 -0.2891
  106MOL   H29646706   3.503   5.269   2.580 -0.2304  0.3967 -0.0543
  106MOL   H29746707   3.313   5.216   2.748  0.5445 -2.2754  1.3376
  106MOL   H29846708   3.143   5.116   2.613 -0.4531 -0.0511  1.0217
  106MOL   H29946709   3.246   4.980   2.564 -1.7301  1.4986 -1.6134
  106MOL   H30046710   3.135   5.054   2.828 -0.1876  0.8578 -1.6646
  106MOL   H30146711   3.101   4.910   2.744 -0.3099  0.5207 -2.7582
  106MOL   H30246712   3.320   4.818   2.766 -1.7583 -0.4986  0.4102
  106MOL   H30346713   3.246   4.872   2.916  1.8121  4.4378  2.5428
  106MOL   H30446714   3.487   4.943   2.910 -1.2796 -1.2944 -0.5300
  106MOL   H30546715   3.376   5.074   2.933  2.1776  0.2373  0.2755
  106MOL   H30646716   3.491   4.983   2.675  0.2000 -0.3781 -0.4711
  106MOL   H30746717   3.541   5.132   2.768 -1.0468  0.6447 -0.8317
  106MOL   H30846718   3.307   5.371   2.420 -3.1344  1.3684  0.0386
  106MOL   H30946719   3.212   5.323   2.546 -0.3268  0.6877 -1.4238
  106MOL   C31046720   3.347   5.495   2.587  0.1999  0.0557  0.2396
  106MOL   C31146721   3.297   5.606   2.487 -0.6931  0.2185  0.2414
  106MOL   C31246722   3.151   5.612   2.446 -0.1508 -0.3336  0.0864
  106MOL   C31346723   3.126   5.708   2.327  0.7721 -0.4661 -0.1927
  106MOL   C31446724   3.171   5.846   2.371  0.4702  0.4546  0.2850
  106MOL   C31546725   3.316   5.856   2.432  0.4621 -0.2881 -0.2035
  106MOL   C31646726   3.343   5.745   2.537 -0.3800 -0.0222 -0.1986
  106MOL   C31746727   3.280   5.504   2.732 -0.3707  0.2070  0.6173
  106MOL   H31846728   3.455   5.501   2.602  0.7415 -2.8730 -2.0176
  106MOL   H31946729   3.348   5.580   2.394 -1.0106 -1.9602  0.6621
  106MOL   H32046730   3.116   5.514   2.412 -3.2408  0.5836  0.4307
  106MOL   H32146731   3.083   5.649   2.522  0.2981 -2.8039  1.7450
  106MOL   H32246732   3.029   5.706   2.277  0.9657 -0.3668 -0.5673
  106MOL   H32346733   3.193   5.677   2.247  1.0418  0.8902 -0.4893
  106MOL   H32446734   3.165   5.913   2.285 -2.7549 -1.5365 -1.1150
  106MOL   H32546735   3.107   5.894   2.446  0.7934  1.1731  0.1045
  106MOL   H32646736   3.390   5.839   2.354  1.2690 -0.2454  0.5387
  106MOL   H32746737   3.330   5.957   2.470 -1.5332  0.0860 -0.4287
  106MOL   H32846738   3.284   5.785   2.619 -0.6603  1.2887 -1.0204
  106MOL   H32946739   3.449   5.742   2.562 -0.4032 -0.2697 -0.1308
  106MOL   H33046740   3.192   5.440   2.737  0.3556 -0.8742 -0.1887
  106MOL   H33146741   3.227   5.598   2.745  0.0333  0.1948  2.5290
  106MOL   C33246742   3.363   5.478   2.857 -0.2095 -0.4048 -0.6215
  106MOL   C33346743   3.268   5.474   2.981  0.2391  0.8824  0.7549
  106MOL   C33446744   3.176   5.343   2.990 -1.0181 -0.9016  0.2806
  106MOL   C33546745   3.128   5.323   3.134 -0.5429  0.2755  0.1787
  106MOL   C33646746   3.050   5.445   3.183  0.0695 -0.1588 -0.3016
  106MOL   C33746747   3.130   5.575   3.165 -0.0376  0.9380  0.1849
  106MOL   C33846748   3.188   5.592   3.022 -0.2839 -0.0406  0.5179
  106MOL   C33946749   3.492   5.567   2.882 -0.5606 -0.0302  0.0907
  106MOL   H34046750   3.399   5.376   2.845 -2.6524 -1.4984  0.9326
  106MOL   H34146751   3.340   5.458   3.060 -0.1511  0.6231  1.0588
  106MOL   H34246752   3.088   5.353   2.928  0.8377  1.5676 -2.0814
  106MOL   H34346753   3.224   5.253   2.953  0.7566  0.3354 -0.5022
  106MOL   H34446754   3.072   5.230   3.135 -0.8018  0.4231 -0.3255
  106MOL   H34546755   3.216   5.313   3.198 -0.8467 -0.5560  0.4572
  106MOL   H34646756   2.957   5.458   3.127 -0.3167  0.8452  0.5686
  106MOL   H34746757   3.016   5.428   3.285 -0.4203 -3.6078 -0.9537
  106MOL   H34846758   3.211   5.564   3.238 -0.1800  0.7828  0.3196
  106MOL   H34946759   3.058   5.649   3.201 -1.6355 -1.6013  2.3695
  106MOL   H35046760   3.250   5.681   3.035  0.2760 -0.4023  0.3352
  106MOL   H35146761   3.120   5.621   2.942  2.4036 -1.0326 -2.2000
  106MOL   H35246762   3.464   5.672   2.888 -0.8242 -0.0440 -0.7999
  106MOL   H35346763   3.547   5.569   2.788 -1.1956 -1.6549 -0.3352
  106MOL   C35446764   3.598   5.512   2.982 -0.0026 -0.5195  0.4541
  106MOL   C35546765   3.690   5.620   3.044  0.0788 -0.3563 -0.6152
  106MOL   C35646766   3.610   5.728   3.128 -0.0870 -0.0100 -0.1245
  106MOL   C35746767   3.714   5.814   3.211 -0.4723 -0.6245 -0.4946
  106MOL   C35846768   3.813   5.884   3.121 -0.1400 -0.6540  0.4595
  106MOL   C35946769   3.891   5.784   3.035  0.7569 -0.5630 -0.6708
  106MOL   C36046770   3.794   5.696   2.954  0.0214  0.3507  0.3524
  106MOL   C36146771   3.668   5.385   2.923  0.2436  0.3976 -1.1550
  106MOL   H36246772   3.549   5.462   3.066  2.7146 -1.8124  1.3368
  106MOL   H36346773   3.740   5.563   3.122 -1.8148 -0.7103  0.3787
  106MOL   H36446774   3.547   5.675   3.200 -0.1908 -0.3964 -0.4924
  106MOL   H36546775   3.550   5.795   3.067  1.6575  0.8591 -0.9021
  106MOL   H36646776   3.658   5.882   3.274  0.0798 -0.8466  0.2436
  106MOL   H36746777   3.762   5.745   3.280 -1.3561 -1.2176 -0.4560
  106MOL   H36846778   3.754   5.947   3.055  0.8483 -1.1695 -0.9463
  106MOL   H36946779   3.885   5.950   3.170  0.4948 -1.9811  1.3482
  106MOL   H37046780   3.938   5.831   2.949 -1.0366 -0.0551 -1.3886
  106MOL   H37146781   3.962   5.728   3.096  0.0182 -0.6578  0.1096
  106MOL   H37246782   3.861   5.623   2.907 -0.6683  0.6101 -1.0530
  106MOL   H37346783   3.739   5.759   2.884  0.3504  0.3388  0.0832
  106MOL   H37446784   3.716   5.416   2.830 -1.3161  1.1663 -1.7247
  106MOL   H37546785   3.590   5.318   2.888 -0.3039  1.4539 -2.0033
  106MOL   C37646786   3.765   5.314   3.022  0.6711 -0.1786  0.5944
  106MOL   C37746787   3.691   5.238   3.148  0.1313 -0.7948 -0.2350
  106MOL   C37846788   3.570   5.154   3.115  0.4782 -0.3852 -0.1409
  106MOL   C37946789   3.512   5.092   3.242  0.0458 -0.0894  0.0941
  106MOL   C38046790   3.480   5.192   3.355 -0.0390 -0.2605 -0.1867
  106MOL   C38146791   3.604   5.270   3.395  0.3595 -0.0599  0.5280
  106MOL   C38246792   3.669   5.333   3.272  0.1319  0.0314  0.6982
  106MOL   C38346793   3.843   5.209   2.943  0.7624 -0.0300 -0.0131
  106MOL   H38446794   3.833   5.394   3.050  0.1806  1.5645 -2.9361
  106MOL   H38546795   3.761   5.164   3.188  1.2511 -0.3277 -1.2802
  106MOL   H38646796   3.495   5.223   3.077  1.3510  0.5648 -0.1492
  106MOL   H38746797   3.590   5.079   3.038 -0.2179 -2.9730  2.0843
  106MOL   H38846798   3.590   5.021   3.271 -0.1640 -1.1488 -1.8720
  106MOL   H38946799   3.423   5.033   3.224  0.0462  0.3251 -1.3224
  106MOL   H39046800   3.419   5.277   3.323  1.9185  0.1094 -3.1970
  106MOL   H39146801   3.438   5.144   3.442 -2.1528  0.7740 -0.5962
  106MOL   H39246802   3.580   5.347   3.467  0.0401  0.6247 -0.3009
  106MOL   H39346803   3.680   5.209   3.445 -0.1578 -2.2190 -1.2121
  106MOL   H39446804   3.620   5.428   3.253  1.9389  1.1452  1.5133
  106MOL   H39546805   3.772   5.358   3.298  0.8262 -1.2344 -0.7252
  106MOL   H39646806   3.879   5.242   2.846 -0.4080  2.1317  0.2503
  106MOL   H39746807   3.781   5.124   2.916  0.7499 -0.6689  1.8912
  106MOL   C39846808   3.970   5.153   3.019  0.1172  0.5438  0.3465
  106MOL   C39946809   3.996   5.006   2.985  0.1249  0.2782 -0.5035
  106MOL   C40046810   3.889   4.909   3.043 -0.3360 -0.3570 -0.2065
  106MOL   C40146811   3.927   4.761   3.027 -0.1139 -0.5452  0.0044
  106MOL   C40246812   3.954   4.729   2.879  0.2467 -0.6496 -0.4846
  106MOL   C40346813   4.055   4.832   2.807 -0.5204 -0.9806  0.0119
  106MOL   C40446814   4.028   4.987   2.833  0.2739 -0.3916  0.3415
  106MOL   C40546815   4.095   5.252   3.019 -0.3256  0.3048  0.5235
  106MOL   H40646816   3.951   5.142   3.126  1.4122  2.6854  0.8324
  106MOL   H40746817   4.087   4.979   3.038  0.0812  0.8281 -0.1416
  106MOL   H40846818   3.799   4.929   2.984  1.3004  2.2139 -1.9081
  106MOL   H40946819   3.869   4.927   3.149  0.1332  0.7078 -0.2930
  106MOL   H41046820   3.853   4.690   3.066 -0.0050  0.5428  2.2859
  106MOL   H41146821   4.021   4.749   3.080 -0.1990  0.0025  0.2764
  106MOL   H41246822   3.860   4.733   2.823  0.1338  2.9994 -0.1566
  106MOL   H41346823   3.991   4.627   2.867 -0.6819 -0.9109 -1.1545
  106MOL   H41446824   4.154   4.807   2.846 -1.3582 -1.4069  1.9267
  106MOL   H41546825   4.053   4.833   2.698  0.1328  0.8504  0.0104
  106MOL   H41646826   4.117   5.041   2.802 -0.9010  2.0256  1.0509
  106MOL   H41746827   3.945   5.022   2.772  1.4195  0.7339 -0.5993
  106MOL   H41846828   4.187   5.194   3.010 -0.5646  0.0407 -0.2956
  106MOL   H41946829   4.094   5.316   2.931 -2.6626 -1.1049 -0.5544
  106MOL   C42046830   4.110   5.337   3.145  1.1737  0.2974  0.4532
  106MOL   C42146831   4.198   5.460   3.119 -0.4368  0.1987 -0.6928
  106MOL   C42246832   4.345   5.430   3.087 -0.3564 -0.2247 -0.0634
  106MOL   C42346833   4.425   5.563   3.061 -0.4748  0.1846  0.8320
  106MOL   C42446834   4.409   5.667   3.176 -0.0517 -0.0344  0.3440
  106MOL   C42546835   4.257   5.688   3.200 -0.1714  0.0957  0.1270
  106MOL   C42646836   4.181   5.560   3.241  0.4123 -0.5064  0.4219
  106MOL   C42746837   4.148   5.261   3.270 -0.0370  0.2007 -0.2786
  106MOL   H42846838   4.009   5.375   3.166  0.5777 -0.8219 -0.3415
  106MOL   H42946839   4.150   5.515   3.038 -1.5616 -0.0119 -0.1812
  106MOL   H43046840   4.385   5.370   3.168 -1.1508 -0.3674  0.2301
  106MOL   H43146841   4.354   5.364   3.000 -0.4393  0.5590 -0.6738
  106MOL   H43246842   4.531   5.539   3.069 -0.7528 -1.4624 -0.1571
  106MOL   H43346843   4.382   5.606   2.970 -0.2237 -0.4580  0.4044
  106MOL   H43446844   4.460   5.761   3.154  0.2092 -0.2990 -0.1820
  106MOL   H43546845   4.464   5.624   3.259 -0.1806  0.4467  0.6856
  106MOL   H43646846   4.223   5.716   3.100  2.1679 -2.8120 -1.5682
  106MOL   H43746847   4.238   5.770   3.269  2.3754  0.3715  0.5277
  106MOL   H43846848   4.207   5.517   3.338  0.5194 -0.4003  0.4396
  106MOL   H43946849   4.075   5.583   3.253  0.2971 -1.7440  1.9940
  106MOL   H44046850   4.069   5.190   3.295  1.3834 -1.1554  0.4057
  106MOL   H44146851   4.244   5.211   3.283 -1.0485 -1.3192  1.5938
  106MOL   H44246852   4.126   5.321   3.358  0.1774 -0.8104  0.4697
  107MOL     C146853   0.663   3.714   7.208  0.4109 -0.2549 -0.1184
  107MOL     C246854   0.742   3.741   7.341 -0.7393  0.3539  0.1029
  107MOL     C346855   0.679   3.666   7.461  0.5738  0.5331  0.1117
  107MOL     C446856   0.768   3.695   7.584  1.1605  0.3338 -0.2170
  107MOL     C546857   0.798   3.842   7.615  0.1551 -0.6215  0.2542
  107MOL     C646858   0.839   3.928   7.489 -0.0731 -1.1389  0.6411
  107MOL     C746859   0.750   3.891   7.370  1.0882  0.0824  0.3453
  107MOL     C846860   0.740   3.763   7.076  0.1481 -0.8041  0.1235
  107MOL     H946861   0.630   3.611   7.193 -1.4474  0.2963  0.0795
  107MOL    H1046862   0.843   3.703   7.322 -0.4188  0.5155  1.4086
  107MOL    H1146863   0.583   3.709   7.490 -0.9942 -1.9826 -1.1647
  107MOL    H1246864   0.682   3.557   7.454  2.3673  0.5100  0.8949
  107MOL    H1346865   0.863   3.644   7.574  1.3247  0.8493 -1.3441
  107MOL    H1446866   0.732   3.651   7.677 -1.6443  1.5787 -0.6375
  107MOL    H1546867   0.885   3.851   7.679 -1.3244  0.4563  2.1524
  107MOL    H1646868   0.717   3.892   7.668 -0.3741  1.3536 -2.3148
  107MOL    H1746869   0.839   4.035   7.507  1.5852 -1.2578  1.4595
  107MOL    H1846870   0.946   3.918   7.471  0.2486  1.1658  1.1101
  107MOL    H1946871   0.786   3.950   7.286 -2.2295  1.5775 -0.0946
  107MOL    H2046872   0.649   3.929   7.385  1.9445  1.7893  2.0130
  107MOL    H2146873   0.835   3.712   7.088  1.5647  1.7305  0.1512
  107MOL    H2246874   0.760   3.870   7.078 -1.9976 -0.2832 -3.0402
  107MOL    H2346875   0.573   3.772   7.225  1.2086  0.8452  0.3978
  107MOL    C2446876   0.673   3.718   6.943 -0.0816 -0.2409 -0.8594
  107MOL    C2546877   0.533   3.784   6.934  0.1220 -0.1171 -0.0059
  107MOL    C2646878   0.461   3.721   6.820 -0.1868 -0.3896  0.2659
  107MOL    C2746879   0.316   3.770   6.801  0.2931  0.4482  0.0173
  107MOL    C2846880   0.319   3.927   6.772 -0.0800 -0.3272 -0.1551
  107MOL    C2946881   0.393   3.998   6.887  0.4499  0.1862 -0.4026
  107MOL    C3046882   0.530   3.934   6.910  1.2540  0.0150  0.1610
  107MOL    C3146883   0.769   3.761   6.828  0.1677  0.6128 -0.6686
  107MOL    H3246884   0.667   3.609   6.946  3.0675 -0.4373  0.2871
  107MOL    H3346885   0.477   3.766   7.026 -0.7050 -1.5249 -0.7809
  107MOL    H3446886   0.468   3.613   6.834 -0.0902 -0.6666 -1.7725
  107MOL    H3546887   0.516   3.740   6.728  1.1017  1.2050  1.3309
  107MOL    H3646888   0.258   3.729   6.718 -0.3902  2.6336 -0.6096
  107MOL    H3746889   0.261   3.758   6.894  1.7862  0.6234  0.9326
  107MOL    H3846890   0.222   3.976   6.769  0.6049  1.0891  0.7803
  107MOL    H3946891   0.370   3.953   6.680  0.0840 -0.3628 -0.0739
  107MOL    H4046892   0.403   4.106   6.875 -0.9341  0.6044  2.0180
  107MOL    H4146893   0.338   4.001   6.981 -1.0272 -0.2770 -1.2420
  107MOL    H4246894   0.594   3.961   6.826  0.6545 -2.7610 -1.2250
  107MOL    H4346895   0.569   3.980   7.001  0.4589 -0.3268  0.6728
  107MOL    H4446896   0.800   3.864   6.845  1.0629  0.1868  0.3716
  107MOL    H4546897   0.723   3.773   6.730  1.6185  1.5729 -1.2603
  107MOL    C4646898   0.900   3.666   6.820 -0.5494 -0.2838 -0.2356
  107MOL    C4746899   1.029   3.756   6.828 -0.6510 -0.2756 -0.5362
  107MOL    C4846900   1.050   3.851   6.714 -0.3296  1.0025 -0.6351
  107MOL    C4946901   1.183   3.926   6.712 -0.5069 -0.3192 -0.0821
  107MOL    C5046902   1.300   3.824   6.732  0.0223 -0.8912 -0.5204
  107MOL    C5146903   1.277   3.744   6.858 -0.2769  0.3577 -0.1937
  107MOL    C5246904   1.154   3.663   6.852  0.0533  0.8133 -0.4311
  107MOL    C5346905   0.895   3.568   6.703 -0.6148 -0.2191  0.1473
  107MOL    H5446906   0.907   3.602   6.908 -0.5683 -1.3900 -1.0276
  107MOL    H5546907   1.016   3.817   6.918  0.4883 -1.5258  0.5106
  107MOL    H5646908   1.050   3.790   6.624 -0.1612  0.2341 -0.1179
  107MOL    H5746909   0.972   3.926   6.698 -2.6063 -0.3438  3.2367
  107MOL    H5846910   1.181   4.004   6.788  0.2688 -0.8671  0.5109
  107MOL    H5946911   1.195   3.978   6.616  0.3209 -1.4100 -0.5818
  107MOL    H6046912   1.308   3.760   6.644  0.8067 -0.6651 -0.6213
  107MOL    H6146913   1.391   3.884   6.743 -0.8226  0.5562 -1.3692
  107MOL    H6246914   1.270   3.804   6.948 -0.8507  0.1519 -0.1013
  107MOL    H6346915   1.370   3.687   6.857  0.7786  2.0503  0.0414
  107MOL    H6446916   1.162   3.590   6.771  1.8028  1.6898 -1.0661
  107MOL    H6546917   1.167   3.605   6.944 -0.7470  0.5916 -0.4518
  107MOL    H6646918   0.977   3.594   6.636 -2.1106  1.3336 -1.1432
  107MOL    H6746919   0.807   3.576   6.640 -0.2273 -1.0988 -0.5201
  107MOL    C6846920   0.929   3.418   6.742  0.0045 -0.2197 -0.1310
  107MOL    C6946921   0.805   3.346   6.820  0.3716  0.2629 -0.1062
  107MOL    C7046922   0.688   3.336   6.717 -0.2721 -0.1814 -0.7345
  107MOL    C7146923   0.560   3.274   6.787 -0.4283 -0.3616  0.3679
  107MOL    C7246924   0.599   3.130   6.826 -0.1855 -0.1101 -0.4651
  107MOL    C7346925   0.713   3.139   6.932 -0.1464  0.0870  0.5383
  107MOL    C7446926   0.840   3.209   6.885 -0.2154  0.8437 -0.9574
  107MOL    C7546927   0.985   3.331   6.619 -0.0860  0.0333 -0.2492
  107MOL    H7646928   1.009   3.412   6.816  0.9139 -1.6662 -1.1909
  107MOL    H7746929   0.762   3.409   6.897  3.8317  1.1330  1.2023
  107MOL    H7846930   0.719   3.278   6.631 -0.8852 -2.1059  0.3097
  107MOL    H7946931   0.662   3.432   6.673  1.8510 -0.4032 -2.5439
  107MOL    H8046932   0.514   3.339   6.861 -0.7499 -0.0755 -0.0820
  107MOL    H8146933   0.480   3.274   6.713  1.1525 -2.3581 -1.4423
  107MOL    H8246934   0.640   3.070   6.745  0.8332  2.1825 -1.6871
  107MOL    H8346935   0.511   3.078   6.866 -1.6355  1.2991 -1.7431
  107MOL    H8446936   0.733   3.038   6.967  0.0651 -0.0179  0.1122
  107MOL    H8546937   0.671   3.192   7.018 -2.8415 -0.7871 -0.1970
  107MOL    H8646938   0.879   3.141   6.810  0.2948 -0.3876  0.3943
  107MOL    H8746939   0.917   3.211   6.962 -2.1133  1.6758  0.9921
  107MOL    H8846940   0.947   3.229   6.612 -0.2445  0.0791 -0.0359
  107MOL    H8946941   0.937   3.381   6.534  0.5493 -0.8175 -1.1316
  107MOL    C9046942   1.134   3.325   6.589  0.0444  0.6263  0.6466
  107MOL    C9146943   1.215   3.225   6.670  0.4941  0.2230 -0.1669
  107MOL    C9246944   1.216   3.249   6.825  0.2888 -0.2262 -0.5506
  107MOL    C9346945   1.313   3.149   6.897 -0.3025 -0.2072 -0.2299
  107MOL    C9446946   1.289   3.003   6.861  0.3055  0.6320  0.0206
  107MOL    C9546947   1.289   2.978   6.710  0.4041 -0.4664  0.0957
  107MOL    C9646948   1.187   3.076   6.641 -0.3395  0.2142 -0.2787
  107MOL    C9746949   1.168   3.308   6.436  0.0597  0.5003  0.0508
  107MOL    H9846950   1.169   3.425   6.614  0.7617  0.6723 -0.5178
  107MOL    H9946951   1.319   3.244   6.643  0.8407 -0.7395  0.4329
  107MOL   H10046952   1.121   3.235   6.877  0.7813 -0.8730  0.1790
  107MOL   H10146953   1.245   3.349   6.857 -1.8278  0.6164 -1.1785
  107MOL   H10246954   1.306   3.175   7.003  0.3270 -0.8068 -0.0363
  107MOL   H10346955   1.420   3.165   6.881  0.0681  1.3601  3.2713
  107MOL   H10446956   1.190   2.974   6.897  0.7856  0.4088  1.1869
  107MOL   H10546957   1.358   2.931   6.905  1.0052  0.1952 -1.7326
  107MOL   H10646958   1.388   3.012   6.679  0.1215  1.5039  1.2530
  107MOL   H10746959   1.282   2.876   6.672  0.0461  0.3723 -2.1357
  107MOL   H10846960   1.191   3.041   6.537 -1.3626 -0.4835 -0.0903
  107MOL   H10946961   1.084   3.057   6.671 -0.4273  0.4450 -0.4322
  107MOL   H11046962   1.124   3.213   6.406  1.5954 -0.0692 -0.4379
  107MOL   H11146963   1.120   3.385   6.375  3.2558  2.5748  0.0182
  107MOL   C11246964   1.315   3.308   6.387  0.5325 -0.3556 -0.3858
  107MOL   C11346965   1.387   3.442   6.391  0.7429 -0.2937  0.0870
  107MOL   C11446966   1.327   3.556   6.303 -0.1563 -0.5293  0.0148
  107MOL   C11546967   1.416   3.683   6.304 -0.0052  0.2702  0.0022
  107MOL   C11646968   1.563   3.651   6.285  0.4075 -0.4970 -0.4345
  107MOL   C11746969   1.621   3.550   6.379 -0.1100 -0.3246  0.3765
  107MOL   C11846970   1.538   3.424   6.358  0.0010  0.1724  0.4381
  107MOL   C11946971   1.318   3.239   6.248  0.4600 -0.1955 -0.4676
  107MOL   H12046972   1.378   3.244   6.449 -1.4989 -2.1714 -0.1212
  107MOL   H12146973   1.381   3.480   6.493  3.6028 -2.8935  1.2864
  107MOL   H12246974   1.225   3.581   6.332 -1.2441 -3.2460 -1.3284
  107MOL   H12346975   1.329   3.528   6.198 -0.6212  1.2243 -0.4791
  107MOL   H12446976   1.383   3.742   6.218 -0.5688  0.3151  0.2448
  107MOL   H12546977   1.418   3.739   6.398 -1.5734 -0.9979  0.8161
  107MOL   H12646978   1.576   3.606   6.186 -1.3624  0.4426 -1.1180
  107MOL   H12746979   1.618   3.745   6.281  0.5887 -0.5751  0.2426
  107MOL   H12846980   1.720   3.540   6.334  0.6014  0.2106  1.8107
  107MOL   H12946981   1.634   3.578   6.484  1.4179  1.5589 -0.2633
  107MOL   H13046982   1.588   3.344   6.412 -1.2127 -0.5984  0.4408
  107MOL   H13146983   1.548   3.397   6.253 -1.2347 -1.0608  0.6168
  107MOL   H13246984   1.389   3.290   6.183  0.3649  1.1243  0.4383
  107MOL   H13346985   1.233   3.274   6.189  0.0480 -0.1684  0.1391
  107MOL   C13446986   1.341   3.084   6.250 -0.1310 -0.1608  0.2778
  107MOL   C13546987   1.486   3.042   6.290  0.4318 -0.5234  0.6263
  107MOL   C13646988   1.578   3.060   6.168 -0.0985  0.3109 -0.0234
  107MOL   C13746989   1.722   3.046   6.198 -1.1538  0.9623 -0.1523
  107MOL   C13846990   1.727   2.901   6.239  0.1258 -0.4662  0.3466
  107MOL   C13946991   1.653   2.869   6.370  0.3928 -0.2123 -0.5309
  107MOL   C14046992   1.500   2.896   6.347 -0.7086  0.1246 -0.4626
  107MOL   C14146993   1.274   3.010   6.136 -0.3662 -0.0900 -0.5280
  107MOL   H14246994   1.294   3.065   6.347 -1.5776  0.0705 -0.3739
  107MOL   H14346995   1.528   3.108   6.365 -1.7779  2.9098 -1.0085
  107MOL   H14446996   1.536   2.998   6.089  0.0513 -0.7065  0.6959
  107MOL   H14546997   1.577   3.165   6.137  2.8271 -0.4261 -2.8728
  107MOL   H14646998   1.750   3.101   6.288  0.7028  0.4458 -0.3985
  107MOL   H14746999   1.780   3.069   6.108 -0.4685  0.0233  0.0436
  107MOL   H14847000   1.684   2.841   6.160 -0.0881 -1.1162  0.9555
  107MOL   H14947001   1.829   2.863   6.238  0.0708 -0.5865 -0.5842
  107MOL   H15047002   1.689   2.915   6.462 -0.2782  0.6368 -0.6868
  107MOL   H15147003   1.672   2.766   6.398 -0.6693 -0.5394 -1.0077
  107MOL   H15247004   1.469   2.825   6.271 -3.2860 -0.0181  0.6838
  107MOL   H15347005   1.446   2.889   6.442 -0.6167 -1.8951 -0.5271
  107MOL   H15447006   1.305   2.908   6.158 -2.8678 -1.0547 -1.2855
  107MOL   H15547007   1.328   3.032   6.044 -0.7186 -0.0666 -0.7332
  107MOL   C15647008   1.118   3.019   6.123 -0.5971 -0.7150  0.5972
  107MOL   C15747009   1.038   2.963   6.241  0.0457  0.2817  0.5170
  107MOL   C15847010   0.885   2.995   6.238 -0.3598  0.0256 -0.0140
  107MOL   C15947011   0.823   2.978   6.377 -0.2060 -0.1623  0.0276
  107MOL   C16047012   0.851   2.834   6.441  0.4689 -0.1144 -0.0553
  107MOL   C16147013   0.992   2.787   6.422 -0.2473 -0.6446  0.7754
  107MOL   C16247014   1.060   2.814   6.281 -0.1347  0.3007 -0.3335
  107MOL   C16347015   1.079   2.976   5.981 -0.3758 -0.2074  0.3891
  107MOL   H16447016   1.092   3.123   6.141  2.0221 -0.0850  0.9730
  107MOL   H16547017   1.075   3.021   6.325  1.7836  0.4492 -0.3266
  107MOL   H16647018   0.877   3.101   6.212  2.2290  0.0622 -0.8209
  107MOL   H16747019   0.830   2.940   6.161 -0.0071  0.2414 -0.4262
  107MOL   H16847020   0.864   3.057   6.441 -1.5717  0.9249 -0.4040
  107MOL   H16947021   0.717   3.001   6.370 -0.0285  0.1203 -1.8103
  107MOL   H17047022   0.770   2.767   6.415  1.2217 -0.5020 -1.4508
  107MOL   H17147023   0.825   2.825   6.547 -2.1870 -0.2987 -0.7074
  107MOL   H17247024   0.991   2.681   6.446  0.2811 -0.2677  2.5920
  107MOL   H17347025   1.041   2.838   6.505  0.1565 -1.2247  0.8959
  107MOL   H17447026   1.168   2.799   6.286 -0.0644  1.2298  1.1961
  107MOL   H17547027   1.016   2.749   6.206 -0.5020  1.7896 -1.4290
  107MOL   H17647028   1.014   2.889   5.996  1.1056 -1.2258  0.9616
  107MOL   H17747029   1.158   2.926   5.925  0.2232  1.1425  0.0289
  107MOL   C17847030   1.009   3.081   5.888 -0.9427 -0.4871 -0.4608
  107MOL   C17947031   1.101   3.186   5.826  0.1407  0.2385 -0.4657
  107MOL   C18047032   1.223   3.136   5.745  0.7331 -0.2092 -0.2360
  107MOL   C18147033   1.308   3.243   5.675  0.7003  0.6323  0.2039
  107MOL   C18247034   1.360   3.347   5.781 -0.0639 -0.1367 -0.0230
  107MOL   C18347035   1.250   3.395   5.868  0.5090  0.0636  0.8478
  107MOL   C18447036   1.166   3.284   5.928  0.3223  0.2829 -0.0837
  107MOL   C18547037   0.930   3.003   5.774  0.5891 -0.8290 -0.2355
  107MOL   H18647038   0.930   3.130   5.944  0.5405 -0.9797  2.1426
  107MOL   H18747039   1.044   3.254   5.763 -1.9668 -0.5709  0.5066
  107MOL   H18847040   1.289   3.080   5.810 -0.9494  1.1544  2.7796
  107MOL   H18947041   1.190   3.063   5.671 -1.1005 -0.7880  1.1313
  107MOL   H19047042   1.243   3.291   5.601  1.6122  1.9445  0.2491
  107MOL   H19147043   1.391   3.190   5.629 -0.8673 -2.3612  0.6308
  107MOL   H19247044   1.453   3.316   5.829 -1.8479 -1.7012  2.5234
  107MOL   H19347045   1.383   3.436   5.723 -3.8068  0.4625 -0.6940
  107MOL   H19447046   1.177   3.451   5.808  1.0081 -0.4501 -0.2613
  107MOL   H19547047   1.283   3.465   5.944  1.8928 -1.9307  2.1405
  107MOL   H19647048   1.225   3.225   5.997 -2.1583 -0.4940  1.4184
  107MOL   H19747049   1.089   3.329   5.991 -0.9925  0.6684 -1.8982
  107MOL   H19847050   0.945   3.049   5.676 -0.5356  1.1358  0.4888
  107MOL   H19947051   0.966   2.900   5.783  2.1560 -0.1083  2.5815
  107MOL   C20047052   0.786   2.995   5.798 -0.0659  1.0589  0.5077
  107MOL   C20147053   0.711   3.136   5.771  0.2696 -0.6847 -0.3002
  107MOL   C20247054   0.672   3.165   5.621  0.0091 -0.1969 -0.3805
  107MOL   C20347055   0.586   3.296   5.618  0.4756 -0.0392 -0.5305
  107MOL   C20447056   0.461   3.296   5.713 -0.0935  0.6863  0.4958
  107MOL   C20547057   0.508   3.266   5.855 -1.1923 -0.2970  0.3890
  107MOL   C20647058   0.589   3.139   5.863  0.3390 -0.0814 -0.1679
  107MOL   C20747059   0.722   2.883   5.713 -0.3022 -0.7409  0.1581
  107MOL   H20847060   0.783   2.976   5.905  0.6931 -1.3685  0.1245
  107MOL   H20947061   0.780   3.211   5.810 -1.3187  0.3956  0.5074
  107MOL   H21047062   0.617   3.088   5.567 -0.7076  1.4414 -2.0147
  107MOL   H21147063   0.761   3.180   5.560 -0.2205  0.4407 -0.5636
  107MOL   H21247064   0.648   3.382   5.646  0.5283  1.3408 -4.5155
  107MOL   H21347065   0.556   3.317   5.515  1.2136  1.3479 -0.4727
  107MOL   H21447066   0.417   3.396   5.709  0.6785  0.9858 -0.7020
  107MOL   H21547067   0.379   3.238   5.671  0.1181 -0.7466  2.0093
  107MOL   H21647068   0.575   3.349   5.877  0.1124 -1.0203 -0.7720
  107MOL   H21747069   0.423   3.272   5.923 -0.9945  0.6371  0.5610
  107MOL   H21847070   0.623   3.115   5.964  2.7454  0.5162 -0.8177
  107MOL   H21947071   0.523   3.059   5.826  1.5770 -1.6358  0.9083
  107MOL   H22047072   0.617   2.911   5.703 -0.5560 -1.8403 -0.3675
  107MOL   H22147073   0.761   2.881   5.611  0.7321 -0.8150  0.5499
  107MOL   C22247074   0.747   2.723   5.760  0.6078 -0.3975 -0.4766
  107MOL   C22347075   0.722   2.716   5.914  0.4988  0.9170  0.0118
  107MOL   C22447076   0.738   2.569   5.969 -0.1239 -0.3906  0.0670
  107MOL   C22547077   0.726   2.563   6.125 -0.1397  0.2078  0.3799
  107MOL   C22647078   0.583   2.609   6.163  0.4171 -0.0286 -0.3318
  107MOL   C22747079   0.554   2.748   6.104  0.2640 -0.3776  0.8066
  107MOL   C22847080   0.574   2.757   5.953  0.4126 -0.0570 -0.6132
  107MOL   C22947081   0.668   2.627   5.671 -0.6500 -0.5588 -0.4632
  107MOL   H23047082   0.854   2.705   5.751  0.9556  0.9970  0.7997
  107MOL   H23147083   0.798   2.780   5.959 -0.5285  1.6705  0.7231
  107MOL   H23247084   0.665   2.511   5.913 -1.3189  1.8150 -0.7640
  107MOL   H23347085   0.840   2.534   5.950  0.3343  1.6583 -1.4191
  107MOL   H23447086   0.787   2.642   6.167  1.0423  0.5664 -1.9222
  107MOL   H23547087   0.755   2.469   6.173 -2.0854 -0.6138  0.0214
  107MOL   H23647088   0.504   2.545   6.124 -1.9668  1.5526  1.7089
  107MOL   H23747089   0.576   2.604   6.271 -0.1215  0.2758 -0.3493
  107MOL   H23847090   0.611   2.829   6.148  1.0081 -0.6387  0.3528
  107MOL   H23947091   0.451   2.777   6.124  0.2963  1.0492 -1.0353
  107MOL   H24047092   0.493   2.704   5.902 -0.4031  1.8878 -1.3765
  107MOL   H24147093   0.555   2.862   5.932 -1.1390 -0.5693 -1.8314
  107MOL   H24247094   0.564   2.657   5.662 -0.3198  0.8085  0.2350
  107MOL   H24347095   0.661   2.521   5.696  0.6811 -0.2926  1.0841
  107MOL   C24447096   0.721   2.619   5.526 -0.1418  0.7606 -0.4686
  107MOL   C24547097   0.615   2.612   5.414  0.0044  0.2893 -0.4123
  107MOL   C24647098   0.524   2.733   5.402  0.0189 -0.8748  0.1673
  107MOL   C24747099   0.418   2.714   5.293  0.3209 -0.3629  0.8248
  107MOL   C24847100   0.337   2.581   5.310  0.2566 -0.0331  0.4107
  107MOL   C24947101   0.433   2.459   5.314 -0.1931 -0.2402  0.7220
  107MOL   C25047102   0.544   2.479   5.421 -0.0531  0.1276 -0.5111
  107MOL   C25147103   0.842   2.528   5.505 -1.0768 -0.1186  0.3988
  107MOL   H25247104   0.765   2.712   5.491  1.1180  0.0400 -0.8539
  107MOL   H25347105   0.672   2.602   5.322 -0.0576 -1.8935 -0.2402
  107MOL   H25447106   0.586   2.822   5.389 -2.6851  1.0647  0.0442
  107MOL   H25547107   0.467   2.757   5.491  1.7463 -1.6088  1.4988
  107MOL   H25647108   0.352   2.800   5.281 -0.5939 -1.1815 -0.1996
  107MOL   H25747109   0.477   2.709   5.201 -0.1380  0.5871  0.4661
  107MOL   H25847110   0.272   2.598   5.396 -0.2114  0.5745 -0.0509
  107MOL   H25947111   0.268   2.575   5.226 -0.1100 -1.7811  0.8243
  107MOL   H26047112   0.476   2.435   5.217 -0.8746  0.8239  0.1388
  107MOL   H26147113   0.390   2.363   5.342  1.3187 -0.5839  1.9519
  107MOL   H26247114   0.495   2.459   5.516  2.5392  0.5284  0.9490
  107MOL   H26347115   0.616   2.400   5.399  0.1559  0.3322 -0.5661
  107MOL   H26447116   0.814   2.428   5.472  1.2405 -0.0893 -1.8029
  107MOL   H26547117   0.890   2.525   5.603 -3.9315 -1.6682  1.7928
  107MOL   C26647118   0.947   2.570   5.399  0.0980 -0.6068  0.6256
  107MOL   C26747119   1.040   2.690   5.460 -0.3383 -0.4401  0.4475
  107MOL   C26847120   1.088   2.775   5.341 -0.7576  0.6668 -0.2708
  107MOL   C26947121   1.177   2.896   5.389  0.0883  0.7221  0.5502
  107MOL   C27047122   1.292   2.856   5.485 -0.1088  0.4238 -0.0173
  107MOL   C27147123   1.234   2.763   5.600  0.0991 -0.6296  0.1247
  107MOL   C27247124   1.163   2.641   5.542  0.3442  0.5333  0.0043
  107MOL   C27347125   1.033   2.451   5.342  0.1695 -0.6220 -0.5002
  107MOL   H27447126   0.882   2.604   5.318  0.5833  0.2703  0.5936
  107MOL   H27547127   0.981   2.754   5.525 -0.0937  1.9934 -1.6459
  107MOL   H27647128   1.136   2.701   5.276  1.9898  1.8166  0.3954
  107MOL   H27747129   1.001   2.813   5.288 -2.2331 -2.3169 -0.0776
  107MOL   H27847130   1.112   2.972   5.433 -0.1466  1.3901 -0.8961
  107MOL   H27947131   1.205   2.946   5.296 -0.4719  1.0026  0.5296
  107MOL   H28047132   1.355   2.788   5.427  1.5878  0.8558  1.2588
  107MOL   H28147133   1.340   2.947   5.521  0.1620 -0.4228  1.8428
  107MOL   H28247134   1.183   2.816   5.681 -0.2865  1.1813 -1.2775
  107MOL   H28347135   1.323   2.730   5.654 -0.0974  0.8500  1.4002
  107MOL   H28447136   1.124   2.581   5.625  0.2909 -0.0897 -0.4655
  107MOL   H28547137   1.233   2.582   5.483  1.0986  1.3997  0.0218
  107MOL   H28647138   1.072   2.395   5.427 -0.9206 -1.3428 -0.4613
  107MOL   H28747139   1.120   2.495   5.294  0.9709  0.3422  1.7649
  107MOL   C28847140   0.955   2.368   5.240 -0.6688  0.6712  0.1629
  107MOL   C28947141   0.993   2.214   5.250  0.4375  0.3530  0.6001
  107MOL   C29047142   1.145   2.181   5.251 -0.1724  0.3029  0.3326
  107MOL   C29147143   1.176   2.037   5.266 -0.5029 -0.0468 -0.3582
  107MOL   C29247144   1.099   1.968   5.379 -0.2776 -0.3588 -0.0815
  107MOL   C29347145   0.954   1.994   5.372 -0.4766  0.3920 -0.1899
  107MOL   C29447146   0.929   2.147   5.375  0.6414 -0.0188  0.3839
  107MOL   C29547147   0.965   2.429   5.095  0.0698 -0.1476 -0.3851
  107MOL   H29647148   0.847   2.375   5.256 -0.3334  0.8460  2.4649
  107MOL   H29747149   0.942   2.162   5.169  1.3301 -1.0543  0.9296
  107MOL   H29847150   1.192   2.224   5.162 -2.3984  1.6997 -0.2367
  107MOL   H29947151   1.190   2.244   5.327  1.0351 -0.3049  0.1312
  107MOL   H30047152   1.164   1.998   5.165  1.7622 -0.7312 -0.4067
  107MOL   H30147153   1.283   2.017   5.269 -0.8826 -2.4359 -1.6743
  107MOL   H30247154   1.134   2.011   5.472 -1.7080  1.7707 -0.4715
  107MOL   H30347155   1.129   1.864   5.383  0.6037 -0.0470  2.1074
  107MOL   H30447156   0.897   1.950   5.454 -0.2021  0.6312  0.1328
  107MOL   H30547157   0.906   1.958   5.281 -0.7955  0.6860 -0.1415
  107MOL   H30647158   0.971   2.208   5.455  0.5297  0.6799 -0.0787
  107MOL   H30747159   0.825   2.174   5.358  0.3641 -1.1871  0.1892
  107MOL   H30847160   0.974   2.537   5.088 -0.3354  0.0377  1.7153
  107MOL   H30947161   1.068   2.401   5.071  0.5702  0.3290  1.1743
  107MOL   C31047162   0.870   2.359   4.985 -0.5363  0.3316 -0.2411
  107MOL   C31147163   0.735   2.440   4.964  0.6386  0.2864 -0.1229
  107MOL   C31247164   0.732   2.545   4.851  0.7726  0.9433  0.1698
  107MOL   C31347165   0.592   2.605   4.815 -0.6666  0.4344 -0.5713
  107MOL   C31447166   0.492   2.488   4.785 -0.0482 -0.1377 -0.2518
  107MOL   C31547167   0.487   2.403   4.911 -0.1668  0.0082  0.1574
  107MOL   C31647168   0.624   2.336   4.947  0.4888 -0.7414 -0.3876
  107MOL   C31747169   0.961   2.339   4.856  0.2353  0.4715  0.2099
  107MOL   H31847170   0.846   2.258   5.017  1.6680 -0.1855 -0.1520
  107MOL   H31947171   0.710   2.489   5.058 -4.7967  0.6045 -1.5685
  107MOL   H32047172   0.798   2.627   4.881  1.2387  0.7608 -0.3593
  107MOL   H32147173   0.784   2.512   4.761  1.1057  0.3446  0.5766
  107MOL   H32247174   0.603   2.671   4.729 -0.2038 -0.3985 -1.1648
  107MOL   H32347175   0.558   2.663   4.901  1.5757  0.5143  0.2943
  107MOL   H32447176   0.395   2.525   4.750 -0.1006  0.3256  0.3720
  107MOL   H32547177   0.533   2.430   4.702 -1.3965 -0.6196 -0.5986
  107MOL   H32647178   0.458   2.462   4.998 -1.6795  0.1682 -0.4480
  107MOL   H32747179   0.401   2.341   4.887 -0.8221  0.5649  1.0271
  107MOL   H32847180   0.632   2.257   4.872  0.0776 -2.1185  1.0072
  107MOL   H32947181   0.615   2.295   5.047 -1.1956  0.9917  0.1942
  107MOL   H33047182   1.060   2.307   4.888 -0.3247 -0.0553  1.4486
  107MOL   H33147183   0.975   2.440   4.817  0.0719  0.8470  1.1194
  107MOL   C33247184   0.913   2.251   4.739  0.5205  1.0701  0.3051
  107MOL   C33347185   0.897   2.092   4.779 -0.0543  0.1893  0.4205
  107MOL   C33447186   1.029   2.013   4.797  1.0875 -0.6461 -0.3380
  107MOL   C33547187   1.000   1.864   4.843 -0.2624 -0.2281  0.6641
  107MOL   C33647188   0.913   1.801   4.731 -0.2243  0.0066 -0.8451
  107MOL   C33747189   0.786   1.878   4.706  0.7007 -0.3338  0.4195
  107MOL   C33847190   0.808   2.024   4.678  0.7003  0.4113 -0.1745
  107MOL   C33947191   1.007   2.256   4.613 -0.3297 -0.4280  0.2132
  107MOL   H34047192   0.811   2.280   4.711  0.6321  2.0488  0.8921
  107MOL   H34147193   0.846   2.079   4.875 -0.2999  2.7514  0.6650
  107MOL   H34247194   1.083   2.001   4.703 -0.2872 -1.7921 -1.0112
  107MOL   H34347195   1.095   2.077   4.855  0.2870  1.9232 -2.1804
  107MOL   H34447196   1.092   1.807   4.848  0.3986  0.7408 -0.3172
  107MOL   H34547197   0.965   1.840   4.943 -1.7816 -1.5360 -0.1655
  107MOL   H34647198   0.968   1.795   4.637 -0.4329  1.1076 -1.0415
  107MOL   H34747199   0.879   1.702   4.759  1.9128 -0.4467  0.2368
  107MOL   H34847200   0.732   1.869   4.800 -0.0670 -1.5658 -0.1244
  107MOL   H34947201   0.720   1.834   4.632  0.6509 -1.1423  0.9407
  107MOL   H35047202   0.708   2.067   4.680  1.0400  1.2915 -1.2349
  107MOL   H35147203   0.832   2.043   4.573  2.8695  3.0431  0.7397
  107MOL   H35247204   1.007   2.164   4.554  1.1164 -0.5381  0.3773
  107MOL   H35347205   1.104   2.262   4.663  0.0053  0.7699 -0.5944
  107MOL   C35447206   0.993   2.388   4.532  0.1311  0.1947  0.6817
  107MOL   C35547207   0.856   2.389   4.447  0.2243  0.1331  0.3679
  107MOL   C35647208   0.853   2.297   4.327  0.0379  0.2777  0.6258
  107MOL   C35747209   0.713   2.287   4.265 -0.0164 -0.3757 -0.1752
  107MOL   C35847210   0.661   2.422   4.218  0.2029  0.7488  0.0376
  107MOL   C35947211   0.672   2.528   4.329 -0.0858  0.4452 -0.0816
  107MOL   C36047212   0.811   2.524   4.397  0.0993  0.2286 -0.4097
  107MOL   C36147213   1.121   2.424   4.449  0.1085 -1.7132 -0.3249
  107MOL   H36247214   0.983   2.472   4.601 -1.6144  1.3309 -0.9105
  107MOL   H36347215   0.780   2.349   4.515  0.6051 -2.3072 -0.5592
  107MOL   H36447216   0.878   2.195   4.359  1.4420 -0.1159 -1.6339
  107MOL   H36547217   0.935   2.320   4.259  1.4740 -1.0772  1.8361
  107MOL   H36647218   0.712   2.211   4.188  0.9595  0.5910 -1.1522
  107MOL   H36747219   0.645   2.255   4.344  0.2483  1.2863  0.7501
  107MOL   H36847220   0.717   2.450   4.129  0.4701 -0.8262 -0.2985
  107MOL   H36947221   0.557   2.424   4.188  0.1279 -0.0906  0.2257
  107MOL   H37047222   0.644   2.625   4.290 -2.7179 -0.4072 -0.4450
  107MOL   H37147223   0.594   2.493   4.397  0.8025  0.9841  1.2394
  107MOL   H37247224   0.817   2.597   4.478  0.4535 -0.1704 -0.0731
  107MOL   H37347225   0.888   2.554   4.327  0.0173  1.5209  0.0487
  107MOL   H37447226   1.103   2.505   4.379 -0.3753 -1.5494 -0.0133
  107MOL   H37547227   1.139   2.334   4.390  1.7916 -3.0942  2.1591
  107MOL   C37647228   1.246   2.473   4.536 -0.2678  0.0180  0.6305
  107MOL   C37747229   1.379   2.403   4.514 -0.3540  0.3396  0.2936
  107MOL   C37847230   1.435   2.413   4.375 -0.7345  0.0244  0.8256
  107MOL   C37947231   1.575   2.346   4.367  0.0802  0.4359  0.3141
  107MOL   C38047232   1.582   2.203   4.430  0.1214  0.0631  0.5908
  107MOL   C38147233   1.524   2.199   4.572 -0.1253 -0.3633 -0.5409
  107MOL   C38247234   1.380   2.256   4.569  0.5537 -0.1842  0.0572
  107MOL   C38347235   1.257   2.621   4.523 -0.1709 -1.0638 -0.3016
  107MOL   H38447236   1.211   2.457   4.638 -0.3862  0.7334  0.7025
  107MOL   H38547237   1.456   2.455   4.571 -0.5463 -1.0457  1.8602
  107MOL   H38647238   1.365   2.361   4.309  1.1544 -1.4517 -0.0460
  107MOL   H38747239   1.444   2.518   4.348 -1.6793 -0.6274 -2.2160
  107MOL   H38847240   1.647   2.417   4.408 -0.9214  2.3391 -1.1275
  107MOL   H38947241   1.607   2.322   4.266  1.2971  0.8694  0.5884
  107MOL   H39047242   1.531   2.132   4.366  1.4502  1.1564 -1.7533
  107MOL   H39147243   1.686   2.170   4.433  0.1273  0.1748  3.4158
  107MOL   H39247244   1.523   2.098   4.615  0.4210 -0.5315 -0.9143
  107MOL   H39347245   1.576   2.258   4.646  0.3724 -0.5274 -0.7582
  107MOL   H39447246   1.308   2.199   4.510 -0.7184  2.9567 -1.5317
  107MOL   H39547247   1.341   2.255   4.671  0.3823  0.3782 -0.0032
  107MOL   H39647248   1.157   2.664   4.519  0.5167  0.6082 -0.1693
  107MOL   H39747249   1.287   2.643   4.421 -1.0645 -1.5524 -0.6719
  107MOL   C39847250   1.329   2.708   4.637 -0.2566  0.3603 -0.9938
  107MOL   C39947251   1.377   2.846   4.588  0.2035  0.3627  0.0464
  107MOL   C40047252   1.477   2.831   4.469 -0.4201 -0.5352 -0.1194
  107MOL   C40147253   1.540   2.966   4.435  0.3013  0.1801  0.9619
  107MOL   C40247254   1.433   3.065   4.402 -0.4192  0.3464  0.3425
  107MOL   C40347255   1.331   3.085   4.520  0.2474 -0.1028  0.3621
  107MOL   C40447256   1.268   2.951   4.562 -0.1340 -1.3075 -0.0732
  107MOL   C40547257   1.236   2.712   4.763  0.0568  0.1981 -0.2108
  107MOL   H40647258   1.416   2.648   4.666  0.7975  2.2670 -0.1252
  107MOL   H40747259   1.446   2.884   4.663  1.1956 -1.5541  0.1448
  107MOL   H40847260   1.429   2.792   4.379 -0.2554 -0.0889 -0.3987
  107MOL   H40947261   1.554   2.759   4.496  0.4093  0.3016 -0.2385
  107MOL   H41047262   1.610   2.954   4.352 -0.1445  2.7687  0.1887
  107MOL   H41147263   1.602   3.011   4.512  1.0715 -1.6139  1.4327
  107MOL   H41247264   1.381   3.019   4.319  0.7492 -1.3768  0.5229
  107MOL   H41347265   1.472   3.159   4.363 -2.3446  0.6859 -0.8255
  107MOL   H41447266   1.382   3.112   4.613  0.6524  2.2608 -0.5072
  107MOL   H41547267   1.256   3.164   4.510 -0.0682 -0.1212  2.3464
  107MOL   H41647268   1.197   2.967   4.643 -0.3078 -1.1328 -0.2594
  107MOL   H41747269   1.204   2.916   4.481 -2.7921 -1.2902  1.9818
  107MOL   H41847270   1.156   2.770   4.719 -0.8480 -1.4673 -0.8014
  107MOL   H41947271   1.208   2.609   4.786 -1.8525  0.5630 -0.7984
  107MOL   C42047272   1.289   2.781   4.898  0.0005  0.5542  0.0186
  107MOL   C42147273   1.366   2.684   4.992 -0.1151 -0.1847  0.2786
  107MOL   C42247274   1.439   2.773   5.095  0.2838 -0.1304 -0.4308
  107MOL   C42347275   1.534   2.693   5.192 -0.6775  0.2074 -0.0188
  107MOL   C42447276   1.628   2.599   5.115  1.1219 -0.0076  0.5747
  107MOL   C42547277   1.544   2.501   5.022 -0.5298 -0.4964  0.0317
  107MOL   C42647278   1.452   2.575   4.922 -0.5581  0.6331  0.1447
  107MOL   C42747279   1.168   2.850   4.967  0.0338  0.3403  0.5809
  107MOL   H42847280   1.353   2.863   4.866 -2.8710  2.5910 -0.7547
  107MOL   H42947281   1.288   2.628   5.043  0.8935 -1.3081  0.5973
  107MOL   H43047282   1.498   2.852   5.050  3.7496 -1.1067  2.1974
  107MOL   H43147283   1.362   2.823   5.154  0.3164  0.6109 -1.0200
  107MOL   H43247284   1.587   2.758   5.260 -0.4693  1.2511 -1.1638
  107MOL   H43347285   1.468   2.632   5.255  0.2794 -0.6346  0.1848
  107MOL   H43447286   1.683   2.545   5.192 -1.2922  0.3326  2.6036
  107MOL   H43547287   1.699   2.653   5.052  1.2177 -0.6697  0.1048
  107MOL   H43647288   1.490   2.445   5.099  1.6042 -0.6887  1.4219
  107MOL   H43747289   1.606   2.426   4.973  0.9741  1.5788 -1.3291
  107MOL   H43847290   1.517   2.622   4.847  1.9407 -2.2200  0.4486
  107MOL   H43947291   1.395   2.505   4.862  0.5609  0.5545 -0.8592
  107MOL   H44047292   1.102   2.775   5.010 -0.4140 -0.0475 -0.7629
  107MOL   H44147293   1.204   2.921   5.041  1.5218 -0.4233  0.6164
  107MOL   H44247294   1.105   2.907   4.898 -2.0347 -0.5564  1.7062
  108MOL     C147295   1.459   6.946   5.682  0.2101 -0.2031 -0.0827
  108MOL     C247296   1.493   6.998   5.544  0.3237 -0.4023  0.1153
  108MOL     C347297   1.602   6.908   5.486  0.6940  0.4113 -0.0027
  108MOL     C447298   1.650   6.941   5.345  0.1245  0.0021 -0.5562
  108MOL     C547299   1.702   7.088   5.347 -0.3097 -0.0498 -1.0348
  108MOL     C647300   1.597   7.189   5.405 -0.1740  0.2837  0.2637
  108MOL     C747301   1.542   7.145   5.548  0.0488 -0.3036 -0.2303
  108MOL     C847302   1.322   7.001   5.725  0.1931  0.3131 -0.0613
  108MOL     H947303   1.458   6.837   5.677  2.7161 -0.1847 -2.1564
  108MOL    H1047304   1.412   6.996   5.472  1.5900  3.3696 -1.5147
  108MOL    H1147305   1.696   6.927   5.538  0.6255 -0.5487  0.4756
  108MOL    H1247306   1.586   6.804   5.511 -2.1628  0.3656 -1.7723
  108MOL    H1347307   1.570   6.919   5.275 -0.2095 -2.2503  0.4662
  108MOL    H1447308   1.729   6.868   5.325  0.9511  0.5839  0.5460
  108MOL    H1547309   1.731   7.126   5.249  1.4459  1.4017  0.0165
  108MOL    H1647310   1.791   7.110   5.406 -0.7941  4.6493 -1.8144
  108MOL    H1747311   1.637   7.289   5.418 -2.1617  1.0132  0.9745
  108MOL    H1847312   1.508   7.212   5.346 -1.4158 -1.3545  1.4283
  108MOL    H1947313   1.467   7.218   5.580  0.5586 -0.0660  0.4338
  108MOL    H2047314   1.613   7.161   5.630  0.7233  1.3200 -1.1087
  108MOL    H2147315   1.242   6.968   5.659  0.9489 -0.2408 -0.7042
  108MOL    H2247316   1.316   7.108   5.701  1.2301  0.1998 -0.8134
  108MOL    H2347317   1.537   6.979   5.750  1.5489 -0.6251 -1.3989
  108MOL    C2447318   1.269   6.967   5.866  0.1024 -0.2412  0.1068
  108MOL    C2547319   1.348   7.035   5.971  0.9998 -0.0174 -0.3303
  108MOL    C2647320   1.367   6.963   6.109 -0.9316 -0.5941  0.1070
  108MOL    C2747321   1.471   7.039   6.201 -0.4992 -0.3608 -0.4185
  108MOL    C2847322   1.426   7.183   6.217  0.3333  0.3552  0.1933
  108MOL    C2947323   1.409   7.252   6.084 -0.4718  0.0608 -0.7539
  108MOL    C3047324   1.304   7.177   6.004 -0.1361  0.4326  0.2684
  108MOL    C3147325   1.115   6.987   5.882  0.0603 -0.0106  0.8315
  108MOL    H3247326   1.290   6.861   5.884 -3.4020 -1.0469 -0.0761
  108MOL    H3347327   1.453   7.039   5.943  1.1700 -1.9412 -0.0192
  108MOL    H3447328   1.405   6.863   6.090 -0.0657 -0.6183  1.8639
  108MOL    H3547329   1.270   6.943   6.155 -2.0251  0.4590 -1.6352
  108MOL    H3647330   1.480   6.998   6.302  1.4776  0.8914 -0.0483
  108MOL    H3747331   1.571   7.025   6.161 -1.3122  1.0459 -2.9849
  108MOL    H3847332   1.505   7.236   6.271  0.4309 -0.0834  0.4837
  108MOL    H3947333   1.342   7.200   6.283  0.1871 -2.5187  0.8127
  108MOL    H4047334   1.372   7.354   6.096  0.4440  0.4923 -1.5220
  108MOL    H4147335   1.504   7.262   6.032  1.3402  0.4587  2.5121
  108MOL    H4247336   1.208   7.180   6.055  0.1798  0.1836  0.8894
  108MOL    H4347337   1.284   7.234   5.914 -1.7445 -0.9067 -0.2537
  108MOL    H4447338   1.081   7.085   5.849  2.0745  0.3085 -0.4135
  108MOL    H4547339   1.096   6.990   5.989 -0.7445 -1.3219  0.7417
  108MOL    C4647340   1.020   6.880   5.813  0.5010  0.3961  0.2810
  108MOL    C4747341   0.873   6.922   5.806 -0.8215  0.4461  0.1883
  108MOL    C4847342   0.854   7.022   5.685  0.3069  0.0561 -0.1329
  108MOL    C4947343   0.710   7.068   5.666 -1.0151 -0.3126  0.0748
  108MOL    C5047344   0.662   7.136   5.793  0.3727  0.5680  0.2242
  108MOL    C5147345   0.674   7.052   5.923  0.4409  0.4584 -0.2829
  108MOL    C5247346   0.819   6.999   5.938 -0.9915  0.2877  0.2777
  108MOL    C5347347   1.034   6.736   5.875  0.1593 -0.1456 -0.0713
  108MOL    H5447348   1.053   6.871   5.710  2.8330 -1.0645  1.0820
  108MOL    H5547349   0.809   6.836   5.786  2.9351 -2.4834  0.2919
  108MOL    H5647350   0.926   7.104   5.685  0.2625  0.0930 -1.7771
  108MOL    H5747351   0.887   6.974   5.593  2.1541  1.3822 -0.1849
  108MOL    H5847352   0.634   6.993   5.644 -3.1889  1.6059  0.7202
  108MOL    H5947353   0.700   7.148   5.592  0.5940 -0.0641  0.1110
  108MOL    H6047354   0.738   7.212   5.810  1.1335 -0.5947  2.3003
  108MOL    H6147355   0.562   7.177   5.782 -0.6749 -2.1882 -0.9300
  108MOL    H6247356   0.599   6.973   5.921 -1.1310  1.8231  1.8971
  108MOL    H6347357   0.646   7.109   6.012  0.5521 -0.4592  0.3465
  108MOL    H6447358   0.889   7.082   5.949  0.0583 -0.4862 -0.4112
  108MOL    H6547359   0.846   6.948   6.030 -0.0137  0.7460  0.2618
  108MOL    H6647360   0.940   6.693   5.908  1.5605 -2.6685  0.7763
  108MOL    H6747361   1.092   6.751   5.966 -0.5250  1.2202  0.1583
  108MOL    C6847362   1.114   6.631   5.797 -0.3530 -0.0182 -0.2604
  108MOL    C6947363   1.163   6.518   5.891  0.4195 -0.1398  0.3088
  108MOL    C7047364   1.286   6.550   5.983 -0.3835 -1.0829  0.5746
  108MOL    C7147365   1.337   6.437   6.077  0.4520  0.1810 -0.3426
  108MOL    C7247366   1.217   6.378   6.153  0.1643  0.3220 -0.4078
  108MOL    C7347367   1.105   6.328   6.061  0.3930  0.4635  0.2466
  108MOL    C7447368   1.054   6.445   5.979  0.2696  0.4400  0.3771
  108MOL    C7547369   1.045   6.570   5.673 -0.2599 -0.3994  0.2594
  108MOL    H7647370   1.204   6.676   5.756 -1.6832  2.0163 -1.0732
  108MOL    H7747371   1.216   6.440   5.837 -0.4804  0.3988 -1.3759
  108MOL    H7847372   1.264   6.630   6.054 -0.0303 -0.0248 -0.5014
  108MOL    H7947373   1.369   6.584   5.922 -0.1274  0.4919  1.7427
  108MOL    H8047374   1.379   6.357   6.015 -0.0940 -0.4866  0.1465
  108MOL    H8147375   1.417   6.462   6.147 -1.0750  0.9548  1.1622
  108MOL    H8247376   1.175   6.441   6.232  0.3918 -0.4355  0.3264
  108MOL    H8347377   1.236   6.291   6.216  2.6696  0.6717 -0.6331
  108MOL    H8447378   1.031   6.269   6.116 -2.3680  1.1632 -2.5615
  108MOL    H8547379   1.151   6.256   5.993 -0.2141 -0.9623  1.3087
  108MOL    H8647380   1.015   6.529   6.037 -0.9944  0.4719 -0.4884
  108MOL    H8747381   0.975   6.405   5.916 -0.8762  0.0233  2.0349
  108MOL    H8847382   0.986   6.480   5.687 -0.5184 -0.5816 -1.9594
  108MOL    H8947383   0.968   6.645   5.651 -1.1495 -1.2649  0.4040
  108MOL    C9047384   1.129   6.566   5.536 -0.0834  0.3162  0.5821
  108MOL    C9147385   1.265   6.477   5.564  0.5921 -0.5692 -0.1706
  108MOL    C9247386   1.231   6.326   5.557 -0.5125 -0.1716  0.2044
  108MOL    C9347387   1.356   6.246   5.581 -0.0514  0.4888  0.3594
  108MOL    C9447388   1.474   6.279   5.492 -0.8455  0.0321  0.3112
  108MOL    C9547389   1.498   6.433   5.480  0.6038 -0.3293 -0.2330
  108MOL    C9647390   1.368   6.501   5.447  0.2941 -0.3579  0.3749
  108MOL    C9747391   1.051   6.537   5.403  0.0954  0.1379  0.0898
  108MOL    H9847392   1.168   6.665   5.514  0.1433  0.2956  0.8856
  108MOL    H9947393   1.323   6.510   5.650  4.2419 -1.4499 -2.1808
  108MOL   H10047394   1.179   6.299   5.466 -0.0643  0.4879 -0.2500
  108MOL   H10147395   1.158   6.301   5.634  0.0308  0.4376  0.9291
  108MOL   H10247396   1.321   6.143   5.583 -0.4075  0.6093  0.3134
  108MOL   H10347397   1.381   6.258   5.687 -1.3377  1.9785  0.5025
  108MOL   H10447398   1.471   6.248   5.388 -1.0357 -0.1224  0.3638
  108MOL   H10547399   1.568   6.244   5.534 -0.4436  3.0452  2.1115
  108MOL   H10647400   1.537   6.479   5.571  1.1383  1.7990 -1.4978
  108MOL   H10747401   1.583   6.439   5.411 -0.0382 -0.9967 -1.0973
  108MOL   H10847402   1.387   6.608   5.433 -0.4507  0.1715  3.1364
  108MOL   H10947403   1.334   6.469   5.348  2.9098  2.5865 -1.5823
  108MOL   H11047404   1.123   6.523   5.323 -1.4909  2.0307 -1.7484
  108MOL   H11147405   1.001   6.441   5.414 -0.3588  0.3382 -0.1881
  108MOL   C11247406   0.950   6.646   5.365  0.1311 -0.1455  0.1517
  108MOL   C11347407   0.805   6.599   5.405  0.3713 -0.3931 -0.7696
  108MOL   C11447408   0.746   6.497   5.301  0.6312 -0.3632  0.7731
  108MOL   C11547409   0.590   6.463   5.331 -0.1149 -0.3113  0.5576
  108MOL   C11647410   0.512   6.599   5.330  0.1038  0.7669  0.1282
  108MOL   C11747411   0.569   6.692   5.437 -0.1754  0.6775  0.5694
  108MOL   C11847412   0.714   6.725   5.421 -0.1922  0.2530  0.7236
  108MOL   C11947413   0.958   6.696   5.217 -0.0910 -0.0113  0.2100
  108MOL   H12047414   0.983   6.725   5.433 -0.7664  0.6029 -0.2829
  108MOL   H12147415   0.815   6.550   5.502  1.4362  1.2683 -0.0081
  108MOL   H12247416   0.807   6.409   5.280  2.1163  0.7187  0.4679
  108MOL   H12347417   0.740   6.551   5.206 -0.9945 -1.1623  0.3919
  108MOL   H12447418   0.555   6.393   5.256 -0.6733 -1.1327  1.5881
  108MOL   H12547419   0.578   6.411   5.426  3.1877 -2.6139 -0.1779
  108MOL   H12647420   0.520   6.644   5.231  2.3486  0.0447 -0.0419
  108MOL   H12747421   0.406   6.588   5.353  0.2716  1.7713  1.3948
  108MOL   H12847422   0.512   6.785   5.436 -2.1897 -0.5092  2.0279
  108MOL   H12947423   0.554   6.653   5.538 -1.5146 -0.4977 -0.0859
  108MOL   H13047424   0.763   6.782   5.499  1.6678 -0.6920  0.2656
  108MOL   H13147425   0.730   6.785   5.332  0.9410 -0.5138  0.4117
  108MOL   H13247426   0.878   6.760   5.181  0.2373  0.9134  1.0943
  108MOL   H13347427   0.946   6.610   5.151 -3.1725  0.8196 -0.3774
  108MOL   C13447428   1.083   6.777   5.184 -0.6062 -0.6390  0.2479
  108MOL   C13547429   1.072   6.923   5.255 -0.5405  0.4348  0.5280
  108MOL   C13647430   0.951   7.008   5.210  0.5472  0.3817 -0.6169
  108MOL   C13747431   0.942   7.131   5.299 -0.8910  0.3052 -0.2883
  108MOL   C13847432   1.073   7.214   5.292  0.0785 -0.2189  0.3818
  108MOL   C13947433   1.193   7.133   5.334 -1.2537  0.3851  0.5860
  108MOL   C14047434   1.200   7.008   5.248  1.4002 -1.0034 -0.3897
  108MOL   C14147435   1.104   6.783   5.026 -0.8901 -0.3577  0.1521
  108MOL   H14247436   1.166   6.726   5.233  2.3547  1.5994 -2.2435
  108MOL   H14347437   1.050   6.906   5.360 -4.0134  0.6862 -0.0795
  108MOL   H14447438   0.960   7.031   5.104  2.5036  0.6520 -0.3969
  108MOL   H14547439   0.856   6.954   5.214  1.3851 -1.0284  0.7545
  108MOL   H14647440   0.921   7.101   5.402  0.1005  2.5438  0.5876
  108MOL   H14747441   0.866   7.200   5.260 -2.1114 -1.3790 -0.9633
  108MOL   H14847442   1.091   7.249   5.191 -3.2505  2.0378  0.4551
  108MOL   H14947443   1.056   7.299   5.359 -0.3583 -1.2345  1.5724
  108MOL   H15047444   1.195   7.110   5.440  2.4470  1.7509  0.8968
  108MOL   H15147445   1.281   7.196   5.322 -0.6805 -0.3610  0.7829
  108MOL   H15247446   1.222   7.021   5.142  0.4582  2.0665 -0.2700
  108MOL   H15347447   1.275   6.944   5.295  0.7021 -0.6146  1.3192
  108MOL   H15447448   1.153   6.874   4.992  0.6564 -1.0822  0.3950
  108MOL   H15547449   1.002   6.786   4.987 -0.5856 -0.2157 -0.6415
  108MOL   C15647450   1.160   6.665   4.958  0.1549 -0.2289  0.6654
  108MOL   C15747451   1.283   6.605   5.018 -0.5711 -0.2024 -0.9399
  108MOL   C15847452   1.331   6.478   4.942 -0.4861 -0.2806 -1.1084
  108MOL   C15947453   1.450   6.399   5.015  0.5927  0.7779 -0.1064
  108MOL   C16047454   1.566   6.495   5.035 -0.4235  0.7157 -0.3524
  108MOL   C16147455   1.529   6.626   5.100 -0.0311  0.2646  0.2574
  108MOL   C16247456   1.406   6.696   5.040  0.6859 -0.6019  0.3331
  108MOL   C16347457   1.178   6.688   4.804 -0.1000 -0.9352 -0.0094
  108MOL   H16447458   1.099   6.574   4.967  1.2736 -1.3947 -2.5599
  108MOL   H16547459   1.246   6.562   5.111  1.6318  0.6528  0.3773
  108MOL   H16647460   1.243   6.414   4.927 -0.9705 -0.1804  1.1125
  108MOL   H16747461   1.377   6.511   4.849 -1.5026  2.2945 -0.7180
  108MOL   H16847462   1.423   6.347   5.106 -0.6654 -1.1599 -1.5441
  108MOL   H16947463   1.481   6.320   4.946  0.8019  2.1098 -1.5507
  108MOL   H17047464   1.604   6.518   4.936  0.9951 -2.1170 -0.5251
  108MOL   H17147465   1.654   6.454   5.086  0.8794  1.0024 -2.3158
  108MOL   H17247466   1.608   6.701   5.105  0.7388 -0.5916  1.0284
  108MOL   H17347467   1.504   6.612   5.205 -1.0844  2.4618  0.3445
  108MOL   H17447468   1.378   6.785   5.097 -0.1873  0.3959 -1.5977
  108MOL   H17547469   1.438   6.739   4.945 -2.2830 -0.3096 -0.5760
  108MOL   H17647470   1.206   6.595   4.756 -1.0505 -2.2486  1.9258
  108MOL   H17747471   1.267   6.746   4.783  0.5941 -1.8596  0.3732
  108MOL   C17847472   1.062   6.751   4.721 -0.0374 -0.6110 -0.0857
  108MOL   C17947473   1.101   6.797   4.582  0.0745 -0.1820  0.7610
  108MOL   C18047474   1.160   6.688   4.490  0.8468 -0.0150  0.5107
  108MOL   C18147475   1.192   6.748   4.348  0.1681 -0.0075 -0.4360
  108MOL   C18247476   1.276   6.876   4.360  0.3683 -0.0926  0.7180
  108MOL   C18347477   1.210   6.979   4.454  0.0823 -0.4055  0.0948
  108MOL   C18447478   1.198   6.918   4.590 -0.3091  0.5438 -0.1682
  108MOL   C18547479   0.944   6.655   4.720 -1.1878 -0.1969  0.2218
  108MOL   H18647480   1.028   6.846   4.763 -2.8099 -1.3830 -0.5232
  108MOL   H18747481   1.012   6.833   4.530  0.0753 -2.5699 -1.0163
  108MOL   H18847482   1.246   6.638   4.536  2.3808  1.4809 -0.6758
  108MOL   H18947483   1.081   6.613   4.480 -0.7231  1.8684 -1.6846
  108MOL   H19047484   1.105   6.771   4.287  1.3542  1.4934 -1.5787
  108MOL   H19147485   1.239   6.675   4.281 -0.9051 -0.5793 -0.5796
  108MOL   H19247486   1.375   6.840   4.387  0.9573  0.1047 -1.1007
  108MOL   H19347487   1.294   6.918   4.261 -0.1069  0.3604  0.8220
  108MOL   H19447488   1.113   7.007   4.414  1.8641 -0.3553 -4.5246
  108MOL   H19547489   1.271   7.069   4.462  1.1824 -1.0181 -1.1603
  108MOL   H19647490   1.294   6.882   4.625 -0.6504 -1.3440 -1.0564
  108MOL   H19747491   1.163   6.998   4.655  2.3051  2.0072 -0.5113
  108MOL   H19847492   0.967   6.563   4.666  1.3867 -0.5276  1.7993
  108MOL   H19947493   0.926   6.623   4.822 -0.7824 -0.9180  0.0682
  108MOL   C20047494   0.806   6.703   4.672 -0.0877 -0.3394 -0.8286
  108MOL   C20147495   0.711   6.593   4.610 -0.2440  0.2612 -0.8449
  108MOL   C20247496   0.735   6.564   4.462 -0.2384 -0.0221 -0.5057
  108MOL   C20347497   0.632   6.458   4.408 -0.1813  0.0860  0.3268
  108MOL   C20447498   0.611   6.335   4.495 -0.5893  0.0941  0.1973
  108MOL   C20547499   0.585   6.370   4.643  0.0443  0.2985  0.0752
  108MOL   C20647500   0.692   6.466   4.698 -0.6734  0.4363  0.4687
  108MOL   C20747501   0.741   6.801   4.783  0.1055  0.5431 -0.2876
  108MOL   H20847502   0.817   6.769   4.587 -0.0139  1.5156  0.5818
  108MOL   H20947503   0.610   6.634   4.597 -0.0803  0.0653 -2.8615
  108MOL   H21047504   0.837   6.528   4.448  0.6511  2.4571 -0.7028
  108MOL   H21147505   0.743   6.653   4.399 -0.3843  0.1850 -0.2322
  108MOL   H21247506   0.536   6.509   4.403 -0.6368 -0.4983  2.5695
  108MOL   H21347507   0.649   6.440   4.302 -0.1039 -0.8399  0.4895
  108MOL   H21447508   0.525   6.286   4.449  0.4994 -1.6106 -0.1083
  108MOL   H21547509   0.700   6.272   4.481  0.7247  1.3434  2.7271
  108MOL   H21647510   0.484   6.409   4.658  0.4403  1.4526 -0.2281
  108MOL   H21747511   0.586   6.278   4.700  1.5343  1.0171  1.2273
  108MOL   H21847512   0.659   6.492   4.799 -1.0038  0.3361  0.3856
  108MOL   H21947513   0.790   6.420   4.709 -0.4408  1.0601  1.1159
  108MOL   H22047514   0.716   6.743   4.871 -1.3232  2.0651  0.3161
  108MOL   H22147515   0.815   6.870   4.825  1.8262 -2.0484  1.0349
  108MOL   C22247516   0.614   6.882   4.738  0.6631  0.2298  0.5024
  108MOL   C22347517   0.539   6.928   4.864 -0.4021  0.4322 -0.1669
  108MOL   C22447518   0.629   7.004   4.966  0.4606 -1.0909 -0.0822
  108MOL   C22547519   0.550   7.080   5.073  0.2804  0.6698 -0.0653
  108MOL   C22647520   0.462   6.984   5.153  0.4251  0.1335 -0.3216
  108MOL   C22747521   0.373   6.903   5.056  0.2020  0.4411  0.0056
  108MOL   C22847522   0.456   6.830   4.948  0.3385 -0.5127 -0.3328
  108MOL   C22947523   0.640   7.000   4.633  0.2851 -0.6107 -0.0278
  108MOL   H23047524   0.545   6.813   4.689 -0.0077  0.3506  1.2578
  108MOL   H23147525   0.469   7.001   4.824 -0.8953  0.6448  1.0849
  108MOL   H23247526   0.700   6.935   5.010  1.8498  1.4221  1.7767
  108MOL   H23347527   0.685   7.069   4.898 -1.7183 -0.0610 -0.9567
  108MOL   H23447528   0.485   7.158   5.032 -2.5891 -0.7842  1.5517
  108MOL   H23547529   0.616   7.118   5.151 -1.3798  1.2309  1.0950
  108MOL   H23647530   0.541   6.923   5.197 -0.7003 -0.6651  0.6341
  108MOL   H23747531   0.404   7.043   5.225 -2.7129 -1.6692 -1.2730
  108MOL   H23847532   0.293   6.959   5.006  0.2771 -0.1304 -0.7679
  108MOL   H23947533   0.335   6.816   5.110  0.3964 -0.0229 -0.6053
  108MOL   H24047534   0.526   6.761   4.996  3.2439  2.9073  0.5510
  108MOL   H24147535   0.390   6.770   4.885 -1.2393  1.0511 -0.1889
  108MOL   H24247536   0.732   6.982   4.576  0.8616 -1.7983  1.2411
  108MOL   H24347537   0.665   7.085   4.696  0.2640 -0.8035  0.2396
  108MOL   C24447538   0.522   7.035   4.534  0.1598  0.8530 -0.8811
  108MOL   C24547539   0.506   6.939   4.413  0.2709 -0.0031  0.7747
  108MOL   C24647540   0.618   6.936   4.310 -0.3168 -0.1785  0.4092
  108MOL   C24747541   0.590   6.850   4.185 -0.3646 -0.0078  0.4398
  108MOL   C24847542   0.459   6.897   4.121  0.5414  0.1455 -0.5151
  108MOL   C24947543   0.345   6.887   4.227 -0.3997 -0.0355 -0.4536
  108MOL   C25047544   0.374   6.982   4.342 -0.8977  0.4810  0.6090
  108MOL   C25147545   0.534   7.184   4.493 -0.1985  0.6545 -0.0224
  108MOL   H25247546   0.432   7.030   4.595  0.2598 -2.5469 -0.9256
  108MOL   H25347547   0.495   6.839   4.454 -0.6087 -0.3965 -0.3799
  108MOL   H25447548   0.703   6.891   4.362 -0.0125 -1.5058 -1.2174
  108MOL   H25547549   0.642   7.033   4.267  1.9306 -0.3425  1.2306
  108MOL   H25647550   0.678   6.860   4.122 -1.3421  5.5973 -0.2982
  108MOL   H25747551   0.588   6.742   4.201 -2.5715  0.2518  2.4069
  108MOL   H25847552   0.486   6.998   4.090  1.4959 -0.0962 -0.4726
  108MOL   H25947553   0.436   6.833   4.036 -0.0271 -0.6693  0.2389
  108MOL   H26047554   0.328   6.785   4.261 -1.2303 -0.4488 -2.0554
  108MOL   H26147555   0.248   6.918   4.189 -0.7836  2.5839  2.4390
  108MOL   H26247556   0.374   7.081   4.298  0.7141  0.0991 -0.2873
  108MOL   H26347557   0.285   6.989   4.404 -0.5509 -0.7665  1.2693
  108MOL   H26447558   0.456   7.210   4.422 -1.6329  0.2186  1.3772
  108MOL   H26547559   0.628   7.212   4.444 -0.3014  2.0807  0.5615
  108MOL   C26647560   0.514   7.276   4.623  0.1109  0.0367  0.2451
  108MOL   C26747561   0.643   7.362   4.649  0.6847 -0.3603 -0.2012
  108MOL   C26847562   0.680   7.388   4.796  0.4850 -0.7765  0.2536
  108MOL   C26947563   0.824   7.441   4.816  0.1052  1.0392  0.2698
  108MOL   C27047564   0.837   7.574   4.734 -0.0195 -0.0238  0.2443
  108MOL   C27147565   0.804   7.552   4.586  0.5849 -0.1896 -0.0946
  108MOL   C27247566   0.668   7.487   4.563 -0.3084 -0.4126 -0.7600
  108MOL   C27347567   0.386   7.367   4.615  0.8411  0.1238  1.0533
  108MOL   H27447568   0.502   7.212   4.711  0.6995  0.4320  0.6179
  108MOL   H27547569   0.729   7.301   4.622 -0.5902 -2.4768  0.3814
  108MOL   H27647570   0.609   7.461   4.835  1.6709  0.8470 -0.5513
  108MOL   H27747571   0.661   7.305   4.864  0.5695  0.2967  1.6033
  108MOL   H27847572   0.894   7.370   4.771 -0.4869 -0.0920  1.1362
  108MOL   H27947573   0.854   7.450   4.920 -2.4727  2.8783  0.8950
  108MOL   H28047574   0.761   7.643   4.770  0.9494  1.7572 -1.0359
  108MOL   H28147575   0.933   7.627   4.742  0.2156 -0.6205  1.5762
  108MOL   H28247576   0.881   7.485   4.548 -0.1238 -0.3134 -1.3612
  108MOL   H28347577   0.809   7.651   4.542  0.6481  0.3815  1.1785
  108MOL   H28447578   0.651   7.468   4.457  2.2553  1.3437 -1.5292
  108MOL   H28547579   0.600   7.568   4.592  1.7714  0.5979  1.3647
  108MOL   H28647580   0.327   7.333   4.530  2.3060 -1.6661  0.7243
  108MOL   H28747581   0.408   7.471   4.590  0.4476 -0.4020 -1.5726
  108MOL   C28847582   0.297   7.359   4.737  0.4983 -0.0069 -0.9605
  108MOL   C28947583   0.194   7.240   4.726  0.2107 -0.4994  0.5925
  108MOL   C29047584   0.134   7.193   4.862 -0.3071  0.3759 -0.0205
  108MOL   C29147585   0.041   7.070   4.850 -0.5702  0.5644 -0.3166
  108MOL   C29247586   7.702   7.100   4.746 -0.2689 -0.2092  0.9706
  108MOL   C29347587   7.758   7.150   4.610  0.0324 -0.1580 -0.5854
  108MOL   C29447588   0.077   7.279   4.639 -0.0562  0.1402  0.2069
  108MOL   C29547589   0.235   7.501   4.754  0.0934  0.9408 -0.1641
  108MOL   H29647590   0.366   7.338   4.818  1.2542 -0.4673 -1.7077
  108MOL   H29747591   0.232   7.151   4.675 -1.5287 -0.8176 -0.1698
  108MOL   H29847592   0.203   7.182   4.945 -1.9678 -2.1716  1.0851
  108MOL   H29947593   0.068   7.274   4.893  1.4931  1.5345  0.8824
  108MOL   H30047594   0.096   6.982   4.818  0.1249  0.8219  0.1626
  108MOL   H30147595   0.002   7.037   4.946  2.7467 -2.5716  0.0482
  108MOL   H30247596   7.625   7.167   4.785  0.2613  1.8666 -1.3513
  108MOL   H30347597   7.644   7.012   4.718 -2.3276  1.2195  0.5836
  108MOL   H30447598   7.677   7.191   4.549  0.0404 -1.6084 -1.6057
  108MOL   H30547599   0.043   7.075   4.556  0.9772  0.6327 -0.6820
  108MOL   H30647600   0.027   7.364   4.685  1.7897  0.8595  0.9595
  108MOL   H30747601   0.111   7.315   4.542  0.8092 -1.4216 -0.0857
  108MOL   H30847602   0.212   7.535   4.653  1.2549  0.9288 -0.4441
  108MOL   H30947603   0.151   7.479   4.819  1.0608 -1.0204  0.4792
  108MOL   C31047604   0.319   7.606   4.832 -0.2946  0.8470 -0.9907
  108MOL   C31147605   0.275   7.754   4.802  0.5337  0.3567 -0.3045
  108MOL   C31247606   0.352   0.018   4.676 -0.5587  0.4293  0.2882
  108MOL   C31347607   0.325   0.163   4.621  0.1309 -0.2728 -0.0721
  108MOL   C31447608   0.176   0.182   4.588  0.0950 -0.0622 -0.1799
  108MOL   C31547609   0.088   0.149   4.715 -0.0137 -0.3704  0.0835
  108MOL   C31647610   0.119   0.005   4.768 -0.3386 -0.2815  0.0241
  108MOL   C31747611   0.315   7.583   4.981  0.9748 -0.0001  0.1587
  108MOL   H31847612   0.422   7.606   4.796  0.8714 -1.4854  2.1234
  108MOL   H31947613   0.297   0.054   4.880 -0.0099  0.5211 -0.3055
  108MOL   H32047614   0.460   0.006   4.674 -0.5101  0.9729 -0.6659
  108MOL   H32147615   0.314   7.726   4.597 -0.5947 -0.1322  0.7626
  108MOL   H32247616   0.387   0.183   4.533 -0.8572  1.2885 -0.4414
  108MOL   H32347617   0.350   0.234   4.700  0.3910  1.0654 -1.3345
  108MOL   H32447618   0.152   0.275   4.536  0.9455  0.1923 -0.1337
  108MOL   H32547619   0.156   0.104   4.515  2.0762 -1.0023  0.2373
  108MOL   H32647620   0.100   0.230   4.787 -0.2841 -1.4195  1.3090
  108MOL   H32747621   7.756   0.162   4.686 -0.1367 -0.4100  0.5137
  108MOL   H32847622   0.092   7.706   4.690  1.4789 -1.4113  0.3892
  108MOL   H32947623   0.054   7.757   4.853  0.1368 -2.5240 -0.1232
  108MOL   H33047624   0.298   7.476   4.992  0.8911 -0.1788 -1.6631
  108MOL   H33147625   0.239   7.634   5.040  2.8713  2.3334  0.6545
  108MOL   C33247626   0.445   7.617   5.060  0.0573  0.6337 -0.1088
  108MOL   C33347627   0.437   7.554   5.202  0.2475  0.5207 -0.4086
  108MOL   C33447628   0.464   7.408   5.201  0.1936  1.0853 -0.2865
  108MOL   C33547629   0.479   7.360   5.346  0.6204  0.0123 -0.5020
  108MOL   C33647630   0.341   7.375   5.414  0.6313 -0.5495 -0.0797
  108MOL   C33747631   0.297   7.525   5.419 -0.5192 -0.3113 -0.3305
  108MOL   C33847632   0.300   7.583   5.277 -0.0339  0.3866 -0.0205
  108MOL   C33947633   0.488   7.764   5.040 -0.0054  0.1387  0.2383
  108MOL   H34047634   0.517   7.561   5.000  3.0710  1.4569  2.5800
  108MOL   H34147635   0.519   7.599   5.258  1.1654  0.8652 -1.9770
  108MOL   H34247636   0.392   7.346   5.148  0.7137 -1.9789  2.4472
  108MOL   H34347637   0.560   7.387   5.153  0.7007 -0.4154  1.3080
  108MOL   H34447638   0.518   7.259   5.349  1.9993  0.5196 -1.1213
  108MOL   H34547639   0.546   7.431   5.394  1.1624 -0.9395  0.1639
  108MOL   H34647640   0.262   7.314   5.371 -0.2869  1.2806 -1.0328
  108MOL   H34747641   0.343   7.341   5.518 -1.8954  0.1468  0.2197
  108MOL   H34847642   0.366   7.579   5.484  0.1182  0.8619 -1.9290
  108MOL   H34947643   0.194   7.544   5.449 -0.0300  0.0670  1.1816
  108MOL   H35047644   0.274   7.688   5.279  2.9464  1.1989 -1.1704
  108MOL   H35147645   0.223   7.541   5.212  0.6191  1.8165 -1.7830
  108MOL   H35247646   0.405   0.052   5.077 -0.1603  1.1243 -1.6076
  108MOL   H35347647   0.506   0.016   4.935 -2.5297 -0.0953 -0.2957
  108MOL   C35447648   0.612   0.044   5.121  0.0434  0.4239  0.1720
  108MOL   C35547649   0.613   0.202   5.114 -0.0576 -0.4199 -0.5559
  108MOL   C35647650   0.506   0.271   5.197  0.3374 -0.5356 -0.4780
  108MOL   C35747651   0.532   0.424   5.225  0.2715  0.3384 -0.7627
  108MOL   C35847652   0.549   0.484   5.082 -0.1578  0.4552 -0.1850
  108MOL   C35947653   0.650   0.412   4.989 -0.0953 -0.4763 -0.2037
  108MOL   C36047654   0.620   0.268   4.975 -0.2919  0.0424 -0.0056
  108MOL   C36147655   0.742   7.750   5.070 -0.3288  0.1569 -0.3823
  108MOL   H36247656   0.594   0.012   5.223  0.4732 -0.2569  0.0386
  108MOL   H36347657   0.709   0.230   5.158 -0.0516 -0.3566 -0.6106
  108MOL   H36447658   0.495   0.214   5.289  2.1293  0.1040  0.1617
  108MOL   H36547659   0.411   0.266   5.144 -0.6636  2.9459  0.8356
  108MOL   H36647660   0.443   0.456   5.278 -1.4653 -0.1098 -3.3254
  108MOL   H36747661   0.617   0.432   5.293  0.4913  0.7377 -1.0802
  108MOL   H36847662   0.451   0.482   5.034  0.5622  1.8844 -1.7421
  108MOL   H36947663   0.561   0.592   5.087 -3.0391  0.8289 -0.2151
  108MOL   H37047664   0.648   0.462   4.892  2.3894  1.8916  0.8907
  108MOL   H37147665   0.752   0.414   5.027 -0.7724 -0.5747  1.6898
  108MOL   H37247666   0.693   0.213   4.916 -2.4403 -2.3874 -0.4835
  108MOL   H37347667   0.526   0.271   4.919 -0.8309  3.0074  0.9830
  108MOL   H37447668   0.739   0.006   4.965  2.8680 -1.6188 -1.0054
  108MOL   H37547669   0.729   7.643   5.055  0.1029  0.0514 -0.0331
  108MOL   C37647670   0.878   7.759   5.149  0.4099 -0.3456 -0.6024
  108MOL   C37747671   0.875   7.705   5.292  0.2195 -0.2744 -0.8034
  108MOL   C37847672   0.832   7.558   5.311  0.0438  0.1196 -0.3976
  108MOL   C37947673   0.844   7.515   5.459 -0.4712  0.7070  0.7630
  108MOL   C38047674   0.785   7.610   5.563 -0.0671 -0.0027 -0.1425
  108MOL   C38147675   0.849   7.749   5.536  0.7381  0.2521 -0.0595
  108MOL   C38247676   0.811   0.026   5.394 -0.1918  0.2504  0.0272
  108MOL   C38347677   0.993   7.703   5.058 -0.5227 -0.0112  0.0401
  108MOL   H38447678   0.890   0.095   5.158  0.0875 -0.5842  3.1316
  108MOL   H38547679   0.977   7.706   5.329 -1.1360  0.1764  3.0963
  108MOL   H38647680   0.726   7.558   5.285  0.4002  2.1233 -2.0150
  108MOL   H38747681   0.893   7.493   5.249  2.0982  0.7491  0.9235
  108MOL   H38847682   0.950   7.508   5.479 -0.5634 -0.9177  0.7743
  108MOL   H38947683   0.823   7.409   5.474  0.0059  0.8726  2.6426
  108MOL   H39047684   0.676   7.614   5.568 -0.0122  0.5196  0.7348
  108MOL   H39147685   0.812   7.581   5.665 -1.8317 -0.4071  0.2383
  108MOL   H39247686   0.809   0.053   5.603 -2.3406 -1.6267  0.3558
  108MOL   H39347687   0.955   7.750   5.558  0.6804 -1.8772  0.4638
  108MOL   H39447688   0.702   0.023   5.384 -0.1245 -1.2956 -0.3942
  108MOL   H39547689   0.837   0.132   5.385  3.6732 -0.7479 -1.3681
  108MOL   H39647690   0.964   7.718   4.954 -0.3181 -1.8233 -0.2944
  108MOL   H39747691   1.007   7.596   5.067  1.4580  0.1641 -0.7232
  108MOL   C39847692   1.130   0.001   5.064  0.4758 -0.4135 -0.6312
  108MOL   C39947693   1.137   0.147   5.003 -0.5753 -0.1751 -0.0748
  108MOL   C40047694   1.070   0.165   4.869 -0.3679 -0.1045 -0.2034
  108MOL   C40147695   1.108   0.298   4.799 -0.6931 -0.2099  0.2062
  108MOL   C40247696   1.075   0.417   4.888  0.1006  0.4833  0.4751
  108MOL   C40347697   1.140   0.402   5.032 -0.0976  0.6263 -0.0212
  108MOL   C40447698   1.087   0.265   5.092 -0.6426 -0.3390  0.3947
  108MOL   C40547699   1.202   7.759   5.199 -0.6017 -0.4641 -0.0468
  108MOL   H40647700   1.183   7.708   4.995 -1.2993 -2.3742 -0.2024
  108MOL   H40747701   1.243   0.163   4.986 -0.1988 -0.0247  2.3049
  108MOL   H40847702   0.966   0.171   4.899 -0.1886 -1.1642  0.6522
  108MOL   H40947703   1.096   0.077   4.810  0.7640 -0.5353  0.9195
  108MOL   H41047704   1.053   0.311   4.705 -2.2491  2.3283  1.3998
  108MOL   H41147705   1.213   0.289   4.771 -0.7432  0.4854 -0.2264
  108MOL   H41247706   0.967   0.429   4.890 -0.1857 -1.9721  1.7272
  108MOL   H41347707   1.123   0.507   4.848 -2.7715  1.8734  0.0690
  108MOL   H41447708   1.247   0.389   5.012 -0.1528  0.5266 -0.2559
  108MOL   H41547709   1.124   0.484   5.102 -0.9755  0.5778 -0.1611
  108MOL   H41647710   1.112   0.248   5.196 -0.0451  1.3341  0.5463
  108MOL   H41747711   0.978   0.271   5.097 -0.5319  1.4571  0.9857
  108MOL   H41847712   1.292   0.050   5.201 -1.5690  0.9975 -1.7911
  108MOL   H41947713   1.146   0.041   5.275  0.3120  1.7922 -0.9346
  108MOL   C42047714   1.223   7.618   5.239 -0.5087 -0.1910  0.1653
  108MOL   C42147715   1.300   7.635   5.368  0.2871 -0.0861 -0.1293
  108MOL   C42247716   1.450   7.664   5.361 -0.1527  0.7231  0.4441
  108MOL   C42347717   1.515   7.678   5.502 -0.0771 -0.5955 -0.2801
  108MOL   C42447718   1.490   7.565   5.595  0.3697  0.1447  0.0481
  108MOL   C42547719   1.343   7.519   5.600 -0.2145 -0.0458 -0.2155
  108MOL   C42647720   1.283   7.512   5.460  0.4181 -0.2345 -0.3452
  108MOL   C42747721   1.308   7.548   5.128  0.5209 -0.7948 -0.0334
  108MOL   H42847722   1.140   7.550   5.255 -0.4221 -0.7989 -1.7715
  108MOL   H42947723   1.269   7.722   5.425  1.8893  0.8673 -0.6626
  108MOL   H43047724   1.503   7.576   5.323 -1.6610 -1.0957  2.3655
  108MOL   H43147725   1.479   7.739   5.288  1.5168  0.5851  0.9481
  108MOL   H43247726   1.624   7.689   5.493 -0.3794  0.5855 -3.0936
  108MOL   H43347727   1.494   0.006   5.538 -1.2918  0.3199 -3.3794
  108MOL   H43447728   1.531   7.583   5.694  1.8985  0.8822 -0.7160
  108MOL   H43547729   1.546   7.477   5.563  0.8172  0.1799  0.7261
  108MOL   H43647730   1.273   7.579   5.657 -0.9014 -0.6984 -0.3648
  108MOL   H43747731   1.333   7.416   5.633  0.8483 -1.3685 -3.7389
  108MOL   H43847732   1.321   7.425   5.406  1.9320  0.4325 -0.3685
  108MOL   H43947733   1.175   7.497   5.470  0.1449  0.1244 -2.4709
  108MOL   H44047734   1.388   7.616   5.099  0.2968 -0.1318  0.8900
  108MOL   H44147735   1.350   7.453   5.159 -0.8598 -1.5744 -0.4730
  108MOL   H44247736   1.268   7.513   5.032  1.4372 -1.8043 -0.0472
  109MOL     C147737   7.448   7.692   0.613 -0.1472 -0.6449 -0.3521
  109MOL     C247738   7.514   7.554   0.632  0.1706 -0.2125 -0.6733
  109MOL     C347739   7.544   7.536   0.786 -0.0613  0.0072 -0.5290
  109MOL     C447740   7.641   7.421   0.815 -0.0649 -0.0320  0.2565
  109MOL     C547741   7.763   7.427   0.721  0.4880 -0.3768 -0.3454
  109MOL     C647742   7.718   7.415   0.575 -0.2928  0.3234  0.4804
  109MOL     C747743   7.635   7.534   0.532 -0.2298 -0.0185  0.6132
  109MOL     C847744   7.376   7.703   0.475  0.0356 -0.6804 -0.3168
  109MOL     H947745   7.381   7.714   0.696  0.8618 -4.2341  1.5033
  109MOL    H1047746   7.442   7.477   0.606  0.4485 -0.9128  0.6293
  109MOL    H1147747   7.581   7.626   0.833  0.0761 -0.5921  0.5185
  109MOL    H1247748   7.445   7.525   0.831 -0.7033 -1.0231 -2.1408
  109MOL    H1347749   7.587   7.330   0.790  3.0313 -1.5095 -1.3081
  109MOL    H1447750   7.668   7.422   0.921  1.8475 -1.2974 -0.1886
  109MOL    H1547751   0.058   7.343   0.734  0.1799 -0.7586 -1.1782
  109MOL    H1647752   0.047   7.519   0.733  1.8173 -1.4917  2.3570
  109MOL    H1747753   0.024   7.395   0.502 -0.9104 -0.4977  0.0239
  109MOL    H1847754   7.643   7.336   0.564  0.4226 -0.2976  0.0411
  109MOL    H1947755   7.590   7.515   0.434 -0.7269  4.4919 -0.1402
  109MOL    H2047756   7.694   7.624   0.519  1.4304 -1.3934 -1.8691
  109MOL    H2147757   7.285   7.644   0.467 -0.7980  0.5767 -0.1345
  109MOL    H2247758   7.436   7.648   0.402 -0.9295 -0.4047 -1.3240
  109MOL    H2347759   7.530   7.764   0.613 -0.1039 -0.6949 -0.2724
  109MOL    C2447760   7.350   0.071   0.421 -0.2735  0.1962  0.7121
  109MOL    C2547761   7.300   0.070   0.275 -0.0584 -0.1227 -0.2923
  109MOL    C2647762   7.150   0.017   0.263 -0.3878 -0.1415 -0.3924
  109MOL    C2747763   7.104   0.027   0.115  0.2266 -0.5076 -0.7649
  109MOL    C2847764   7.207   7.740   0.014 -0.7852 -0.7292  0.4024
  109MOL    C2947765   7.348   0.013   0.035  0.4942 -0.3306  0.3749
  109MOL    C3047766   7.392   7.767   0.175  0.5762  0.1376  0.3644
  109MOL    C3147767   7.260   0.153   0.521 -0.2034 -0.7068 -0.1432
  109MOL    H3247768   7.450   0.115   0.412  1.1183 -3.1214 -0.5877
  109MOL    H3347769   7.298   0.176   0.250  1.4361  0.4415  1.8969
  109MOL    H3447770   7.072   0.072   0.315 -1.1137 -1.3598 -0.1875
  109MOL    H3547771   7.143   7.686   0.297  0.8565 -0.0802  0.1080
  109MOL    H3647772   7.017   7.734   0.118 -0.3530  0.2444 -1.0327
  109MOL    H3747773   7.088   0.132   0.091 -0.7610  0.1706  2.5661
  109MOL    H3847774   7.176   7.766   7.686 -0.1910 -0.6579  0.2339
  109MOL    H3947775   7.203   7.631   0.010 -0.6393 -0.6855 -1.0696
  109MOL    H4047776   7.416   7.750   7.729  1.7267  0.9599  0.8409
  109MOL    H4147777   7.349   0.120   0.015  1.5211 -1.0236 -3.8556
  109MOL    H4247778   7.379   7.660   0.189 -0.9686  0.3513  0.7369
  109MOL    H4347779   7.495   0.021   0.196  0.3716 -0.3893  2.1301
  109MOL    H4447780   7.313   0.154   0.616 -1.9363 -0.2241  0.8446
  109MOL    H4547781   7.167   0.096   0.527  0.7804 -2.1282  2.2820
  109MOL    C4647782   7.223   0.301   0.485 -0.1231 -0.2114 -0.2941
  109MOL    C4747783   7.350   0.395   0.475  0.8178 -0.4503  0.8226
  109MOL    C4847784   7.410   0.408   0.334 -0.1151 -0.1638 -0.8559
  109MOL    C4947785   7.501   0.520   0.324 -0.1812  0.0747  0.5144
  109MOL    C5047786   7.622   0.502   0.420 -0.2198 -0.2745 -0.5583
  109MOL    C5147787   7.561   0.491   0.562  0.2685 -0.5799 -0.4374
  109MOL    C5247788   7.464   0.369   0.565 -0.2038 -0.6978  0.1542
  109MOL    C5347789   7.119   0.346   0.587  0.6939 -0.4199  0.3478
  109MOL    H5447790   7.177   0.312   0.386 -1.8168  2.5279  0.7272
  109MOL    H5547791   7.311   0.493   0.503 -1.9449 -1.6164  1.2022
  109MOL    H5647792   7.459   0.316   0.302 -2.6377 -1.5596 -0.8226
  109MOL    H5747793   7.328   0.422   0.263 -0.7240  0.3367 -0.0597
  109MOL    H5847794   7.438   0.606   0.347  1.0101  0.9039  0.7072
  109MOL    H5947795   7.537   0.528   0.221 -1.5622 -0.3875 -0.0124
  109MOL    H6047796   7.676   0.409   0.398  1.3524  0.0083  1.9336
  109MOL    H6147797   7.692   0.584   0.405  2.1126 -1.5052  2.9658
  109MOL    H6247798   7.511   0.584   0.591 -1.4583 -1.0362 -1.8623
  109MOL    H6347799   7.645   0.464   0.626  1.0611  1.0830 -0.7506
  109MOL    H6447800   7.519   0.280   0.535 -0.1005 -1.2877  2.0635
  109MOL    H6547801   7.427   0.352   0.666  0.0957 -0.5792  0.2827
  109MOL    H6647802   7.170   0.375   0.680  0.1598  0.3017  0.4151
  109MOL    H6747803   7.065   0.258   0.620 -0.4085 -0.1252 -0.6688
  109MOL    C6847804   7.021   0.461   0.542 -0.6817  0.2459  0.2305
  109MOL    C6947805   6.912   0.423   0.434 -0.1052 -0.1450 -0.1349
  109MOL    C7047806   6.797   0.334   0.484 -0.3311 -0.3572 -0.6399
  109MOL    C7147807   6.680   0.316   0.387  0.1200  0.1860  0.0805
  109MOL    C7247808   6.635   0.448   0.313 -0.7567  0.1059  0.3817
  109MOL    C7347809   6.751   0.513   0.250 -0.1668  0.2169  0.1949
  109MOL    C7447810   6.865   0.548   0.351 -0.4099  0.1824  0.2190
  109MOL    C7547811   6.955   0.532   0.666 -0.0009  0.0920  0.3511
  109MOL    H7647812   7.090   0.523   0.485 -2.3329  1.6524 -0.2781
  109MOL    H7747813   6.968   0.371   0.356 -0.6404 -1.2882  0.2309
  109MOL    H7847814   6.750   0.364   0.578  1.8796  2.2087 -0.3152
  109MOL    H7947815   6.836   0.241   0.526 -0.2550  1.4865  3.6344
  109MOL    H8047816   6.700   0.231   0.321  1.6702  0.3349  0.3220
  109MOL    H8147817   6.594   0.263   0.426  0.2596 -0.2741 -0.2317
  109MOL    H8247818   6.588   0.522   0.378 -2.3306  1.2734 -2.0257
  109MOL    H8347819   6.553   0.420   0.247  1.2876  1.0156 -2.6487
  109MOL    H8447820   6.711   0.603   0.203 -0.5029  0.3638  0.7526
  109MOL    H8547821   6.785   0.450   0.168 -0.8374 -0.3432  0.3455
  109MOL    H8647822   6.825   0.627   0.414 -0.3893  1.9031 -1.8858
  109MOL    H8747823   6.943   0.598   0.294 -1.6220  0.1680 -1.4790
  109MOL    H8847824   6.872   0.595   0.634  0.0284 -1.0526 -2.1050
  109MOL    H8947825   6.912   0.452   0.727  2.9308 -0.5293  1.6892
  109MOL    C9047826   7.050   0.617   0.761 -0.2135  0.9467 -0.5182
  109MOL    C9147827   7.089   0.746   0.691 -0.2899  0.0202 -0.2512
  109MOL    C9247828   6.976   0.857   0.683  0.0233 -0.1113 -0.1919
  109MOL    C9347829   7.013   0.961   0.577  1.1311 -0.0351  0.6942
  109MOL    C9447830   7.142   1.031   0.632 -0.2282  0.6138 -0.0641
  109MOL    C9547831   7.249   0.926   0.655 -0.3686 -0.0982 -0.0325
  109MOL    C9647832   7.211   0.813   0.749 -0.4345  0.1094 -0.5138
  109MOL    C9747833   6.987   0.644   0.901  0.0858 -0.4069 -0.1236
  109MOL    H9847834   7.144   0.564   0.775 -0.4067  0.5862 -0.5926
  109MOL    H9947835   7.120   0.719   0.589  0.8842  1.7506 -0.3727
  109MOL   H10047836   6.957   0.909   0.777  0.4990 -1.7999  0.8739
  109MOL   H10147837   6.881   0.811   0.654 -1.6659  2.7536  0.5460
  109MOL   H10247838   6.935   1.037   0.575 -0.6636 -1.8706 -1.0834
  109MOL   H10347839   7.020   0.912   0.480  2.4358 -0.3586  0.9379
  109MOL   H10447840   7.130   1.088   0.724  1.3094  0.3626  0.3136
  109MOL   H10547841   7.181   1.109   0.567 -2.6588  1.7837 -0.1722
  109MOL   H10647842   7.265   0.874   0.561  1.1083 -2.0414  1.2753
  109MOL   H10747843   7.342   0.978   0.679  0.4921 -2.2021  1.2806
  109MOL   H10847844   7.288   0.735   0.751 -1.0799 -0.5125  0.3370
  109MOL   H10947845   7.190   0.842   0.852  1.0673  0.3751 -0.2636
  109MOL   H11047846   7.053   0.708   0.959  1.4876 -2.3909  0.5288
  109MOL   H11147847   6.897   0.706   0.891  0.4948  0.9693  3.8321
  109MOL   C11247848   6.958   0.516   0.981  0.4280  0.1407 -0.5273
  109MOL   C11347849   6.806   0.503   0.985  0.1021  0.1571  0.4468
  109MOL   C11447850   6.729   0.596   1.073 -0.0591  0.1170 -0.3830
  109MOL   C11547851   6.582   0.575   1.070  0.8430 -0.7271  0.8997
  109MOL   C11647852   6.541   0.429   1.097 -0.1952 -0.1992  0.5644
  109MOL   C11747853   6.610   0.332   1.000  0.6100  0.0286 -0.4966
  109MOL   C11847854   6.757   0.356   1.010 -0.5707 -0.0899  0.1299
  109MOL   C11947855   7.026   0.504   1.116  0.9185  0.1191 -0.0009
  109MOL   H12047856   6.996   0.433   0.922 -1.5828 -1.0053 -0.2893
  109MOL   H12147857   6.774   0.535   0.885 -1.6141 -0.9546  0.6212
  109MOL   H12247858   6.740   0.698   1.037  1.5656 -0.3204 -1.1707
  109MOL   H12347859   6.767   0.601   1.175 -0.1388  2.1642 -0.4404
  109MOL   H12447860   6.529   0.646   1.134 -0.8752  0.1900 -1.4580
  109MOL   H12547861   6.535   0.610   0.978  0.3003 -0.9555  1.0893
  109MOL   H12647862   6.568   0.405   1.200  0.4442  0.6973  0.6106
  109MOL   H12747863   6.433   0.415   1.100  0.0713 -3.1090 -1.0841
  109MOL   H12847864   6.576   0.233   1.031  1.8138  0.0495  0.9424
  109MOL   H12947865   6.578   0.348   0.897  0.7421  1.6290 -0.3045
  109MOL   H13047866   6.802   0.286   0.940 -0.0047 -0.8351  1.2265
  109MOL   H13147867   6.784   0.312   1.106  1.4099 -1.6137 -1.0807
  109MOL   H13247868   6.949   0.474   1.187  0.1918 -0.8793 -1.2095
  109MOL   H13347869   7.051   0.603   1.156 -1.9817  1.6200 -1.7402
  109MOL   C13447870   7.143   0.404   1.131 -0.7080  0.2588  0.5042
  109MOL   C13547871   7.269   0.435   1.034  0.2747  0.3114  0.5283
  109MOL   C13647872   7.389   0.341   1.066  0.0143  0.1606 -0.8988
  109MOL   C13747873   7.494   0.340   0.964  0.2413  0.1773 -0.1148
  109MOL   C13847874   7.557   0.474   0.951  0.1995  0.1620 -0.2795
  109MOL   C13947875   7.452   0.587   0.926  0.1902  0.3987 -0.8603
  109MOL   C14047876   7.329   0.583   1.028  0.9007 -0.0154  0.1780
  109MOL   C14147877   7.089   0.257   1.126  0.2168 -0.8517 -0.1627
  109MOL   H14247878   7.180   0.411   1.233  0.2927  1.1254  0.0940
  109MOL   H14347879   7.238   0.411   0.933 -0.5672  0.5925  0.7154
  109MOL   H14447880   7.431   0.369   1.163 -1.6214 -3.5141  0.9804
  109MOL   H14547881   7.351   0.239   1.074  1.1522 -0.0377  3.3323
  109MOL   H14647882   7.445   0.313   0.871 -0.0867  0.5673 -0.0565
  109MOL   H14747883   7.569   0.265   0.989  0.8669  1.2008  1.1379
  109MOL   H14847884   7.606   0.499   1.045  1.1066 -0.7465 -0.5060
  109MOL   H14947885   7.644   0.474   0.885  0.8349 -0.6507  0.5535
  109MOL   H15047886   7.417   0.588   0.823  1.3795 -0.6340 -1.2939
  109MOL   H15147887   7.511   0.678   0.933  0.7775  0.1708 -2.5512
  109MOL   H15247888   7.358   0.609   1.130  0.4731  0.4409  0.1847
  109MOL   H15347889   7.255   0.658   1.001  1.3558  1.0040  1.6746
  109MOL   H15447890   7.134   0.201   1.044 -1.4994 -2.0961 -0.2949
  109MOL   H15547891   6.985   0.265   1.094 -0.0775  1.8128  1.3584
  109MOL   C15647892   7.091   0.181   1.255  0.1385 -0.3524 -0.2360
  109MOL   C15747893   7.088   0.023   1.238  0.0312  0.4105  0.8050
  109MOL   C15847894   6.968   7.755   1.152 -0.4523 -0.1536 -0.1224
  109MOL   C15947895   6.952   7.599   1.140 -1.0768  0.0353 -0.3342
  109MOL   C16047896   7.088   7.535   1.100  0.1190  0.1488 -0.3328
  109MOL   C16147897   7.210   7.586   1.181 -0.5337 -0.5576 -0.3524
  109MOL   C16247898   7.224   7.741   1.186  0.5461  0.1536 -0.0632
  109MOL   C16347899   6.994   0.246   1.355  0.1970  0.2327  0.2663
  109MOL   H16447900   7.190   0.197   1.298  1.1925 -2.6530 -1.7273
  109MOL   H16547901   7.077   7.755   1.339  0.3594  0.1616  0.7436
  109MOL   H16647902   6.879   0.032   1.189 -0.0604 -0.3784  1.1567
  109MOL   H16747903   6.975   0.024   1.051  0.6579 -1.1598 -0.4741
  109MOL   H16847904   6.933   7.569   1.243  2.0016 -2.0323 -0.2776
  109MOL   H16947905   6.877   7.588   1.062  1.8045 -0.4520 -3.1582
  109MOL   H17047906   7.107   7.553   0.994  1.9170 -1.5591 -0.3195
  109MOL   H17147907   7.086   7.427   1.109 -0.9227  0.2838  1.2832
  109MOL   H17247908   7.301   7.546   1.138  0.2016  0.1085  0.5562
  109MOL   H17347909   7.195   7.561   1.286  0.7355 -1.4798 -0.3838
  109MOL   H17447910   7.300   0.006   1.254 -0.1151  0.6166  0.4363
  109MOL   H17547911   7.240   0.015   1.089  0.9902  1.9987  0.8629
  109MOL   H17647912   6.894   0.257   1.314 -0.2916  0.1825  1.4110
  109MOL   H17747913   7.019   0.351   1.367  0.8582  0.4957 -2.9707
  109MOL   C17847914   6.982   0.188   1.498  0.7557 -0.7018  0.3620
  109MOL   C17947915   7.114   0.167   1.570 -0.1170  0.2427 -0.7326
  109MOL   C18047916   7.114   0.081   1.701  0.2907 -0.7666  0.2838
  109MOL   C18147917   7.255   0.057   1.745 -0.1658  0.4252 -0.1178
  109MOL   C18247918   7.334   0.186   1.769 -0.7459 -0.2581  0.2070
  109MOL   C18347919   7.341   0.273   1.643 -0.1477 -0.3607  0.0634
  109MOL   C18447920   7.203   0.293   1.588  0.0037  0.3153 -0.2041
  109MOL   C18547921   6.892   0.281   1.582  0.0161 -0.3435 -0.1011
  109MOL   H18647922   6.941   0.087   1.486 -2.7120  0.4061  2.1516
  109MOL   H18747923   7.173   0.104   1.503  1.5649  0.6413  0.3656
  109MOL   H18847924   7.055   0.138   1.772  1.3764  2.9495 -1.6745
  109MOL   H18947925   7.069   7.755   1.684  1.2010 -1.3221  1.0744
  109MOL   H19047926   7.311   7.766   1.676  0.5510 -1.3609  2.0217
  109MOL   H19147927   7.239   7.767   1.833 -2.5955  1.2564  0.0787
  109MOL   H19247928   7.285   0.239   1.850 -1.5601  0.4822 -0.7511
  109MOL   H19347929   7.434   0.163   1.807  0.5151 -0.0054 -2.8209
  109MOL   H19447930   7.401   0.208   1.579  0.2323  0.8011 -0.7877
  109MOL   H19547931   7.388   0.369   1.665 -2.1442  1.0082 -1.4327
  109MOL   H19647932   7.158   0.367   1.653  2.6351  0.2822  1.7584
  109MOL   H19747933   7.207   0.342   1.491 -2.0798  0.0016 -0.4529
  109MOL   H19847934   6.886   0.239   1.682  0.6470 -1.9484 -0.7062
  109MOL   H19947935   6.947   0.375   1.582  1.7567 -1.3313 -0.6794
  109MOL   C20047936   6.743   0.303   1.541  0.0625  0.2449  0.1281
  109MOL   C20147937   6.667   0.168   1.534  0.8247 -0.0044  0.2243
  109MOL   C20247938   6.692   0.079   1.657 -0.4177  0.4186 -0.0612
  109MOL   C20347939   6.613   7.719   1.653 -0.4951 -0.6064  0.2900
  109MOL   C20447940   6.467   7.730   1.598  0.2002 -1.2068 -0.4638
  109MOL   C20547941   6.449   0.042   1.465 -0.2894  0.3852 -0.0089
  109MOL   C20647942   6.511   0.180   1.490  0.5914 -0.7598 -0.4645
  109MOL   C20747943   6.661   0.399   1.634 -0.0446 -0.2891  0.3894
  109MOL   H20847944   6.728   0.348   1.443 -0.2974 -1.0577 -0.4343
  109MOL   H20947945   6.721   0.116   1.454  0.4264 -0.3060  0.1551
  109MOL   H21047946   6.667   0.122   1.754 -1.1622 -0.1890  0.0217
  109MOL   H21147947   6.798   0.055   1.666 -0.7874 -0.7892  1.2202
  109MOL   H21247948   6.654   7.641   1.590  0.7250 -0.4343  0.8596
  109MOL   H21347949   6.608   7.663   1.746  0.7955 -3.1703 -1.1451
  109MOL   H21447950   6.419   7.632   1.593  1.0059 -1.7112  1.3326
  109MOL   H21547951   6.408   0.012   1.672  0.7347 -2.1776  0.6801
  109MOL   H21647952   6.497   7.752   1.390  0.2312 -1.0200  1.4695
  109MOL   H21747953   6.345   0.051   1.432 -0.1524 -1.0426 -0.8756
  109MOL   H21847954   6.501   0.236   1.398 -1.4732 -0.6998 -0.2258
  109MOL   H21947955   6.448   0.230   1.563  1.5058 -0.1379 -0.0904
  109MOL   H22047956   6.569   0.419   1.578  2.3085 -0.9709 -3.9688
  109MOL   H22147957   6.621   0.360   1.727 -0.8055 -1.6005 -0.4813
  109MOL   C22247958   6.739   0.535   1.668  0.4825  0.2832  0.0144
  109MOL   C22347959   6.626   0.654   1.657 -1.0639 -0.8961 -0.4926
  109MOL   C22447960   6.515   0.656   1.760  0.1250  0.0742  0.0952
  109MOL   C22547961   6.435   0.785   1.750 -0.3083  0.1693 -0.0423
  109MOL   C22647962   6.380   0.808   1.607  0.4151  1.2699 -0.1824
  109MOL   C22747963   6.502   0.812   1.511  0.3614 -0.1962 -0.3604
  109MOL   C22847964   6.577   0.675   1.512  0.0535 -0.9963 -0.7153
  109MOL   C22947965   6.824   0.523   1.797 -0.2115 -0.5577  0.4169
  109MOL   H23047966   6.807   0.551   1.585 -0.6748 -0.9730 -1.2178
  109MOL   H23147967   6.682   0.742   1.688 -3.9362  0.6187  0.5578
  109MOL   H23247968   6.446   0.573   1.753  0.7499 -0.4575  0.2415
  109MOL   H23347969   6.562   0.650   1.858 -0.4808  0.7254  0.4347
  109MOL   H23447970   6.503   0.868   1.766 -2.6043  2.1981 -0.4498
  109MOL   H23547971   6.360   0.776   1.829 -0.5678 -2.1789 -0.5308
  109MOL   H23647972   6.316   0.728   1.570  0.5462  0.5300  1.1731
  109MOL   H23747973   6.323   0.901   1.594  1.6442  2.1521  0.6051
  109MOL   H23847974   6.574   0.887   1.543 -1.1672  2.4192 -2.7105
  109MOL   H23947975   6.478   0.841   1.408  0.8133  3.1466  0.4247
  109MOL   H24047976   6.502   0.607   1.472 -1.1555 -0.0205 -0.1532
  109MOL   H24147977   6.653   0.670   1.434 -0.7713  2.0258 -1.7819
  109MOL   H24247978   6.895   0.440   1.796  1.1943  0.6197  1.3760
  109MOL   H24347979   6.747   0.497   1.870 -1.9818 -0.0596 -1.2017
  109MOL   C24447980   6.906   0.643   1.861  0.1000 -0.3637  0.3012
  109MOL   C24547981   6.988   0.731   1.754 -0.2753  0.7516  0.4602
  109MOL   C24647982   7.104   0.654   1.694 -0.0479 -0.9326 -0.5507
  109MOL   C24747983   7.197   0.733   1.605  0.2487 -0.3852  0.0947
  109MOL   C24847984   7.236   0.866   1.676 -0.3848 -0.2082 -0.3132
  109MOL   C24947985   7.117   0.958   1.725 -0.5067 -0.3538  0.3403
  109MOL   C25047986   7.020   0.872   1.810  0.1727  0.7293  0.0900
  109MOL   C25147987   6.990   0.594   1.983  0.5292  1.1301  0.1071
  109MOL   H25247988   6.829   0.709   1.901  0.7034 -0.6737  1.9936
  109MOL   H25347989   6.926   0.756   1.668  0.3090 -0.9902 -0.4966
  109MOL   H25447990   7.069   0.569   1.637 -0.1640 -1.0139 -0.3584
  109MOL   H25547991   7.168   0.612   1.772 -0.2019 -1.8779 -0.9376
  109MOL   H25647992   7.294   0.686   1.586  0.4855  0.9681 -2.1368
  109MOL   H25747993   7.154   0.753   1.507 -0.0444  1.9578  0.6580
  109MOL   H25847994   7.299   0.846   1.763 -1.5941  1.5443  1.0268
  109MOL   H25947995   7.301   0.926   1.613 -0.1585 -1.5985 -1.4164
  109MOL   H26047996   7.062   0.999   1.640  0.0224  0.0004  0.1616
  109MOL   H26147997   7.154   1.042   1.784 -0.6265  0.9216 -1.3465
  109MOL   H26247998   7.063   0.863   1.909  2.1065 -0.8411 -0.8547
  109MOL   H26347999   6.931   0.924   1.846  0.4406  1.1296  0.1882
  109MOL   H26448000   7.050   0.679   2.017 -0.5620  2.2922 -0.8084
  109MOL   H26548001   7.064   0.520   1.951 -0.5867  0.1865 -0.3130
  109MOL   C26648002   6.910   0.539   2.105  0.4149  0.0611  0.2979
  109MOL   C26748003   6.922   0.385   2.141 -1.1205 -0.0662 -0.8677
  109MOL   C26848004   7.071   0.341   2.150 -0.9156 -0.2311 -0.1885
  109MOL   C26948005   7.069   0.190   2.188 -0.3082  0.4598  0.1975
  109MOL   C27048006   6.973   0.101   2.104  0.1222 -0.0070  0.0627
  109MOL   C27148007   6.837   0.159   2.091  0.1109  0.3251  0.2737
  109MOL   C27248008   6.838   0.302   2.043  0.2612 -0.3828 -0.1193
  109MOL   C27348009   6.903   0.633   2.229  0.0121 -0.8564  0.2764
  109MOL   H27448010   6.806   0.556   2.074 -0.1941 -2.8053  0.6844
  109MOL   H27548011   6.881   0.387   2.242  0.9230 -1.0002  0.0257
  109MOL   H27648012   7.130   0.362   2.060 -0.2882 -0.8721  0.0625
  109MOL   H27748013   7.122   0.389   2.234  0.0565 -1.1683 -0.2240
  109MOL   H27848014   7.037   0.184   2.292  0.2999  0.2963  0.3775
  109MOL   H27948015   7.169   0.148   2.188 -0.6034 -0.2780  1.6668
  109MOL   H28048016   7.020   0.085   2.007 -1.5304 -1.6848 -0.4883
  109MOL   H28148017   6.966   0.012   2.167 -2.5313  0.2558  0.1768
  109MOL   H28248018   6.789   0.157   2.189  0.7421  2.7802  0.6732
  109MOL   H28348019   6.779   0.099   2.021  2.7862 -1.2951 -0.6166
  109MOL   H28448020   6.736   0.340   2.041 -0.0001 -1.1133 -1.4125
  109MOL   H28548021   6.881   0.309   1.943  1.4600 -0.6305  0.3709
  109MOL   H28648022   6.904   0.734   2.187 -2.8464 -1.2001 -0.7881
  109MOL   H28748023   6.996   0.637   2.285  0.0289  0.2014  0.1953
  109MOL   C28848024   6.778   0.630   2.325 -0.4112  0.2794  0.0549
  109MOL   C28948025   6.656   0.688   2.256 -0.1013 -0.0811 -0.1501
  109MOL   C29048026   6.523   0.638   2.309 -0.2698 -0.1270 -0.2757
  109MOL   C29148027   6.400   0.696   2.233 -0.2736  0.2727 -0.5614
  109MOL   C29248028   6.406   0.851   2.240 -0.4293  0.5468 -0.8532
  109MOL   C29348029   6.532   0.904   2.176 -0.1039  0.3675 -0.2291
  109MOL   C29448030   6.657   0.842   2.242 -0.0630  0.2131  0.5022
  109MOL   C29548031   6.815   0.696   2.464 -0.2883  0.5248  0.3643
  109MOL   H29648032   6.740   0.528   2.334 -1.7389  0.8411  1.1405
  109MOL   H29748033   6.646   0.655   2.152 -1.1743  0.3005 -0.1679
  109MOL   H29848034   6.528   0.532   2.287  1.7231 -0.2599  0.6895
  109MOL   H29948035   6.510   0.670   2.412 -0.0325  0.4816 -0.4331
  109MOL   H30048036   6.385   0.670   2.129  0.7006  0.4976 -0.7712
  109MOL   H30148037   6.312   0.665   2.288  0.3006  1.0413  0.8287
  109MOL   H30248038   6.392   0.890   2.341 -3.5516  1.2864 -1.5208
  109MOL   H30348039   6.319   0.895   2.190 -0.3478 -0.4057 -1.8468
  109MOL   H30448040   6.537   1.012   2.193  0.3023  0.2659  0.3191
  109MOL   H30548041   6.540   0.873   2.072  0.6378 -1.2507  0.3058
  109MOL   H30648042   6.681   0.888   2.338  5.2349  0.5577 -0.8143
  109MOL   H30748043   6.740   0.867   2.176  0.8377 -0.0134  1.5378
  109MOL   H30848044   6.879   0.784   2.460 -0.0357  0.4389  2.2798
  109MOL   H30948045   6.718   0.731   2.500 -0.3213  0.2507  0.5461
  109MOL   C31048046   6.860   0.592   2.573  0.2030 -0.4602  0.2738
  109MOL   C31148047   6.997   0.538   2.538 -0.3641  0.1288 -0.0611
  109MOL   C31248048   7.121   0.629   2.535  0.3642  0.4594 -0.5018
  109MOL   C31348049   7.242   0.547   2.485 -0.1202  0.2536 -0.0075
  109MOL   C31448050   7.273   0.409   2.559  0.0816 -0.2525  0.3621
  109MOL   C31548051   7.152   0.330   2.570  0.0587  0.1828 -0.2771
  109MOL   C31648052   7.035   0.415   2.625  0.3096  0.8691  0.3258
  109MOL   C31748053   6.863   0.658   2.716  0.2511 -0.0552  0.8213
  109MOL   H31848054   6.796   0.505   2.558 -0.6637  0.1400  0.4460
  109MOL   H31948055   6.993   0.494   2.438 -0.1980 -1.2310  0.5166
  109MOL   H32048056   7.109   0.709   2.463 -0.5573 -0.6292 -1.5874
  109MOL   H32148057   7.154   0.678   2.627  0.1642 -0.6291  0.1691
  109MOL   H32248058   7.323   0.619   2.476 -0.2151  0.0607 -3.2340
  109MOL   H32348059   7.213   0.530   2.381 -2.1111  0.5825  0.4693
  109MOL   H32448060   7.342   0.340   2.509 -3.9730 -3.4159 -1.1693
  109MOL   H32548061   7.318   0.422   2.657 -1.6414 -0.9562  1.2541
  109MOL   H32648062   7.125   0.296   2.470  1.8833  2.2745 -1.5335
  109MOL   H32748063   7.165   0.238   2.627  0.0304 -1.0196 -2.1556
  109MOL   H32848064   7.053   0.436   2.730 -3.4474  1.7192  0.8769
  109MOL   H32948065   6.947   0.351   2.626  1.6672 -1.1252 -2.1447
  109MOL   H33048066   6.936   0.739   2.720 -0.0494  0.2454  0.2778
  109MOL   H33148067   6.916   0.590   2.783  0.4603 -0.1885  0.5210
  109MOL   C33248068   6.728   0.688   2.787  0.0298  0.5319  0.8435
  109MOL   C33348069   6.736   0.717   2.943 -0.1107  0.0088  0.1273
  109MOL   C33448070   6.820   0.844   2.982  0.3846 -0.6749  0.4031
  109MOL   C33548071   6.825   0.860   3.137  1.3515  0.8587  0.3415
  109MOL   C33648072   6.858   0.733   3.212 -1.3830 -0.0760  0.1577
  109MOL   C33748073   6.768   0.622   3.170 -0.5880  0.8674  0.5586
  109MOL   C33848074   6.781   0.588   3.024  0.1257  0.3214  0.0848
  109MOL   C33948075   6.620   0.581   2.749 -1.1005 -0.0807  0.2895
  109MOL   H34048076   6.699   0.783   2.742  0.2832  0.1841 -0.0684
  109MOL   H34148077   6.639   0.743   2.985  0.9835  0.3295  2.5394
  109MOL   H34248078   6.919   0.842   2.937 -0.6643 -0.6419 -2.0477
  109MOL   H34348079   6.780   0.940   2.949  1.0413 -0.1895  1.0243
  109MOL   H34448080   6.890   0.942   3.166 -0.8735  1.9205  2.5277
  109MOL   H34548081   6.726   0.893   3.169  0.6297 -1.3207  0.4696
  109MOL   H34648082   6.959   0.711   3.177 -2.4056 -0.2816 -2.7922
  109MOL   H34748083   6.857   0.742   3.321  1.8911  2.0568  0.0770
  109MOL   H34848084   6.668   0.656   3.196 -0.7579 -0.6391  1.9775
  109MOL   H34948085   6.766   0.535   3.236 -0.0939  0.6692  0.3126
  109MOL   H35048086   6.723   0.498   3.006  0.7747 -0.4245  1.6213
  109MOL   H35148087   6.881   0.550   3.002 -0.0452 -0.2176  0.2295
  109MOL   H35248088   6.680   0.490   2.741  0.6135  1.0100  0.4134
  109MOL   H35348089   6.605   0.597   2.642  1.8556 -2.5736 -0.5797
  109MOL   C35448090   6.488   0.568   2.825  0.0861  0.1294  0.0659
  109MOL   C35548091   6.401   0.451   2.767 -0.6394  0.9393  0.4002
  109MOL   C35648092   6.463   0.315   2.782  0.1479 -0.2044  0.2549
  109MOL   C35748093   6.374   0.199   2.748  0.1927  0.3893 -0.3074
  109MOL   C35848094   6.338   0.206   2.597  0.0003  0.1421 -0.2790
  109MOL   C35948095   6.265   0.339   2.576  0.1913 -0.1920  0.2751
  109MOL   C36048096   6.354   0.459   2.615  0.1741  0.0898  0.1663
  109MOL   C36148097   6.406   0.700   2.807 -0.0850  0.4939 -0.8365
  109MOL   H36248098   6.514   0.548   2.929  0.9276 -0.6336 -0.2844
  109MOL   H36348099   6.315   0.440   2.833  1.4116  0.5519  3.0859
  109MOL   H36448100   6.488   0.306   2.888 -1.1200  0.9200  0.6598
  109MOL   H36548101   6.553   0.307   2.720 -0.2712 -1.1354 -0.2385
  109MOL   H36648102   6.434   0.108   2.759 -0.7141 -0.2221 -0.3303
  109MOL   H36748103   6.280   0.207   2.801  0.1283  1.8849 -0.6292
  109MOL   H36848104   6.424   0.208   2.529  0.0199 -0.9457 -0.2902
  109MOL   H36948105   6.275   0.122   2.569  0.4285 -0.7602  1.4534
  109MOL   H37048106   6.255   0.340   2.467 -0.9969 -1.0028  0.3737
  109MOL   H37148107   6.164   0.345   2.614  0.6114  1.6141  1.1724
  109MOL   H37248108   6.291   0.546   2.597 -1.4165 -1.0092  0.3205
  109MOL   H37348109   6.450   0.463   2.565 -0.0563 -3.2817 -0.6735
  109MOL   H37448110   6.408   0.725   2.700 -0.4721 -0.1857 -1.0005
  109MOL   H37548111   6.459   0.779   2.859  2.1798 -1.8310  0.4882
  109MOL   C37648112   6.258   0.713   2.865 -0.4534 -0.0100 -0.5941
  109MOL   C37748113   6.241   0.698   3.016 -0.1073  0.8305 -0.3445
  109MOL   C37848114   6.336   0.789   3.102 -0.4642  0.3112 -0.2383
  109MOL   C37948115   6.299   0.791   3.253 -0.0353 -1.1221  0.6130
  109MOL   C38048116   6.297   0.653   3.308 -0.6942  0.6189 -0.1331
  109MOL   C38148117   6.207   0.555   3.225 -0.5310 -0.1717  0.2765
  109MOL   C38248118   6.248   0.551   3.073  0.6477  0.3413  0.0192
  109MOL   C38348119   6.202   0.851   2.825  0.0519  0.3109 -0.3772
  109MOL   H38448120   6.196   0.644   2.808 -1.6553  0.7419 -0.1986
  109MOL   H38548121   6.136   0.719   3.037 -0.6074 -2.0047  0.2398
  109MOL   H38648122   6.439   0.753   3.101 -1.0648 -1.6877  3.0492
  109MOL   H38748123   6.334   0.890   3.063 -2.0009  0.1506 -0.6259
  109MOL   H38848124   6.203   0.842   3.267  0.5744 -0.5058  2.7798
  109MOL   H38948125   6.371   0.859   3.299  1.1210 -0.9230 -1.4142
  109MOL   H39048126   6.397   0.611   3.324 -0.9326  0.7781  1.9769
  109MOL   H39148127   6.265   0.661   3.412  1.1181  2.9586  0.3050
  109MOL   H39248128   6.212   0.455   3.268 -0.5243 -0.0211  0.6249
  109MOL   H39348129   6.106   0.596   3.232 -0.9490 -0.6854 -2.0788
  109MOL   H39448130   6.350   0.514   3.064  0.5437 -0.2898  1.2624
  109MOL   H39548131   6.190   0.476   3.019 -0.3052  1.7083 -0.8826
  109MOL   H39648132   6.238   0.862   2.723 -0.4553  1.3968 -0.4473
  109MOL   H39748133   6.256   0.928   2.881  2.1634 -1.5760  0.2488
  109MOL   C39848134   6.047   0.873   2.825 -0.0169 -0.1586  0.5127
  109MOL   C39948135   6.013   0.973   2.933  0.3685 -0.1854  0.1912
  109MOL   C40048136   6.032   1.117   2.884  0.2729  0.0886 -0.2448
  109MOL   C40148137   6.003   1.220   2.992  0.0260  0.3341  0.0273
  109MOL   C40248138   5.859   1.198   3.046 -0.5595 -0.6114 -0.8949
  109MOL   C40348139   5.835   1.056   3.105  0.3640  0.4588 -0.4950
  109MOL   C40448140   5.873   0.951   2.998 -0.0684  0.0246 -0.2004
  109MOL   C40548141   5.984   0.903   2.685  0.0883 -0.8993 -0.1693
  109MOL   H40648142   6.011   0.780   2.870  2.4940 -0.2581  2.4722
  109MOL   H40748143   6.080   0.955   3.017 -1.2713 -0.2623  1.5049
  109MOL   H40848144   5.966   1.136   2.800 -0.0437 -0.4397 -0.1175
  109MOL   H40948145   6.131   1.136   2.842  0.3389  0.0178 -0.1212
  109MOL   H41048146   6.033   1.320   2.960  1.3725 -0.2024 -0.4284
  109MOL   H41148147   6.066   1.197   3.078  0.9928  0.2962 -0.6736
  109MOL   H41248148   5.796   1.231   2.963  0.1045 -0.4359 -1.3334
  109MOL   H41348149   5.836   1.269   3.126 -0.9296 -1.8492  0.1044
  109MOL   H41448150   5.900   1.029   3.188 -0.1441 -1.1321 -0.5970
  109MOL   H41548151   5.733   1.054   3.144  0.5344 -2.8544 -0.0777
  109MOL   H41648152   5.870   0.850   3.038 -0.1467 -0.4069 -1.2898
  109MOL   H41748153   5.800   0.946   2.917  0.3335 -1.3403 -0.4946
  109MOL   H41848154   5.881   0.938   2.692 -0.0742 -1.6049  1.2277
  109MOL   H41948155   6.039   0.987   2.643  0.7116 -1.3898 -0.3504
  109MOL   C42048156   5.987   0.787   2.577  0.4182 -0.9864  1.0321
  109MOL   C42148157   5.924   0.660   2.627  0.4601  0.0905 -0.0436
  109MOL   C42248158   5.937   0.541   2.526 -0.3631  0.2368  0.6845
  109MOL   C42348159   5.867   0.418   2.578  0.4978  0.3068 -0.6692
  109MOL   C42448160   5.715   0.441   2.605  0.6125  0.3862  0.3308
  109MOL   C42548161   5.704   0.550   2.704  0.1266  0.1473  0.5385
  109MOL   C42648162   5.773   0.682   2.664  0.6873  0.0693  1.0974
  109MOL   C42748163   6.113   0.785   2.495  0.4250 -0.2300  0.3724
  109MOL   H42848164   5.929   0.817   2.489  1.4038 -1.4406  0.2058
  109MOL   H42948165   5.967   0.620   2.719  0.7082 -0.6075 -0.4623
  109MOL   H43048166   5.891   0.567   2.431 -0.2784 -2.3336 -0.1029
  109MOL   H43148167   6.041   0.508   2.523 -0.2712  0.4834  1.1678
  109MOL   H43248168   5.882   0.344   2.499 -1.5780 -1.2126  0.2948
  109MOL   H43348169   5.911   0.379   2.670 -2.0088 -0.0592  0.4307
  109MOL   H43448170   5.671   0.347   2.640 -1.1078  1.6785  1.7611
  109MOL   H43548171   5.666   0.472   2.512 -1.2417  3.0592  2.1320
  109MOL   H43648172   5.740   0.517   2.802  0.5404  1.0523  0.7055
  109MOL   H43748173   5.597   0.567   2.710  0.1370  1.1204 -1.6833
  109MOL   H43848174   5.721   0.712   2.573  0.9693  0.0021  0.9135
  109MOL   H43948175   5.752   0.758   2.739  0.7742  1.5958 -0.4021
  109MOL   H44048176   6.141   0.887   2.467  0.2896  0.9598  4.3770
  109MOL   H44148177   6.196   0.742   2.551 -0.0024  2.3208  3.0848
  109MOL   H44248178   6.098   0.730   2.402 -1.0450 -0.1591  0.5588
  110MOL     C148179   5.070   0.932   0.966  0.0214  0.3071 -0.9489
  110MOL     C248180   5.146   1.021   0.870  0.3585  0.3233  0.2692
  110MOL     C348181   5.277   1.080   0.931  0.1297  0.4297  0.7707
  110MOL     C448182   5.357   1.175   0.839 -1.0029  0.3730  0.4715
  110MOL     C548183   5.265   1.282   0.788 -0.0059  0.2114 -0.2857
  110MOL     C648184   5.142   1.229   0.718  1.4647  0.6651 -0.2728
  110MOL     C748185   5.055   1.133   0.807 -0.1910  0.1431 -0.3874
  110MOL     C848186   5.139   0.836   1.064  0.1330 -0.0495 -0.1709
  110MOL     H948187   5.009   0.989   1.036  0.0568 -1.0106  0.1957
  110MOL    H1048188   5.176   0.957   0.787  1.7931 -0.1151  1.1018
  110MOL    H1148189   5.266   1.125   1.030  1.6237 -0.2358  1.2597
  110MOL    H1248190   5.345   1.000   0.961 -0.0507  0.0489  0.1628
  110MOL    H1348191   5.394   1.111   0.759 -0.8068  1.5517 -0.3977
  110MOL    H1448192   5.444   1.212   0.894 -0.0240  2.4279 -2.3256
  110MOL    H1548193   5.322   1.345   0.719  0.2167 -1.7171 -1.9223
  110MOL    H1648194   5.241   1.344   0.874 -1.0833  1.9101 -1.7774
  110MOL    H1748195   5.089   1.321   0.694 -2.8719 -0.6842  3.4694
  110MOL    H1848196   5.185   1.169   0.638  0.0528 -1.5048  0.5466
  110MOL    H1948197   4.979   1.079   0.751 -0.0208  0.1590 -0.6346
  110MOL    H2048198   4.996   1.197   0.872 -0.2322 -1.7947  1.5491
  110MOL    H2148199   5.063   0.786   1.125 -0.3234  1.5999  0.6593
  110MOL    H2248200   5.196   0.897   1.135  2.4890  1.4162 -3.2394
  110MOL    H2348201   5.002   0.873   0.905  0.7695 -0.1795 -1.3232
  110MOL    C2448202   5.210   0.720   0.995  1.1049  0.0141  0.1277
  110MOL    C2548203   5.325   0.659   1.080 -0.4275  0.8685 -0.3999
  110MOL    C2648204   5.281   0.609   1.217 -0.2303 -0.2145  0.1529
  110MOL    C2748205   5.402   0.551   1.298  0.0163 -0.7239 -0.0690
  110MOL    C2848206   5.519   0.661   1.301 -0.0960  0.6156  1.3229
  110MOL    C2948207   5.574   0.683   1.162  0.3733  0.0302  1.0509
  110MOL    C3048208   5.458   0.748   1.085 -0.6886  0.4855 -0.3090
  110MOL    C3148209   5.104   0.615   0.947 -0.4410 -0.2756  0.4128
  110MOL    H3248210   5.255   0.766   0.907 -1.7420 -0.9487 -1.9278
  110MOL    H3348211   5.362   0.576   1.018  0.3876  0.5540  0.4962
  110MOL    H3448212   5.206   0.532   1.198  1.2820 -2.5127  3.0724
  110MOL    H3548213   5.236   0.698   1.261  2.0062  0.2611  1.5408
  110MOL    H3648214   5.367   0.530   1.399  0.6100 -0.9545  0.0902
  110MOL    H3748215   5.433   0.457   1.254  0.6738 -0.5719  0.0743
  110MOL    H3848216   5.593   0.620   1.369  0.2169 -0.8182  0.1562
  110MOL    H3948217   5.483   0.755   1.342 -1.2305  1.3368 -1.2405
  110MOL    H4048218   5.663   0.747   1.163 -0.0080  0.6118 -0.4684
  110MOL    H4148219   5.596   0.588   1.113 -0.0023  1.1057 -1.2782
  110MOL    H4248220   5.431   0.846   1.125  3.0701  1.9238 -1.1025
  110MOL    H4348221   5.484   0.777   0.984 -0.8882 -1.6895 -0.9950
  110MOL    H4448222   5.006   0.633   0.992 -1.1204 -2.6670 -0.0771
  110MOL    H4548223   5.130   0.512   0.974  1.3552  0.3801  1.3300
  110MOL    C4648224   5.077   0.609   0.793  0.1399  0.2972 -0.2144
  110MOL    C4748225   4.941   0.549   0.743 -0.2835  0.4412  0.2471
  110MOL    C4848226   4.820   0.627   0.788  0.1967 -0.2818  0.5723
  110MOL    C4948227   4.687   0.566   0.737  0.5873  0.1484  0.3668
  110MOL    C5048228   4.676   0.413   0.760 -0.5312  0.3780 -1.1039
  110MOL    C5148229   4.802   0.339   0.710 -0.9954  0.1415  0.0537
  110MOL    C5248230   4.928   0.397   0.778  0.1691 -0.9359 -0.4051
  110MOL    C5348231   5.203   0.544   0.725  0.4270 -0.0928 -0.8180
  110MOL    H5448232   5.076   0.711   0.754  0.4307 -0.2531 -1.6689
  110MOL    H5548233   4.947   0.545   0.635 -0.7451 -0.9997  0.2625
  110MOL    H5648234   4.814   0.621   0.897  0.8132 -0.5205  0.5900
  110MOL    H5748235   4.836   0.731   0.761 -0.9518 -0.2865 -0.1686
  110MOL    H5848236   4.688   0.587   0.630  1.0708 -1.1681  0.1097
  110MOL    H5948237   4.596   0.612   0.778  1.5611  3.4998 -1.0173
  110MOL    H6048238   4.666   0.395   0.867 -0.0858  1.0857 -0.9418
  110MOL    H6148239   4.579   0.377   0.726 -0.0962  0.0509 -2.0184
  110MOL    H6248240   4.812   0.339   0.602 -3.3097  0.6752 -0.1796
  110MOL    H6348241   4.805   0.235   0.744  3.2976  0.0507 -0.2618
  110MOL    H6448242   4.917   0.373   0.884  2.7641 -0.0832  0.1054
  110MOL    H6548243   5.012   0.344   0.735  0.8308  0.5804 -1.0129
  110MOL    H6648244   5.206   0.438   0.750 -0.0033  0.5345  2.0267
  110MOL    H6748245   5.297   0.575   0.770  0.1550  0.8647 -0.9024
  110MOL    C6848246   5.217   0.562   0.575 -0.2682 -0.2900  0.1417
  110MOL    C6948247   5.241   0.709   0.531 -0.3609  0.3922 -0.4590
  110MOL    C7048248   5.380   0.760   0.592  0.0315 -0.3386  0.1890
  110MOL    C7148249   5.405   0.900   0.546  0.7855  0.2852 -0.2545
  110MOL    C7248250   5.409   0.924   0.398  0.1074 -0.6741  0.7299
  110MOL    C7348251   5.288   0.864   0.331 -0.3526  0.7445 -0.7325
  110MOL    C7448252   5.256   0.723   0.381  0.1590  0.0399 -0.5028
  110MOL    C7548253   5.340   0.468   0.538 -0.3492 -0.0806  0.7009
  110MOL    H7648254   5.123   0.535   0.527  0.2081  0.1810 -1.0847
  110MOL    H7748255   5.157   0.775   0.554 -0.1372  1.0448 -1.4768
  110MOL    H7848256   5.461   0.692   0.567 -0.5929 -1.2514  0.6246
  110MOL    H7948257   5.367   0.760   0.700 -0.5937 -0.3476  0.1193
  110MOL    H8048258   5.328   0.959   0.596  0.3439 -1.2924  0.9608
  110MOL    H8148259   5.497   0.941   0.589 -0.9164  2.7395  1.1210
  110MOL    H8248260   5.505   0.900   0.353 -1.1941  0.0308 -2.5463
  110MOL    H8348261   5.408   1.032   0.387  3.1936 -0.7931 -1.2261
  110MOL    H8448262   5.304   0.858   0.223 -1.4268  0.4053 -0.8839
  110MOL    H8548263   5.192   0.916   0.335 -1.0138 -0.4765 -0.5532
  110MOL    H8648264   5.330   0.657   0.335  0.5117 -0.2990  0.5517
  110MOL    H8748265   5.161   0.691   0.338  0.0668  0.5612 -0.7017
  110MOL    H8848266   5.401   0.500   0.454  0.9075  0.4695  1.8083
  110MOL    H8948267   5.411   0.473   0.620 -0.1458 -1.2032  0.6099
  110MOL    C9048268   5.315   0.315   0.515 -0.4183  0.4120 -0.2897
  110MOL    C9148269   5.275   0.298   0.372  0.3891 -0.0644  0.6802
  110MOL    C9248270   5.385   0.310   0.266  0.3037  0.0402  0.7151
  110MOL    C9348271   5.341   0.279   0.125 -0.1942 -0.4170 -0.0231
  110MOL    C9448272   5.275   0.144   0.112  0.3335  0.1555 -0.3577
  110MOL    C9548273   5.153   0.137   0.211 -0.4055  0.0243 -0.2335
  110MOL    C9648274   5.192   0.168   0.355 -0.8412 -0.2593 -0.3351
  110MOL    C9748275   5.437   0.224   0.550 -0.2732  0.5560 -0.0283
  110MOL    H9848276   5.232   0.281   0.575 -0.1357 -0.2497 -0.2676
  110MOL    H9948277   5.213   0.383   0.344  0.0014  0.4598  3.0673
  110MOL   H10048278   5.457   0.230   0.282  2.7764  1.5436 -2.3974
  110MOL   H10148279   5.444   0.402   0.265  0.8144 -0.2890 -0.0873
  110MOL   H10248280   5.420   0.276   0.050 -0.2444  2.3992 -0.2169
  110MOL   H10348281   5.274   0.357   0.088 -0.1464 -0.0935  0.5634
  110MOL   H10448282   5.346   0.072   0.153  0.6038  0.8050  0.3369
  110MOL   H10548283   5.254   0.107   0.012  1.0509 -0.7029 -0.1950
  110MOL   H10648284   5.081   0.205   0.166  0.6226 -1.2297 -3.9822
  110MOL   H10748285   5.110   0.037   0.215  0.0173 -0.1284  0.4794
  110MOL   H10848286   5.101   0.179   0.416  0.4646  1.3100  1.3954
  110MOL   H10948287   5.254   0.088   0.396  0.2951 -0.2972 -2.1017
  110MOL   H11048288   5.445   0.135   0.487  0.7439  0.9299 -0.4317
  110MOL   H11148289   5.536   0.265   0.528  0.0853  0.3462  1.1501
  110MOL   C11248290   5.435   0.180   0.699  0.1282 -0.2406  0.3250
  110MOL   C11348291   5.576   0.181   0.767  0.4677 -0.0370  0.6931
  110MOL   C11448292   5.643   0.323   0.783 -0.4208 -0.4264 -0.6254
  110MOL   C11548293   5.771   0.320   0.851 -0.0461  0.3930  0.2555
  110MOL   C11648294   5.863   0.220   0.781 -0.9077  0.1633  0.1554
  110MOL   C11748295   5.813   0.067   0.778 -0.9669  0.1125  0.4488
  110MOL   C11848296   5.676   0.076   0.706  0.5548 -0.1921 -0.1258
  110MOL   C11948297   5.362   0.046   0.705 -0.1801 -0.4259 -0.0128
  110MOL   H12048298   5.367   0.243   0.755 -0.4447  0.1294 -0.7857
  110MOL   H12148299   5.566   0.146   0.870 -1.4981 -0.4005  0.4010
  110MOL   H12248300   5.573   0.386   0.839  1.0218  0.7016 -0.0820
  110MOL   H12348301   5.654   0.381   0.692 -0.6485  0.0589 -0.3463
  110MOL   H12448302   5.809   0.422   0.861 -0.4121  0.5565 -0.0106
  110MOL   H12548303   5.747   0.285   0.952 -1.1946 -0.6999 -0.3787
  110MOL   H12648304   5.867   0.256   0.678  1.7337  1.0968  0.5405
  110MOL   H12748305   5.961   0.223   0.829 -0.7921  1.1587 -0.1171
  110MOL   H12848306   5.876   0.001   0.717  0.2093  1.0721  0.5950
  110MOL   H12948307   5.797   0.020   0.875  0.7561  0.9900  1.1843
  110MOL   H13048308   5.625   7.752   0.708 -2.9441  1.5296 -0.8550
  110MOL   H13148309   5.693   0.114   0.605  2.7383 -0.0135  0.2995
  110MOL   H13248310   5.412   7.750   0.636  0.2076  0.8923 -1.0423
  110MOL   H13348311   5.261   0.050   0.664 -1.0263 -1.5858  1.8866
  110MOL   C13448312   5.342   7.745   0.843  0.6781 -0.4816  0.4526
  110MOL   C13548313   5.298   7.599   0.809  0.0081 -0.5985  0.1165
  110MOL   C13648314   5.422   7.515   0.772  0.4646 -0.4363 -0.5445
  110MOL   C13748315   5.392   7.368   0.760  0.0842 -0.2989  0.3817
  110MOL   C13848316   5.265   7.337   0.678  0.2850  0.8518  0.1087
  110MOL   C13948317   5.140   7.425   0.713  0.0758 -0.4291 -0.1075
  110MOL   C14048318   5.186   7.570   0.710 -0.0670 -0.5493 -0.5131
  110MOL   C14148319   5.245   0.045   0.939  0.1347 -0.2405  0.8053
  110MOL   H14248320   5.439   7.732   0.891  1.9368 -1.2291 -2.1424
  110MOL   H14348321   5.274   7.552   0.904  1.2859 -0.1449  0.6715
  110MOL   H14448322   5.465   7.547   0.677  0.9737 -2.3577 -0.9844
  110MOL   H14548323   5.496   7.520   0.852  1.6035  0.9206 -1.6598
  110MOL   H14648324   5.393   7.337   0.865 -1.9017  0.4706  0.6682
  110MOL   H14748325   5.479   7.322   0.713 -2.5005 -1.3532 -3.6573
  110MOL   H14848326   5.284   7.351   0.572 -0.8589 -0.3177 -0.2636
  110MOL   H14948327   5.229   7.234   0.686  1.5895  0.4181  0.5934
  110MOL   H15048328   5.103   7.396   0.812  2.0922 -0.4806  0.6611
  110MOL   H15148329   5.067   7.401   0.636  0.8281 -2.4524 -0.2277
  110MOL   H15248330   5.221   7.601   0.611  2.3811 -0.9430  0.2175
  110MOL   H15348331   5.093   7.625   0.728 -0.0737 -0.6910 -0.1000
  110MOL   H15448332   5.150   0.061   0.887 -0.2892  0.7644  1.8574
  110MOL   H15548333   5.279   0.148   0.948  0.1615 -0.2773  1.1321
  110MOL   C15648334   5.218   7.753   1.082 -0.0752 -0.2839 -0.2068
  110MOL   C15748335   5.081   0.024   1.138 -0.8041  0.3330 -0.8061
  110MOL   C15848336   5.069   0.175   1.150 -0.5077 -0.0365  0.6703
  110MOL   C15948337   4.936   0.216   1.209 -0.8345  0.0914  0.0393
  110MOL   C16048338   4.816   0.178   1.115 -0.9357  0.3520 -0.9581
  110MOL   C16148339   4.820   0.024   1.101  0.5546  0.5319 -0.8534
  110MOL   C16248340   4.961   7.747   1.058 -0.5143 -0.1741 -0.4481
  110MOL   C16348341   5.339   7.767   1.186 -0.5934  0.7516 -0.2729
  110MOL   H16448342   5.207   7.644   1.082 -0.5972 -0.2918  3.2925
  110MOL   H16548343   5.075   7.769   1.243  0.8744  1.6049 -0.3607
  110MOL   H16648344   5.151   0.213   1.210 -0.2541  0.0291  0.2878
  110MOL   H16748345   5.075   0.230   1.055  1.2471 -1.2666  0.0475
  110MOL   H16848346   4.925   0.171   1.307  0.4938  0.2392  0.2537
  110MOL   H16948347   4.928   0.323   1.228 -0.8208  0.2762 -0.9232
  110MOL   H17048348   4.826   0.232   1.020  1.2123 -0.1247 -1.0470
  110MOL   H17148349   4.728   0.225   1.157 -1.1068  0.2512 -1.2036
  110MOL   H17248350   4.748   7.772   1.023 -0.0495  3.1543 -1.1772
  110MOL   H17348351   4.789   7.745   1.192 -1.5369  2.2890 -0.5227
  110MOL   H17448352   4.959   7.638   1.057 -1.6834 -0.2128  2.1558
  110MOL   H17548353   4.967   0.006   0.954  1.5168  1.9280  0.2506
  110MOL   H17648354   5.300   0.019   1.285  1.5244  1.6002  0.3868
  110MOL   H17748355   5.398   0.080   1.151 -0.6057  0.7320 -0.3428
  110MOL   C17848356   5.436   7.640   1.195  0.5214  0.3210  0.1495
  110MOL   C17948357   5.583   7.684   1.225  0.2314 -0.3954 -0.4125
  110MOL   C18048358   5.601   0.004   1.354  0.1449 -0.4310 -0.3024
  110MOL   C18148359   5.755   0.020   1.392  0.0490 -0.5941  0.1992
  110MOL   C18248360   5.846   0.047   1.271 -0.3543 -0.3759  0.0076
  110MOL   C18348361   5.815   7.735   1.142  0.3409 -0.0635 -0.5589
  110MOL   C18448362   5.666   7.732   1.105  0.8415 -0.3166  0.0812
  110MOL   C18548363   5.390   7.548   1.316 -0.0040  0.7646 -0.0057
  110MOL   H18648364   5.443   7.583   1.102  1.4472  0.4623  0.1267
  110MOL   H18748365   5.629   7.588   1.247  0.1502 -1.1902 -3.5327
  110MOL   H18848366   5.554   0.099   1.328 -0.2056 -0.8278 -1.1533
  110MOL   H18948367   5.545   7.734   1.437 -5.4609 -0.2826 -3.7757
  110MOL   H19048368   5.781   7.694   1.431 -1.8164 -0.7585  1.0566
  110MOL   H19148369   5.774   0.086   1.477 -0.9167  0.3088 -0.2707
  110MOL   H19248370   5.834   0.149   1.234 -1.2699 -0.0116  1.2726
  110MOL   H19348371   5.951   0.039   1.300  0.1351 -0.6524 -1.7962
  110MOL   H19448372   5.840   7.630   1.160  2.2012  0.4502 -0.0835
  110MOL   H19548373   5.884   7.753   1.060 -1.5719  1.4808 -1.8713
  110MOL   H19648374   5.639   0.063   1.082  0.0813 -0.7164 -0.8232
  110MOL   H19748375   5.634   7.664   1.027 -0.9533  1.5585 -0.8632
  110MOL   H19848376   5.473   7.484   1.346 -0.4594  0.1267 -0.1190
  110MOL   H19948377   5.379   7.608   1.406 -3.7684 -0.4275  0.3891
  110MOL   C20048378   5.267   7.459   1.312  0.4841  0.2411 -0.5539
  110MOL   C20148379   5.272   7.352   1.198  0.8446 -0.2827  0.1797
  110MOL   C20248380   5.356   7.227   1.232  0.3152 -0.1951  0.4221
  110MOL   C20348381   5.368   7.120   1.113 -0.1161  0.2318  0.0676
  110MOL   C20448382   5.232   7.072   1.075  0.1987 -0.7592  0.8827
  110MOL   C20548383   5.140   7.189   1.053  0.4071  0.0733  0.7802
  110MOL   C20648384   5.129   7.297   1.162  0.5456  0.0423 -0.4265
  110MOL   C20748385   5.239   7.397   1.451 -0.0985  0.3717 -0.6899
  110MOL   H20848386   5.181   7.523   1.293 -0.2348 -0.3881  0.5117
  110MOL   H20948387   5.300   7.399   1.104  2.7167 -0.3372  0.6976
  110MOL   H21048388   5.300   7.183   1.314 -0.5970  0.1759  0.0054
  110MOL   H21148389   5.454   7.257   1.270 -0.1255  0.4993  1.0296
  110MOL   H21248390   5.424   7.173   1.036  0.8567 -1.0287 -0.1141
  110MOL   H21348391   5.428   7.034   1.142 -0.6451 -0.3342 -0.4910
  110MOL   H21448392   5.238   7.008   0.987  1.1277 -0.4596  0.7270
  110MOL   H21548393   5.190   6.999   1.144  3.6242 -2.7005  0.9803
  110MOL   H21648394   5.175   7.244   0.966 -1.7536 -0.6269 -0.5823
  110MOL   H21748395   5.034   7.165   1.042 -0.1714  1.9022  2.1039
  110MOL   H21848396   5.082   7.389   1.126  1.4853  0.0941 -1.5471
  110MOL   H21948397   5.077   7.266   1.253  0.8449  2.6024  0.6370
  110MOL   H22048398   5.171   7.313   1.449 -0.1375  0.4357 -2.0526
  110MOL   H22148399   5.328   7.345   1.487 -0.9293  1.6748  3.5686
  110MOL   C22248400   5.185   7.490   1.570 -0.5202 -0.7060 -0.0974
  110MOL   C22348401   5.057   7.563   1.536 -0.6436 -0.6104 -0.1749
  110MOL   C22448402   5.015   7.683   1.631 -0.0906  0.0242 -0.0693
  110MOL   C22548403   4.896   7.756   1.572 -0.0668 -0.0539  0.0791
  110MOL   C22648404   4.779   7.660   1.542 -0.2498  0.1266 -0.1059
  110MOL   C22748405   4.827   7.553   1.439 -0.4919 -0.0948  0.1109
  110MOL   C22848406   4.939   7.473   1.507  0.4953 -0.1882  0.2664
  110MOL   C22948407   5.167   7.400   1.692  0.3750 -0.5726 -0.5174
  110MOL   H23048408   5.265   7.558   1.600 -1.7743 -0.2512  2.3908
  110MOL   H23148409   5.092   7.618   1.449  3.7872 -0.3288  1.6184
  110MOL   H23248410   4.979   7.653   1.729 -0.8513 -0.8290 -0.5993
  110MOL   H23348411   5.098   7.753   1.640 -2.8241  3.4653 -0.8029
  110MOL   H23448412   4.920   0.037   1.480 -0.3104  3.0715  1.7586
  110MOL   H23548413   4.864   0.063   1.639  2.1398  0.3804  0.6621
  110MOL   H23648414   4.733   7.626   1.635 -0.3288 -1.7520 -0.8199
  110MOL   H23748415   4.702   7.720   1.493 -0.5667  0.3819  0.6940
  110MOL   H23848416   4.864   7.602   1.349 -2.5978  1.7571  0.1900
  110MOL   H23948417   4.739   7.493   1.415 -1.2033  0.6205  0.8807
  110MOL   H24048418   4.912   7.425   1.600  2.2925  0.1335  0.9800
  110MOL   H24148419   4.962   7.398   1.431 -2.3933 -0.0456 -0.8147
  110MOL   H24248420   5.100   7.316   1.670 -0.4257 -0.3158  0.8547
  110MOL   H24348421   5.102   7.443   1.769  0.6533 -4.2856  1.9642
  110MOL   C24448422   5.305   7.354   1.757  0.6325 -0.8283 -0.1003
  110MOL   C24548423   5.312   7.207   1.782 -0.0803 -0.1650  0.1686
  110MOL   C24648424   5.360   7.123   1.659 -0.4797  0.5289 -0.7591
  110MOL   C24748425   5.394   6.970   1.691  0.1289  0.1703  0.2681
  110MOL   C24848426   5.282   6.915   1.777 -0.5576 -0.2039  0.3441
  110MOL   C24948427   5.244   6.999   1.903  0.1676  0.3770 -0.3422
  110MOL   C25048428   5.197   7.143   1.862  0.5068 -0.2859 -0.7080
  110MOL   C25148429   5.325   7.431   1.892 -0.8912  0.1980 -0.6095
  110MOL   H25248430   5.393   7.387   1.701  0.6061  1.1681  0.9711
  110MOL   H25348431   5.394   7.194   1.853 -0.5137  1.6806  1.0388
  110MOL   H25448432   5.452   7.164   1.615  0.4532 -2.2352 -1.4821
  110MOL   H25548433   5.287   7.137   1.579 -1.5007  1.8307  0.3708
  110MOL   H25648434   5.409   6.910   1.601 -1.0632  1.8394 -1.0826
  110MOL   H25748435   5.483   6.974   1.754  0.1423 -1.8665  0.3932
  110MOL   H25848436   5.194   6.893   1.717  0.6776 -1.8508 -0.8942
  110MOL   H25948437   5.316   6.820   1.818  0.0180 -0.6930 -1.2316
  110MOL   H26048438   5.325   7.015   1.974  1.8964  0.1312 -2.2187
  110MOL   H26148439   5.163   6.956   1.961  1.6251 -0.7406  0.9164
  110MOL   H26248440   5.100   7.132   1.812  0.2571  0.6109 -0.4263
  110MOL   H26348441   5.176   7.195   1.955 -1.7816  1.3435 -2.0858
  110MOL   H26448442   5.426   7.402   1.921 -0.2677 -0.2147 -3.0682
  110MOL   H26548443   5.263   7.392   1.973  0.8143 -0.5140  0.3878
  110MOL   C26648444   5.329   7.582   1.897  0.2415  0.6025  0.4362
  110MOL   C26748445   5.287   7.633   2.042  0.1468  0.4570  0.0339
  110MOL   C26848446   5.388   7.588   2.151 -0.2891  0.5910  0.2871
  110MOL   C26948447   5.352   7.615   2.297  0.4526 -0.4040 -0.2225
  110MOL   C27048448   5.207   7.585   2.340 -0.2089  0.0359 -0.4602
  110MOL   C27148449   5.106   7.645   2.236  0.6932  0.3846  0.0662
  110MOL   C27248450   5.140   7.594   2.090 -0.2148 -1.0179 -0.2546
  110MOL   C27348451   5.462   7.646   1.846  0.5467  0.0358  0.0651
  110MOL   H27448452   5.254   7.609   1.823  0.2673  0.3679  0.3234
  110MOL   H27548453   5.291   7.741   2.051 -0.2779  0.3948  1.0540
  110MOL   H27648454   5.395   7.481   2.133 -0.5732  0.7864 -1.0186
  110MOL   H27748455   5.486   7.628   2.126  0.5336  0.3295  2.9351
  110MOL   H27848456   5.371   7.721   2.312 -0.5181 -0.0779 -1.2329
  110MOL   H27948457   5.424   7.561   2.359  0.8340  1.4771  1.0165
  110MOL   H28048458   5.192   7.478   2.353  2.2866 -0.2092  0.6546
  110MOL   H28148459   5.178   7.630   2.435 -1.0403 -3.2302  0.8809
  110MOL   H28248460   5.108   7.754   2.239 -0.7431  0.4984 -2.1531
  110MOL   H28348461   5.002   7.617   2.248  1.8106 -4.0185  0.4774
  110MOL   H28448462   5.078   7.649   2.020 -1.4518 -0.0410  1.5481
  110MOL   H28548463   5.105   7.492   2.078 -1.0288 -0.8381  0.4769
  110MOL   H28648464   5.477   7.634   1.739  0.3108  0.9484 -0.0733
  110MOL   H28748465   5.541   7.586   1.890  2.3244  1.6278 -0.9063
  110MOL   C28848466   5.482   0.027   1.856  0.0341  0.3438 -0.2038
  110MOL   C28948467   5.375   0.114   1.779  0.1486 -0.3613  0.0242
  110MOL   C29048468   5.367   0.255   1.843 -0.4834 -0.0905  0.6148
  110MOL   C29148469   5.268   0.354   1.773  0.1165 -0.0527 -0.0048
  110MOL   C29248470   5.299   0.356   1.621  0.4459  0.2557 -0.4187
  110MOL   C29348471   5.290   0.212   1.553 -0.9384  0.2961 -0.5862
  110MOL   C29448472   5.394   0.121   1.627 -0.2585  0.0228  0.4188
  110MOL   C29548473   5.625   0.066   1.817 -0.3314  0.1206 -0.1918
  110MOL   H29648474   5.474   0.060   1.959 -0.3678 -0.4953  0.0420
  110MOL   H29748475   5.280   0.064   1.797  0.6875 -1.1706  0.7040
  110MOL   H29848476   5.339   0.236   1.946 -0.0699 -0.8469  0.5864
  110MOL   H29948477   5.464   0.305   1.846 -0.1397 -0.5024 -2.1859
  110MOL   H30048478   5.166   0.326   1.798  0.2819  0.2173  0.9951
  110MOL   H30148479   5.280   0.449   1.824 -1.7911 -0.0639  0.5036
  110MOL   H30248480   5.403   0.388   1.611  0.1734  1.3763  0.2390
  110MOL   H30348481   5.244   0.425   1.557  0.6936  1.6865  0.8733
  110MOL   H30448482   5.322   0.220   1.449  1.4438 -0.4318  0.0586
  110MOL   H30548483   5.187   0.177   1.560 -1.1537  1.2925  1.6326
  110MOL   H30648484   5.494   0.153   1.598 -0.7062  1.1243  0.0358
  110MOL   H30748485   5.382   0.017   1.595  0.3023  0.2513 -0.5631
  110MOL   H30848486   5.650   0.005   1.730 -4.0947 -0.2200 -1.0963
  110MOL   H30948487   5.640   0.171   1.794  1.8334 -0.0089  0.4655
  110MOL   C31048488   5.736   0.040   1.930  0.1564 -0.2518 -0.5782
  110MOL   C31148489   5.875   7.765   1.887 -0.1847  0.4559  0.3801
  110MOL   C31248490   5.870   7.624   1.820 -0.6314 -0.2497  0.1122
  110MOL   C31348491   6.009   7.586   1.774 -1.0507 -0.4845 -0.3951
  110MOL   C31448492   6.070   7.689   1.670 -0.4108 -0.6014 -0.1035
  110MOL   C31548493   6.070   0.058   1.725 -0.3353 -0.3827 -0.4233
  110MOL   C31648494   5.929   0.094   1.775 -0.2234  0.4280 -0.2782
  110MOL   C31748495   5.749   0.168   2.015  0.1290  0.4050 -1.2575
  110MOL   H31848496   5.694   7.730   1.988 -0.8844 -0.0926 -1.0935
  110MOL   H31948497   5.934   7.744   1.977 -0.4953 -0.0612  0.4675
  110MOL   H32048498   5.823   7.548   1.884  0.9703 -1.8399 -0.5596
  110MOL   H32148499   5.802   7.634   1.735 -0.5168 -0.6878 -0.0305
  110MOL   H32248500   6.011   7.484   1.736  1.9063  0.2182 -2.1951
  110MOL   H32348501   6.074   7.581   1.861 -2.0976  1.8520  0.5771
  110MOL   H32448502   6.168   7.651   1.642  0.2365  0.8606  0.1180
  110MOL   H32548503   6.001   7.681   1.586 -1.0631  0.6783  0.2896
  110MOL   H32648504   6.138   0.050   1.809 -0.1343  0.9814 -0.4432
  110MOL   H32748505   6.104   0.143   1.665 -0.7909  1.1651  1.4503
  110MOL   H32848506   5.864   0.094   1.688  1.5938 -0.4540 -1.6491
  110MOL   H32948507   5.926   0.200   1.800  1.2845 -0.0419  2.0638
  110MOL   H33048508   5.655   0.186   2.067  0.8563  0.4322  0.0504
  110MOL   H33148509   5.750   0.257   1.953 -1.4566  1.0247 -0.4159
  110MOL   C33248510   5.857   0.186   2.130 -1.1061  0.4885 -0.3817
  110MOL   C33348511   5.852   0.086   2.239 -0.0785  0.4134 -0.4099
  110MOL   C33448512   5.736   0.102   2.339 -0.3970  0.3199 -0.7807
  110MOL   C33548513   5.757   0.000   2.450 -0.0166  0.7843 -0.1402
  110MOL   C33648514   5.889   0.014   2.526 -0.7030 -0.3013  0.0510
  110MOL   C33748515   6.007   7.766   2.433  0.1357 -0.1514 -0.0445
  110MOL   C33848516   5.991   0.076   2.310  0.8750  0.4646 -0.2916
  110MOL   C33948517   5.886   0.340   2.166  1.0565 -0.5598  0.6059
  110MOL   H34048518   5.946   0.152   2.077  1.2739 -0.8196  4.2624
  110MOL   H34148519   5.838   7.762   2.188 -1.5584  0.6753 -0.5154
  110MOL   H34248520   5.736   0.206   2.373  0.1483 -0.0906  0.5336
  110MOL   H34348521   5.640   0.094   2.288 -0.8450 -0.8945  0.2217
  110MOL   H34448522   5.670   0.004   2.516  0.4037 -0.4949  0.4896
  110MOL   H34548523   5.752   7.673   2.406 -0.0214  0.9801 -0.5805
  110MOL   H34648524   5.882   0.116   2.566 -1.6195 -0.4786  0.3515
  110MOL   H34748525   5.891   7.715   2.608 -4.1310  0.6264  0.9877
  110MOL   H34848526   6.008   7.660   2.407 -2.6877 -0.8457  2.4536
  110MOL   H34948527   6.101   0.022   2.480 -0.1725 -1.1812  1.2141
  110MOL   H35048528   6.060   0.055   2.228  0.3760 -3.0190  0.1160
  110MOL   H35148529   6.026   0.174   2.342 -0.7556  0.6542  0.9722
  110MOL   H35248530   5.925   0.355   2.266 -0.6423  0.1541  1.1796
  110MOL   H35348531   5.786   0.384   2.172  1.0020 -0.7958  1.4763
  110MOL   C35448532   5.971   0.424   2.063  0.5225 -0.0925  0.2041
  110MOL   C35548533   6.113   0.363   2.029 -0.5947 -0.4106  0.0256
  110MOL   C35648534   6.221   0.360   2.143  0.4494 -0.2161 -0.1015
  110MOL   C35748535   6.338   0.279   2.093  0.2775  0.5349  0.1714
  110MOL   C35848536   6.392   0.319   1.955  0.9639  0.0408 -0.5344
  110MOL   C35948537   6.286   0.332   1.846  0.2007 -0.7505  0.7831
  110MOL   C36048538   6.176   0.419   1.898 -0.1659 -0.3025 -0.3869
  110MOL   C36148539   5.972   0.574   2.104 -0.2334  0.2248 -0.3038
  110MOL   H36248540   5.907   0.413   1.976  1.3599  1.9264 -0.6960
  110MOL   H36348541   6.096   0.258   2.008  1.1724 -0.6433 -0.3318
  110MOL   H36448542   6.170   0.320   2.231  0.9477  0.4527  0.4890
  110MOL   H36548543   6.242   0.465   2.159  1.3940 -0.7235  2.2298
  110MOL   H36648544   6.422   0.280   2.162 -0.6559  1.5595  1.3253
  110MOL   H36748545   6.308   0.174   2.087  1.6119  0.0361  1.9378
  110MOL   H36848546   6.452   0.409   1.965 -0.8692  1.2699 -0.2049
  110MOL   H36948547   6.469   0.251   1.919 -0.7452 -2.1504 -0.2019
  110MOL   H37048548   6.341   0.379   1.765  1.3318  1.4693  2.7516
  110MOL   H37148549   6.254   0.230   1.830 -1.6716  0.0589 -0.7727
  110MOL   H37248550   6.098   0.419   1.822  1.9444 -1.7791 -2.6422
  110MOL   H37348551   6.202   0.525   1.909 -0.5722 -0.3638  1.3854
  110MOL   H37448552   6.070   0.618   2.083 -0.4591  0.6771 -0.4137
  110MOL   H37548553   5.961   0.589   2.212 -2.4896  0.8557 -0.6128
  110MOL   C37648554   5.864   0.660   2.028 -0.3007  0.1179  0.0284
  110MOL   C37748555   5.855   0.806   2.080 -0.0291 -0.1597 -0.2089
  110MOL   C37848556   5.994   0.876   2.092 -0.2267  0.0986 -0.2431
  110MOL   C37948557   5.974   1.024   2.137  0.2695 -0.0507 -0.5051
  110MOL   C38048558   5.888   1.029   2.267  1.1667  1.1393  0.2728
  110MOL   C38148559   5.756   0.953   2.261 -0.1613  0.3566 -0.0766
  110MOL   C38248560   5.780   0.809   2.218 -0.4142  0.4838 -0.6580
  110MOL   C38348561   5.886   0.657   1.872 -0.1140 -0.9590  0.3119
  110MOL   H38448562   5.770   0.608   2.046 -0.8004  1.0465  0.1313
  110MOL   H38548563   5.796   0.869   2.015 -0.1744  0.9387  0.9589
  110MOL   H38648564   6.042   0.821   2.172 -0.6158  1.2120  0.7767
  110MOL   H38748565   6.053   0.875   2.000 -0.5536  0.5587 -0.4644
  110MOL   H38848566   5.922   1.075   2.056  1.0809  1.8419  0.1365
  110MOL   H38948567   6.071   1.071   2.153  0.4245 -0.8769  1.1094
  110MOL   H39048568   5.944   1.003   2.357 -0.9158 -1.2254  0.9286
  110MOL   H39148569   5.859   1.133   2.283 -1.8378 -0.0484  2.8816
  110MOL   H39248570   5.711   0.949   2.360  0.6780  1.3241  0.3495
  110MOL   H39348571   5.682   1.003   2.198  1.4315  2.5282 -0.2629
  110MOL   H39448572   5.835   0.755   2.295  1.1424  1.4078 -1.1125
  110MOL   H39548573   5.683   0.759   2.212  0.1827 -0.7406 -0.2331
  110MOL   H39648574   5.971   0.593   1.851  1.1989  0.2668  1.8221
  110MOL   H39748575   5.927   0.754   1.843  0.4573 -1.2489  0.1469
  110MOL   C39848576   5.766   0.626   1.781 -0.4706  0.4886 -0.2345
  110MOL   C39948577   5.648   0.720   1.792  0.0948  0.3163  0.5162
  110MOL   C40048578   5.676   0.860   1.727 -0.7832 -0.2225 -0.2396
  110MOL   C40148579   5.567   0.966   1.750  0.1145 -0.4036  0.0524
  110MOL   C40248580   5.431   0.902   1.711 -0.0458  0.2839 -0.1075
  110MOL   C40348581   5.411   0.775   1.785  0.0887 -0.2462 -0.6713
  110MOL   C40448582   5.511   0.666   1.745 -0.3528  0.9737 -0.0518
  110MOL   C40548583   5.813   0.592   1.631  0.0632 -0.3130  0.7083
  110MOL   H40648584   5.727   0.529   1.813 -2.1011  1.0337 -0.4893
  110MOL   H40748585   5.643   0.742   1.898  1.1619  0.4781  0.5412
  110MOL   H40848586   5.678   0.842   1.619 -1.1655 -1.6217 -0.0316
  110MOL   H40948587   5.778   0.890   1.752  0.2302 -2.4934 -1.3989
  110MOL   H41048588   5.585   1.048   1.682  0.1722 -0.0826  0.4519
  110MOL   H41148589   5.568   0.998   1.854  0.7857 -0.3000  0.0154
  110MOL   H41248590   5.430   0.859   1.612 -0.1484 -1.2537  0.5544
  110MOL   H41348591   5.352   0.973   1.737  0.4883  0.8086  0.0936
  110MOL   H41448592   5.413   0.795   1.892  0.6359 -0.2397 -0.6851
  110MOL   H41548593   5.311   0.732   1.779  0.8843 -1.9851 -1.6799
  110MOL   H41648594   5.493   0.574   1.801  1.1117  0.5855 -0.1857
  110MOL   H41748595   5.508   0.639   1.639  2.1661  2.9666 -0.7030
  110MOL   H41848596   5.741   0.636   1.562  0.8944  2.1452  1.3188
  110MOL   H41948597   5.903   0.652   1.618 -0.4639 -0.1567 -2.4445
  110MOL   C42048598   5.844   0.446   1.596 -0.2944  0.1824 -1.2619
  110MOL   C42148599   5.932   0.422   1.472 -0.4756 -0.6502 -0.2985
  110MOL   C42248600   6.082   0.466   1.496 -0.5149  0.2854 -0.2854
  110MOL   C42348601   6.169   0.427   1.376 -0.6329  0.3357  0.3626
  110MOL   C42448602   6.113   0.499   1.253 -0.0794 -0.5398 -0.2233
  110MOL   C42548603   5.970   0.454   1.218 -0.0749  0.1616  0.2056
  110MOL   C42648604   5.875   0.467   1.334  0.7147 -0.1368 -0.0917
  110MOL   C42748605   5.709   0.371   1.590 -0.3602 -0.8053 -0.6484
  110MOL   H42848606   5.902   0.411   1.681 -3.2123 -0.6613  0.4642
  110MOL   H42948607   5.947   0.316   1.452 -1.7753 -0.8466 -0.2371
  110MOL   H43048608   6.078   0.574   1.508 -1.2081  0.2769 -0.3926
  110MOL   H43148609   6.133   0.420   1.580 -0.5928  1.0462  0.1826
  110MOL   H43248610   6.276   0.444   1.392 -0.8040  2.7502 -0.9065
  110MOL   H43348611   6.174   0.318   1.372 -0.9265  0.4057 -3.1522
  110MOL   H43448612   6.179   0.475   1.170 -0.9064  0.8116 -1.2980
  110MOL   H43548613   6.115   0.608   1.252 -1.8250 -0.4969  0.0354
  110MOL   H43648614   5.972   0.354   1.175  2.4087  0.8401 -1.3701
  110MOL   H43748615   5.925   0.502   1.131  0.6936  1.3693  0.4674
  110MOL   H43848616   5.834   0.568   1.332 -1.4941 -0.9999 -0.0789
  110MOL   H43948617   5.786   0.405   1.319 -0.3242  1.3019  0.0208
  110MOL   H44048618   5.648   0.386   1.679 -0.7552 -0.4746 -0.9756
  110MOL   H44148619   5.642   0.415   1.516  0.1655  0.9992 -0.0878
  110MOL   H44248620   5.723   0.264   1.573  1.7580 -0.5426 -0.6154
  111MOL     C148621   3.744   2.754   6.525  0.1532 -0.3461  0.1262
  111MOL     C248622   3.775   2.680   6.653  0.7722 -0.0067 -0.4918
  111MOL     C348623   3.860   2.557   6.630 -0.0271  0.1973  0.5889
  111MOL     C448624   3.780   2.449   6.553  0.5530  0.6014 -0.2098
  111MOL     C548625   3.655   2.407   6.633 -1.0584 -0.8991 -0.3281
  111MOL     C648626   3.571   2.532   6.669  0.2537 -0.2159  1.1264
  111MOL     C748627   3.649   2.644   6.739  0.1015  0.2303  0.3687
  111MOL     C848628   3.681   2.892   6.545 -0.9427 -0.4032  0.1260
  111MOL     H948629   3.835   2.751   6.466 -0.5884 -1.8759 -0.9875
  111MOL    H1048630   3.831   2.742   6.723 -0.6773 -0.6952  1.3276
  111MOL    H1148631   3.947   2.578   6.567 -0.1042  1.0423  0.7616
  111MOL    H1248632   3.899   2.513   6.721 -2.4590  0.2880  1.7052
  111MOL    H1348633   3.847   2.363   6.545 -0.4945 -0.1748 -0.7104
  111MOL    H1448634   3.756   2.482   6.452  0.8308  0.9776 -0.1549
  111MOL    H1548635   3.678   2.350   6.723  0.1451  0.8782  0.5105
  111MOL    H1648636   3.603   2.329   6.577  0.5937  0.3752 -3.7674
  111MOL    H1748637   3.520   2.562   6.578  0.8644 -3.2980 -0.2793
  111MOL    H1848638   3.491   2.493   6.732  0.0120  1.2935  1.7669
  111MOL    H1948639   3.694   2.612   6.833 -1.3464  2.3399  1.8383
  111MOL    H2048640   3.591   2.735   6.755  0.4001  0.8991 -2.0470
  111MOL    H2148641   3.723   2.939   6.634 -2.3840 -1.8315  1.6009
  111MOL    H2248642   3.583   2.871   6.588 -0.0201 -0.0575  2.4723
  111MOL    H2348643   3.682   2.689   6.463 -2.8836  3.6484 -1.2785
  111MOL    C2448644   3.677   2.983   6.419  0.0255 -0.4384  0.4974
  111MOL    C2548645   3.611   2.915   6.290  0.4623  0.1919  0.0600
  111MOL    C2648646   3.629   2.993   6.158 -0.3707 -0.3493  0.2912
  111MOL    C2748647   3.573   2.921   6.026  0.1700 -0.5273  0.2049
  111MOL    C2848648   3.427   2.880   6.052 -0.6036  0.4295  0.2216
  111MOL    C2948649   3.412   2.796   6.178  0.2036  0.4888 -0.4173
  111MOL    C3048650   3.463   2.878   6.297  0.1914  0.2515  0.1531
  111MOL    C3148651   3.614   3.115   6.463  0.4230 -0.0659 -0.5031
  111MOL    H3248652   3.777   3.008   6.382  0.3782  0.0008  1.7127
  111MOL    H3348653   3.676   2.830   6.271 -0.0780  0.0677 -1.3072
  111MOL    H3448654   3.734   3.023   6.149 -0.2190 -1.5033 -2.0896
  111MOL    H3548655   3.577   3.087   6.180  2.2758  0.6736  2.5167
  111MOL    H3648656   3.580   2.994   5.946 -0.3245  0.2921  0.9005
  111MOL    H3748657   3.636   2.837   5.999 -1.3446 -1.4266 -0.6095
  111MOL    H3848658   3.383   2.818   5.973 -1.2645 -0.0267  0.9485
  111MOL    H3948659   3.372   2.973   6.051  0.1474  0.8802 -0.4902
  111MOL    H4048660   3.306   2.788   6.202  0.2439  0.1264 -0.3648
  111MOL    H4148661   3.445   2.693   6.169  1.9283  1.1817 -2.3223
  111MOL    H4248662   3.401   2.967   6.313  0.1594  0.1006  0.8826
  111MOL    H4348663   3.460   2.809   6.381 -0.3407  0.5933  0.4202
  111MOL    H4448664   3.546   3.094   6.546 -0.2495  0.1744 -0.9926
  111MOL    H4548665   3.556   3.158   6.381  0.9662 -0.3089 -1.0158
  111MOL    C4648666   3.702   3.231   6.500 -0.4129  0.0747  0.6689
  111MOL    C4748667   3.650   3.325   6.620 -0.0304 -0.4245  0.6510
  111MOL    C4848668   3.690   3.279   6.757  0.2796 -0.1730 -0.6134
  111MOL    C4948669   3.658   3.383   6.865  0.1079  0.3308  0.4700
  111MOL    C5048670   3.505   3.402   6.865  1.0097 -0.5156  0.4706
  111MOL    C5148671   3.457   3.439   6.726  0.5097 -0.7592  0.2119
  111MOL    C5248672   3.501   3.344   6.616  0.8112  0.6385  0.1463
  111MOL    C5348673   3.751   3.318   6.376 -0.4020  0.1350 -0.1754
  111MOL    H5448674   3.791   3.195   6.553  0.7168  1.6267 -0.1240
  111MOL    H5548675   3.701   3.420   6.608  0.3134 -0.8631 -1.6653
  111MOL    H5648676   3.634   3.186   6.771 -0.3592  0.4099  0.7954
  111MOL    H5748677   3.796   3.260   6.772  0.3330  1.4251  1.2474
  111MOL    H5848678   3.722   3.471   6.862 -0.3836  0.6603 -0.3760
  111MOL    H5948679   3.685   3.341   6.962 -1.0622 -1.2051  0.1455
  111MOL    H6048680   3.453   3.308   6.880  0.1410  0.1141  1.5111
  111MOL    H6148681   3.473   3.471   6.943 -1.5745 -2.5772  1.2922
  111MOL    H6248682   3.497   3.539   6.707 -2.0528  0.1894 -0.3824
  111MOL    H6348683   3.350   3.449   6.744  0.6386  0.2548  0.4226
  111MOL    H6448684   3.451   3.248   6.628  2.9385 -0.6737 -1.1059
  111MOL    H6548685   3.478   3.390   6.520  0.6906  0.2849  0.0068
  111MOL    H6648686   3.672   3.386   6.343 -1.2159 -1.1523 -0.9337
  111MOL    H6748687   3.755   3.254   6.288 -2.5945 -0.4768  0.1315
  111MOL    C6848688   3.893   3.382   6.393  0.3728  0.1405  0.1842
  111MOL    C6948689   4.004   3.282   6.377  0.0321  0.5122  0.1137
  111MOL    C7048690   4.025   3.229   6.232 -0.3713 -0.1024 -0.4268
  111MOL    C7148691   4.127   3.109   6.240 -0.4464  0.3342  0.4512
  111MOL    C7248692   4.262   3.157   6.294 -0.3288 -0.6878 -0.7710
  111MOL    C7348693   4.246   3.224   6.438  0.4794  0.2008 -0.0304
  111MOL    C7448694   4.133   3.326   6.445 -0.0684 -0.6651 -0.7363
  111MOL    C7548695   3.909   3.512   6.305  0.0291 -0.7554  1.2848
  111MOL    H7648696   3.893   3.413   6.497  0.4012  0.0686  0.2057
  111MOL    H7748697   3.979   3.188   6.426  1.7088 -1.4035 -2.5797
  111MOL    H7848698   4.069   3.302   6.165 -0.1299  1.0066  0.9227
  111MOL    H7948699   3.930   3.196   6.189 -1.2274  0.2417  1.1668
  111MOL    H8048700   4.088   3.028   6.302 -2.4350  1.1795  0.3670
  111MOL    H8148701   4.149   3.085   6.136 -2.8726 -0.0811 -0.0127
  111MOL    H8248702   4.307   3.228   6.225  0.6901 -1.1507 -0.5923
  111MOL    H8348703   4.339   3.080   6.302 -1.6979 -1.8563  1.6909
  111MOL    H8448704   4.331   3.274   6.484  1.7472 -0.8532 -1.1821
  111MOL    H8548705   4.227   3.141   6.505  1.5011 -0.2169 -0.2535
  111MOL    H8648706   4.159   3.422   6.400  0.8900  0.3649  1.8944
  111MOL    H8748707   4.110   3.361   6.546 -0.4825 -3.4289  0.1640
  111MOL    H8848708   4.010   3.526   6.265 -1.3495  0.5570 -1.9248
  111MOL    H8948709   3.863   3.501   6.207  1.1119  1.3290  0.5158
  111MOL    C9048710   3.855   3.640   6.374 -0.5753 -0.1300  0.6214
  111MOL    C9148711   3.952   3.668   6.489  0.3159  0.4057  0.1727
  111MOL    C9248712   4.051   3.782   6.455 -0.0423 -0.0581  0.2511
  111MOL    C9348713   4.149   3.813   6.562 -0.3721  0.5928  0.3477
  111MOL    C9448714   4.080   3.849   6.688  0.4642 -0.2368  0.2282
  111MOL    C9548715   3.988   3.735   6.736  1.0460  0.2222 -0.2745
  111MOL    C9648716   3.887   3.697   6.628  0.2565  0.3278  0.1895
  111MOL    C9748717   3.818   3.753   6.279  0.1172  0.1451  0.1468
  111MOL    H9848718   3.767   3.605   6.429 -0.5151 -0.6832  0.3677
  111MOL    H9948719   4.019   3.583   6.497  1.8776  1.7264  1.4849
  111MOL   H10048720   4.007   3.882   6.443 -0.4062  0.0287  2.0439
  111MOL   H10148721   4.105   3.774   6.362 -3.7155  2.7712 -2.3082
  111MOL   H10248722   4.224   3.884   6.529 -0.5442  1.0452  0.9214
  111MOL   H10348723   4.201   3.719   6.582 -0.8577 -0.0377 -1.2126
  111MOL   H10448724   4.030   3.945   6.675 -1.2413 -1.0423  0.7188
  111MOL   H10548725   4.155   3.841   6.767  0.5403  1.8178  0.3908
  111MOL   H10648726   4.053   3.648   6.745  0.5063 -0.1925 -0.3199
  111MOL   H10748727   3.953   3.742   6.839  1.0920  1.4619 -0.3404
  111MOL   H10848728   3.823   3.619   6.670 -1.9284  2.7359  1.5188
  111MOL   H10948729   3.827   3.788   6.627 -3.1113 -1.8019  1.0757
  111MOL   H11048730   3.908   3.803   6.244  0.2213 -0.6484 -0.7489
  111MOL   H11148731   3.768   3.729   6.185 -2.6213  3.2583  0.6975
  111MOL   C11248732   3.728   3.864   6.340 -0.4895  0.0587 -0.0154
  111MOL   C11348733   3.590   3.818   6.389  0.3651 -0.3922 -0.9935
  111MOL   C11448734   3.502   3.749   6.284 -0.3330  0.2704 -0.3176
  111MOL   C11548735   3.380   3.678   6.345  0.3885 -0.2094 -0.0057
  111MOL   C11648736   3.294   3.767   6.433 -0.9212 -0.6593 -0.1380
  111MOL   C11748737   3.376   3.846   6.530 -0.3656 -0.0062 -0.8085
  111MOL   C11848738   3.497   3.916   6.462 -0.3848  0.1232 -0.4707
  111MOL   C11948739   3.721   3.997   6.257 -0.4709  0.4650  0.0025
  111MOL   H12048740   3.774   3.897   6.432  0.1705 -0.4100 -0.1764
  111MOL   H12148741   3.616   3.742   6.463  1.2147  0.1533 -0.7255
  111MOL   H12248742   3.570   3.690   6.223  0.8263  0.3163  0.9166
  111MOL   H12348743   3.463   3.827   6.219  2.6596  1.1440 -1.1216
  111MOL   H12448744   3.324   3.623   6.269  3.1122 -0.9364 -1.5664
  111MOL   H12548745   3.419   3.603   6.412  0.1981 -0.1324  0.1919
  111MOL   H12648746   3.231   3.832   6.372 -3.7311 -1.9272  1.3119
  111MOL   H12748747   3.212   3.710   6.478 -1.6677 -0.8487 -1.6876
  111MOL   H12848748   3.317   3.928   6.571 -0.4714 -0.7755  0.6019
  111MOL   H12948749   3.414   3.780   6.608  1.5489  0.4226 -1.3562
  111MOL   H13048750   3.557   3.975   6.531  0.4402  0.5035 -1.5123
  111MOL   H13148751   3.456   3.984   6.388  0.4307  1.1061 -0.0376
  111MOL   H13248752   3.626   3.998   6.202  0.1095  1.7731 -1.0032
  111MOL   H13348753   3.801   3.989   6.183  0.9224  0.7662  1.4747
  111MOL   C13448754   3.742   4.135   6.333 -0.4273  0.4954  0.1029
  111MOL   C13548755   3.668   4.258   6.268  0.5835  0.6260  1.0063
  111MOL   C13648756   3.513   4.251   6.284  0.0844 -0.1969 -0.5601
  111MOL   C13748757   3.457   4.389   6.237  0.3390  0.1669 -0.7118
  111MOL   C13848758   3.492   4.414   6.091 -0.1617  0.0905 -0.3933
  111MOL   C13948759   3.654   4.410   6.063  0.4987  0.0324 -0.1710
  111MOL   C14048760   3.719   4.282   6.126  0.2416 -0.2615  0.0372
  111MOL   C14148761   3.890   4.159   6.376  0.4292  0.4458 -0.6906
  111MOL   H14248762   3.688   4.129   6.428 -0.5200  1.9478  0.1537
  111MOL   H14348763   3.691   4.344   6.331  0.1136  0.0408  1.9838
  111MOL   H14448764   3.462   4.182   6.217 -2.5697 -0.1550  1.3771
  111MOL   H14548765   3.491   4.228   6.388  1.2407 -1.6091 -0.6165
  111MOL   H14648766   3.499   4.468   6.300  0.5261 -0.5997  0.1479
  111MOL   H14748767   3.350   4.378   6.259  1.2314 -3.0604  2.5958
  111MOL   H14848768   3.461   4.336   6.021 -2.4886 -0.4856  1.2409
  111MOL   H14948769   3.451   4.509   6.056 -0.8331 -0.0105  0.1122
  111MOL   H15048770   3.707   4.490   6.115 -1.5070 -0.3722  2.6206
  111MOL   H15148771   3.670   4.420   5.956 -0.2307  0.6311 -0.2327
  111MOL   H15248772   3.678   4.203   6.063 -0.3239  1.4696 -1.8561
  111MOL   H15348773   3.828   4.280   6.122  0.3258  0.0753  1.9266
  111MOL   H15448774   3.952   4.131   6.291 -0.1144 -2.9585 -0.0396
  111MOL   H15548775   3.902   4.079   6.449 -1.3885  0.6652 -0.1281
  111MOL   C15648776   3.938   4.291   6.443  0.2606  0.4556  0.0961
  111MOL   C15748777   4.095   4.297   6.470 -0.2500 -0.0805  0.8169
  111MOL   C15848778   4.142   4.207   6.589  0.0448 -0.6764 -0.0729
  111MOL   C15948779   4.285   4.244   6.623 -1.0198 -0.1527  0.7616
  111MOL   C16048780   4.374   4.223   6.497  0.3918  0.4991 -0.2292
  111MOL   C16148781   4.324   4.298   6.379  0.0620 -0.2711 -0.0725
  111MOL   C16248782   4.178   4.274   6.341 -0.5475  0.4501  0.7804
  111MOL   C16348783   3.857   4.316   6.573  0.5404 -0.1092 -0.1599
  111MOL   H16448784   3.912   4.367   6.369  0.6521 -0.5444 -1.1001
  111MOL   H16548785   4.116   4.400   6.502  0.5659  0.6068 -1.8545
  111MOL   H16648786   4.081   4.217   6.680  2.7351  1.5265  1.5613
  111MOL   H16748787   4.142   4.101   6.565  1.4699 -0.8702  0.7294
  111MOL   H16848788   4.288   4.346   6.663 -2.0226  0.2448 -0.1608
  111MOL   H16948789   4.319   4.181   6.706  2.2808 -0.5210 -0.7756
  111MOL   H17048790   4.385   4.122   6.457  2.3517  0.9954 -1.0035
  111MOL   H17148791   4.474   4.258   6.525 -0.2240  0.6084  1.9502
  111MOL   H17248792   4.391   4.285   6.294  0.3546  1.7504 -0.1852
  111MOL   H17348793   4.325   4.405   6.403 -0.0421 -0.3932  0.4739
  111MOL   H17448794   4.141   4.324   6.251  0.3327 -1.0403 -0.4390
  111MOL   H17548795   4.161   4.169   6.316  0.8648  0.6208 -1.0786
  111MOL   H17648796   3.873   4.226   6.631 -0.4784 -0.4695 -0.4376
  111MOL   H17748797   3.750   4.314   6.556  0.6459 -2.1102 -0.6461
  111MOL   C17848798   3.886   4.445   6.651 -0.0459  0.1273  0.2789
  111MOL   C17948799   3.862   4.573   6.561 -0.1192  0.9613 -0.0492
  111MOL   C18048800   3.910   4.702   6.626 -0.2027 -1.3072 -0.0171
  111MOL   C18148801   3.901   4.824   6.529 -0.6036  0.1620 -0.4190
  111MOL   C18248802   3.759   4.834   6.469  0.2242  0.5670 -0.1769
  111MOL   C18348803   3.710   4.697   6.411 -1.0470 -0.2176 -0.0152
  111MOL   C18448804   3.714   4.586   6.516  1.1053 -0.1395 -0.0856
  111MOL   C18548805   3.809   4.438   6.790 -0.3118 -0.4856 -0.7655
  111MOL   H18648806   3.993   4.446   6.670  0.1248  2.3339 -0.5923
  111MOL   H18748807   3.922   4.563   6.471 -1.7920  1.2091 -1.2164
  111MOL   H18848808   3.854   4.725   6.716 -0.5795 -0.8673 -0.3626
  111MOL   H18948809   4.013   4.700   6.663 -0.5637 -1.5856  0.9974
  111MOL   H19048810   3.977   4.816   6.452 -1.2951  0.1071 -1.1036
  111MOL   H19148811   3.939   4.911   6.583  0.3761 -0.3449 -0.2762
  111MOL   H19248812   3.688   4.872   6.542  1.6052  4.2796 -0.6267
  111MOL   H19348813   3.750   4.906   6.387  1.4213  1.7106  0.6713
  111MOL   H19448814   3.788   4.667   6.342 -0.0545  0.3976  0.8218
  111MOL   H19548815   3.613   4.711   6.362 -0.7158 -1.3730 -1.0149
  111MOL   H19648816   3.647   4.609   6.599  0.9760 -2.6058  0.5175
  111MOL   H19748817   3.677   4.495   6.468  2.6237  0.2386 -2.0412
  111MOL   H19848818   3.823   4.533   6.841 -1.7962  0.7470 -2.5866
  111MOL   H19948819   3.706   4.435   6.755  0.2078  0.2533 -2.3778
  111MOL   C20048820   3.845   4.327   6.891  0.1121 -0.3608  0.0704
  111MOL   C20148821   3.986   4.344   6.960 -0.2128  0.6996 -0.2074
  111MOL   C20248822   3.996   4.463   7.055  0.3812 -0.3674  0.4314
  111MOL   C20348823   4.143   4.482   7.112  0.3988 -0.3195  0.2404
  111MOL   C20448824   4.202   4.352   7.178  0.6902  0.0893 -0.2018
  111MOL   C20548825   4.192   4.232   7.083  0.5875  0.2190 -0.0184
  111MOL   C20648826   4.048   4.221   7.033 -0.1740 -1.1583  0.3399
  111MOL   C20748827   3.730   4.306   6.983  0.6036 -0.1319 -0.0675
  111MOL   H20848828   3.860   4.233   6.838  0.8068 -0.0478 -0.2878
  111MOL   H20948829   4.054   4.367   6.878  0.9078 -0.7762  0.2826
  111MOL   H21048830   3.926   4.462   7.139  1.2253 -1.4371  1.1408
  111MOL   H21148831   3.969   4.555   7.003 -0.1231 -1.3069 -1.0067
  111MOL   H21248832   4.205   4.513   7.027 -1.9717 -0.3048 -1.5594
  111MOL   H21348833   4.122   4.564   7.180 -1.0418 -0.8634  0.4650
  111MOL   H21448834   4.309   4.357   7.197  0.5672 -2.1968  1.2858
  111MOL   H21548835   4.157   4.333   7.276  2.7935  0.9206  0.9850
  111MOL   H21648836   4.247   4.245   6.989  0.8440  1.6270  0.3223
  111MOL   H21748837   4.227   4.141   7.132  3.9742  1.6556  0.3322
  111MOL   H21848838   4.052   4.135   6.967  2.4931 -0.5475 -0.3243
  111MOL   H21948839   3.983   4.204   7.119 -0.8195  1.7922  0.5125
  111MOL   H22048840   3.762   4.263   7.078  0.0267  1.8101  1.0306
  111MOL   H22148841   3.697   4.403   7.021  0.5224 -0.2679  0.2129
  111MOL   C22248842   3.611   4.223   6.919  0.4605 -0.1574  0.4552
  111MOL   C22348843   3.639   4.065   6.942  0.4902  0.2040 -0.0634
  111MOL   C22448844   3.586   3.970   6.835 -0.2387  0.4775  0.3862
  111MOL   C22548845   3.612   3.817   6.863  0.0463  0.2249 -0.1049
  111MOL   C22648846   3.616   3.769   7.007 -0.4988 -0.3811 -0.1102
  111MOL   C22748847   3.678   3.872   7.102 -0.3244 -0.1845 -0.9019
  111MOL   C22848848   3.621   4.013   7.084  0.2204  0.3189  0.4557
  111MOL   C22948849   3.477   4.284   6.976  0.8222  0.3998 -0.4638
  111MOL   H23048850   3.615   4.248   6.813 -0.5729  0.5722  0.5827
  111MOL   H23148851   3.744   4.055   6.916  0.4739 -1.3254  0.4020
  111MOL   H23248852   3.479   3.987   6.825 -0.3928  0.3310  1.6398
  111MOL   H23348853   3.624   3.985   6.734 -0.8741 -0.0086  0.0708
  111MOL   H23448854   3.708   3.790   6.818  0.3801  0.7332  0.2902
  111MOL   H23548855   3.532   3.763   6.813 -0.1452 -1.9965  2.4836
  111MOL   H23648856   3.513   3.751   7.035 -0.9686 -1.8144 -2.6484
  111MOL   H23748857   3.660   3.670   7.012  2.1702  0.6219 -2.2618
  111MOL   H23848858   3.778   3.859   7.061 -0.7033 -2.4588 -1.2139
  111MOL   H23948859   3.684   3.831   7.203 -0.5733 -1.2236 -1.2946
  111MOL   H24048860   3.515   4.007   7.107 -0.2322  0.0679 -1.5804
  111MOL   H24148861   3.659   4.075   7.165  0.4202 -0.5136  1.0013
  111MOL   H24248862   3.472   4.393   6.968  1.3833  0.3026 -2.4598
  111MOL   H24348863   3.482   4.264   7.083 -0.8723  2.6523  0.0837
  111MOL   C24448864   3.339   4.223   6.938  0.3226  0.2705  0.1911
  111MOL   C24548865   3.315   4.245   6.781 -0.8114  0.5923  0.2549
  111MOL   C24648866   3.307   4.393   6.730  0.5955  0.1982  0.1419
  111MOL   C24748867   3.293   4.410   6.581 -0.2070 -0.0226 -0.9417
  111MOL   C24848868   3.172   4.337   6.521  0.0666 -0.3185  0.5435
  111MOL   C24948869   3.174   4.192   6.566 -0.9106  0.0164 -0.9299
  111MOL   C25048870   3.188   4.175   6.722 -0.2280  0.4385 -0.6171
  111MOL   C25148871   3.222   4.253   7.038  0.3001  0.3873  0.2900
  111MOL   H25248872   3.342   4.115   6.955  0.7130  0.5024  1.6811
  111MOL   H25348873   3.405   4.199   6.741 -0.3482  1.4762  0.2827
  111MOL   H25448874   3.400   4.443   6.757 -0.2931  1.6354  0.5460
  111MOL   H25548875   3.221   4.444   6.773 -0.2537 -0.5121 -0.6803
  111MOL   H25648876   3.289   4.517   6.561  0.0967 -0.2496 -2.2477
  111MOL   H25748877   3.381   4.360   6.539 -0.6634 -1.3883 -0.2930
  111MOL   H25848878   3.082   4.389   6.554  0.7589  0.6349  0.9754
  111MOL   H25948879   3.173   4.347   6.413  1.2914 -1.3488  0.4457
  111MOL   H26048880   3.261   4.145   6.520  0.5288 -0.3290  2.0306
  111MOL   H26148881   3.079   4.144   6.540 -1.5738 -0.1080  1.5788
  111MOL   H26248882   3.100   4.218   6.770  0.4623  3.5810 -1.9927
  111MOL   H26348883   3.196   4.072   6.756  0.0415  0.7128  0.1694
  111MOL   H26448884   3.179   4.341   6.989  1.5692  0.3802 -0.8955
  111MOL   H26548885   3.265   4.283   7.133 -0.8467  1.4056  0.4989
  111MOL   C26648886   3.112   4.149   7.053  0.2694  0.6945  1.2634
  111MOL   C26748887   3.147   4.029   7.145  0.1508 -0.3763  0.2029
  111MOL   C26848888   3.246   4.069   7.264  0.3629 -0.5159  0.1240
  111MOL   C26948889   3.261   3.957   7.356  0.4598 -0.6364 -0.1314
  111MOL   C27048890   3.309   3.824   7.289  0.0067 -0.1189  0.7103
  111MOL   C27148891   3.218   3.785   7.181 -0.4066  0.1946 -0.3871
  111MOL   C27248892   3.191   3.899   7.079  0.2149 -0.1692 -0.5067
  111MOL   C27348893   2.973   4.209   7.099  0.7863 -0.0586  0.1203
  111MOL   H27448894   3.096   4.097   6.959 -0.4996 -0.4120  1.9893
  111MOL   H27548895   3.062   4.000   7.206 -0.0303  0.9714  0.6036
  111MOL   H27648896   3.347   4.090   7.228  0.6988 -1.1048  0.7105
  111MOL   H27748897   3.210   4.159   7.314 -0.9109 -1.1880  0.4439
  111MOL   H27848898   3.161   3.937   7.394  0.3647  0.1522  0.0294
  111MOL   H27948899   3.330   3.973   7.439 -0.4652 -2.5225  1.0446
  111MOL   H28048900   3.413   3.841   7.259 -0.9269  0.3612 -2.3743
  111MOL   H28148901   3.314   3.748   7.367 -0.5948  0.0043  0.8653
  111MOL   H28248902   3.130   3.757   7.238 -0.2557  2.2388  0.9251
  111MOL   H28348903   3.251   3.697   7.126 -2.1690  0.1900 -1.4669
  111MOL   H28448904   3.113   3.860   7.014 -0.1322 -0.1779 -0.0864
  111MOL   H28548905   3.279   3.923   7.020 -0.2374  4.0053  0.3645
  111MOL   H28648906   2.907   4.124   7.116  0.1102  0.5044  0.3484
  111MOL   H28748907   2.933   4.275   7.022 -1.6708  1.7295  2.8521
  111MOL   C28848908   2.956   4.293   7.230 -0.2982 -0.6882  0.3145
  111MOL   C28948909   2.810   4.289   7.284  0.5210  0.4321 -0.4593
  111MOL   C29048910   2.702   4.305   7.170 -0.0603 -0.1303 -0.4439
  111MOL   C29148911   2.556   4.294   7.223 -1.1379 -0.9345 -0.2501
  111MOL   C29248912   2.521   4.165   7.306  0.1040 -0.1674  0.1484
  111MOL   C29348913   2.633   4.140   7.411 -0.3259 -0.0631  0.1096
  111MOL   C29448914   2.775   4.152   7.356  0.0357 -1.1556 -0.3006
  111MOL   C29548915   3.012   4.437   7.222  0.5281  0.5080  0.3638
  111MOL   H29648916   3.010   4.236   7.306  0.7113  0.3387  0.3715
  111MOL   H29748917   2.789   4.369   7.356  0.3214  2.8640 -3.1632
  111MOL   H29848918   2.719   4.397   7.114 -1.6377 -0.2550 -1.1389
  111MOL   H29948919   2.715   4.223   7.099  2.0688  0.4111 -0.7065
  111MOL   H30048920   2.526   4.362   7.302  0.0027 -1.2515  0.4706
  111MOL   H30148921   2.483   4.301   7.142 -3.3554  0.0954  1.7895
  111MOL   H30248922   2.522   4.074   7.246  4.0443  0.4253 -0.8018
  111MOL   H30348923   2.432   4.172   7.369  2.6563 -0.7943  3.9881
  111MOL   H30448924   2.608   4.045   7.459 -0.3486  0.5169  1.2758
  111MOL   H30548925   2.623   4.200   7.502  2.2370  0.1644  0.2726
  111MOL   H30648926   2.788   4.069   7.287  2.1968 -0.4958 -0.7326
  111MOL   H30748927   2.845   4.127   7.435  0.0350  0.5973  0.2756
  111MOL   H30848928   3.043   4.463   7.121 -3.0548  1.3316 -0.6097
  111MOL   H30948929   2.923   4.498   7.235 -0.4773 -0.9568  0.5834
  111MOL   C31048930   3.110   4.467   7.324  0.0736  0.3849 -1.3795
  111MOL   C31148931   3.182   4.605   7.291  0.8826  0.1649 -0.1053
  111MOL   C31248932   3.290   4.594   7.179  0.2680  0.2431  0.0625
  111MOL   C31348933   3.380   4.715   7.171  0.3479  0.7020  0.0360
  111MOL   C31448934   3.286   4.841   7.141  0.3527 -0.6214 -0.3213
  111MOL   C31548935   3.176   4.854   7.244  0.4154  0.0881  0.0999
  111MOL   C31648936   3.093   4.724   7.251  0.2537  0.3491  0.1097
  111MOL   C31748937   3.052   4.478   7.469 -0.0170  0.2732  0.1687
  111MOL   H31848938   3.187   4.390   7.325  0.2024  0.4981 -1.9939
  111MOL   H31948939   3.244   4.633   7.376 -0.7609  2.3093  0.4204
  111MOL   H32048940   3.354   4.506   7.188 -0.9351 -0.8062 -1.4374
  111MOL   H32148941   3.249   4.583   7.079 -0.2839 -0.8993  0.4056
  111MOL   H32248942   3.455   4.705   7.093  0.5312 -0.9555  0.4075
  111MOL   H32348943   3.430   4.724   7.267  0.6463 -0.6411  0.0204
  111MOL   H32448944   3.344   4.934   7.137  0.0469 -0.4810 -1.7599
  111MOL   H32548945   3.240   4.838   7.042  1.2396  0.1452 -0.7723
  111MOL   H32648946   3.213   4.890   7.340  0.3668  0.5393 -0.0515
  111MOL   H32748947   3.101   4.926   7.210 -0.1747 -0.9120 -0.7767
  111MOL   H32848948   3.031   4.721   7.162  0.0771  0.5523  0.2254
  111MOL   H32948949   3.018   4.736   7.329 -0.2557  3.3697 -0.7922
  111MOL   H33048950   2.971   4.405   7.476 -0.1215  0.3176 -0.5485
  111MOL   H33148951   2.994   4.570   7.471  0.4640  0.6922 -2.9439
  111MOL   C33248952   3.153   4.443   7.582  0.5531 -0.1470 -0.2267
  111MOL   C33348953   3.117   4.327   7.677  1.1839 -0.1378 -0.3437
  111MOL   C33448954   3.119   4.193   7.606 -0.4304  1.0669 -0.2247
  111MOL   C33548955   3.073   4.079   7.695  0.1831  0.5595  0.4666
  111MOL   C33648956   2.935   4.107   7.749  0.6803 -1.2524  1.0255
  111MOL   C33748957   2.939   4.230   0.063  0.0985  0.3140  0.5108
  111MOL   C33848958   2.982   4.349   7.760 -0.2080  0.8085  0.2654
  111MOL   C33948959   3.190   4.574   7.654 -0.1574  0.1349  0.0439
  111MOL   H34048960   3.244   4.407   7.534  0.3115 -0.5971 -0.3523
  111MOL   H34148961   3.195   4.323   7.753 -1.0416 -0.6963  1.9860
  111MOL   H34248962   3.062   4.198   7.513  2.3148  3.0412 -1.8825
  111MOL   H34348963   3.222   4.189   7.571 -0.2633  0.5562  0.3252
  111MOL   H34448964   3.064   3.999   7.621  1.9992 -0.4937  1.3347
  111MOL   H34548965   3.141   4.047   0.002  2.2904 -0.5657 -1.7003
  111MOL   H34648966   2.868   4.114   7.663  1.0675 -1.7311  0.6793
  111MOL   H34748967   2.910   4.026   0.044 -0.0362 -0.8269  1.2654
  111MOL   H34848968   2.998   4.213   0.154 -0.0183 -0.5969  0.4271
  111MOL   H34948969   2.836   4.250   0.092 -0.4539 -0.5332 -0.8400
  111MOL   H35048970   2.997   4.435   0.053  0.3242  1.5644 -0.8360
  111MOL   H35148971   2.900   4.365   7.691 -1.4394 -2.4358  0.8894
  111MOL   H35248972   3.101   4.592   7.715  1.0071 -0.4122  1.9347
  111MOL   H35348973   3.185   4.658   7.585 -0.2856 -1.5162 -1.9978
  111MOL   C35448974   3.319   4.584   7.745  0.3811  0.4335  0.0551
  111MOL   C35548975   3.325   4.708   0.069 -0.0533  0.0801  0.6975
  111MOL   C35648976   3.230   4.675   0.181 -0.0437 -0.0293  1.2495
  111MOL   C35748977   3.234   4.779   0.302 -0.3809  0.1646 -0.0989
  111MOL   C35848978   3.204   4.919   0.254 -0.0610 -0.0837 -0.4974
  111MOL   C35948979   3.285   4.947   0.123  0.1997 -0.8800  0.1276
  111MOL   C36048980   3.284   4.840   0.004 -0.7417 -0.4721 -0.2704
  111MOL   C36148981   3.443   4.594   7.653 -0.4975 -0.7261  1.2160
  111MOL   H36248982   3.319   4.495   0.036 -1.0025 -0.3154 -0.9696
  111MOL   H36348983   3.426   4.712   0.111  0.8786 -1.3434 -1.3452
  111MOL   H36448984   3.274   4.583   0.219 -0.7491 -1.6480 -1.7061
  111MOL   H36548985   3.129   4.654   0.146 -0.2533  0.5991  1.4680
  111MOL   H36648986   3.161   4.739   0.373 -1.4024  0.9474 -0.6977
  111MOL   H36748987   3.330   4.765   0.352 -1.6504 -0.0075  2.3880
  111MOL   H36848988   3.097   4.934   0.247 -0.2803 -0.0161  2.2831
  111MOL   H36948989   3.234   4.983   0.337  2.2074 -1.8090  0.0850
  111MOL   H37048990   3.242   5.036   0.079 -0.7824 -1.7972 -0.8089
  111MOL   H37148991   3.384   4.982   0.153  0.6104  1.0442 -3.1790
  111MOL   H37248992   3.341   4.865   7.687 -0.0543 -0.8034  0.0727
  111MOL   H37348993   3.182   4.825   7.741 -0.2255  0.9640 -2.4935
  111MOL   H37448994   3.507   4.679   7.678  0.7486 -0.8938 -1.2962
  111MOL   H37548995   3.409   4.607   7.550 -0.4393 -0.9748  1.1671
  111MOL   C37648996   3.532   4.467   7.642 -0.3551 -0.1152 -0.6953
  111MOL   C37748997   3.643   4.485   7.537  0.2384  0.5292  0.2733
  111MOL   C37848998   3.714   4.353   7.501  0.1212  0.5016  0.0366
  111MOL   C37948999   3.820   4.376   7.391 -0.2203  0.4187 -0.0239
  111MOL   C38049000   3.924   4.476   7.436 -0.4628 -0.3871  0.2750
  111MOL   C38149001   3.856   4.614   7.464 -0.9769 -1.0711 -0.0452
  111MOL   C38249002   3.744   4.604   7.567 -0.0374  0.3487 -0.6427
  111MOL   C38349003   3.598   4.417   0.009 -0.8411  0.4728  0.1575
  111MOL   H38449004   3.473   4.385   7.601 -1.4988  1.0827 -1.5204
  111MOL   H38549005   3.593   4.514   7.444  0.7340  0.1777 -0.1032
  111MOL   H38649006   3.749   4.302   7.590  1.3516  1.0573 -0.1193
  111MOL   H38749007   3.645   4.276   7.467  1.0800  0.8696 -2.8939
  111MOL   H38849008   3.768   4.411   7.302  0.9408  1.7148 -0.2177
  111MOL   H38949009   3.863   4.281   7.360 -0.9941  0.2276 -0.5312
  111MOL   H39049010   3.982   4.442   7.521  1.0919 -0.5993 -0.8464
  111MOL   H39149011   3.992   4.495   7.353 -0.3805 -0.0263  0.4267
  111MOL   H39249012   3.941   4.673   7.497 -2.2227 -0.2279  1.7096
  111MOL   H39349013   3.827   4.677   7.380 -0.4800  1.4168  1.6270
  111MOL   H39449014   3.787   4.592   7.667  0.2808 -1.6934 -0.9875
  111MOL   H39549015   3.691   4.698   7.575  0.1155  0.3431  0.7010
  111MOL   H39649016   3.611   4.496   0.083 -0.3760 -0.5220  1.1495
  111MOL   H39749017   3.703   4.393   7.762 -1.0763 -0.7153  0.2954
  111MOL   C39849018   3.537   4.291   0.072  0.1536  0.5016  0.0645
  111MOL   C39949019   3.582   4.159   7.770  0.8969  0.1191  0.1340
  111MOL   C40049020   3.725   4.112   0.037  0.0218  0.8683  1.0515
  111MOL   C40149021   3.776   3.995   7.722  0.0097 -0.2619  0.7575
  111MOL   C40249022   3.678   3.879   7.730  0.4528 -0.3065  0.8114
  111MOL   C40349023   3.533   3.932   7.689 -0.0697 -0.0746 -0.1329
  111MOL   C40449024   3.474   4.045   0.001  1.2864 -0.3166  0.7657
  111MOL   C40549025   3.558   4.282   0.228  0.7169 -0.0115 -0.3994
  111MOL   H40649026   3.429   4.295   0.059  0.5125  0.8980 -3.1730
  111MOL   H40749027   3.586   4.202   7.670 -2.1424 -0.3986 -0.2344
  111MOL   H40849028   3.730   4.094   0.145  0.8538  1.1586  1.0662
  111MOL   H40949029   3.790   4.196   0.014 -2.4429  2.4559 -0.3620
  111MOL   H41049030   3.877   3.976   7.756  0.1129  0.1616  0.6940
  111MOL   H41149031   3.772   4.023   7.617  1.8226  0.3445  0.8449
  111MOL   H41249032   3.670   3.833   0.056 -0.2506  1.0560  1.3917
  111MOL   H41349033   3.709   3.805   7.656 -1.1071  0.1945 -0.3625
  111MOL   H41449034   3.530   3.974   7.588  1.3580  1.1898  0.3489
  111MOL   H41549035   3.475   3.841   7.671 -1.1065  0.1553  1.9584
  111MOL   H41649036   3.382   4.086   7.733  2.2322 -0.2311 -1.3944
  111MOL   H41749037   3.466   4.010   0.104  1.8613  0.0624  0.9399
  111MOL   H41849038   3.536   4.183   0.267 -1.8871 -0.3195 -2.5203
  111MOL   H41949039   3.667   4.291   0.237  0.7215 -0.3731 -0.1116
  111MOL   C42049040   3.503   4.389   0.322 -0.0002  0.2366 -0.1855
  111MOL   C42149041   3.580   4.383   0.460 -1.0050 -1.0560  0.4022
  111MOL   C42249042   3.533   4.491   0.562 -0.1939 -0.4150  0.3432
  111MOL   C42349043   3.576   4.633   0.527 -0.7876 -0.5446 -0.0081
  111MOL   C42449044   3.728   4.643   0.516 -0.7939  0.0414 -0.0925
  111MOL   C42549045   3.785   4.544   0.411  0.2766  0.0868  0.1537
  111MOL   C42649046   3.738   4.400   0.451 -0.0483 -0.1531 -0.0131
  111MOL   C42749047   3.347   4.367   0.332  0.4547 -0.2431  0.1160
  111MOL   H42849048   3.522   4.487   0.277  1.0152  0.0432 -0.1787
  111MOL   H42949049   3.580   4.285   0.507  0.0983  0.1001  2.9587
  111MOL   H43049050   3.426   4.476   0.577  0.4645 -3.5740  2.5312
  111MOL   H43149051   3.582   4.477   0.658  0.5864  0.6596  0.1093
  111MOL   H43249052   3.529   4.660   0.432  0.3556 -3.6858 -1.5150
  111MOL   H43349053   3.553   4.713   0.598  1.2558  0.5656 -0.5712
  111MOL   H43449054   3.780   4.637   0.611  0.5230  1.8742 -0.6658
  111MOL   H43549055   3.743   4.745   0.479 -0.9389  0.7493  1.7569
  111MOL   H43649056   3.891   4.539   0.433  0.3631 -0.3583 -0.3569
  111MOL   H43749057   3.754   4.565   0.309  1.0001  2.0367  0.3182
  111MOL   H43849058   3.788   4.320   0.396  1.0716  0.7009 -0.2501
  111MOL   H43949059   3.776   4.383   0.551  0.0053 -0.7769 -0.1362
  111MOL   H44049060   3.296   4.363   0.236 -1.1946  0.0069  0.9680
  111MOL   H44149061   3.329   4.273   0.383  1.2670  0.1799  1.1935
  111MOL   H44249062   3.294   4.443   0.389  3.2275  0.5862  1.6809
  112MOL     C149063   3.928   7.706   3.182 -0.6101  0.5322 -0.1201
  112MOL     C249064   3.889   7.733   3.329  0.6158 -0.8983  0.1654
  112MOL     C349065   3.752   7.678   3.369 -0.0433  0.4732 -0.5555
  112MOL     C449066   3.706   7.718   3.513  0.6701 -0.5223  0.4648
  112MOL     C549067   3.716   0.097   3.538  1.1614 -0.8260  0.4218
  112MOL     C649068   3.851   0.154   3.503 -0.1975  0.0688  0.2150
  112MOL     C749069   3.901   0.115   3.362  0.7866 -0.6482  0.0891
  112MOL     C849070   3.933   7.561   3.141 -0.3349 -0.1505 -0.4221
  112MOL     H949071   3.872   7.769   3.114 -1.3144 -0.1456 -0.1756
  112MOL    H1049072   3.963   7.681   3.389  1.2013  0.8869  1.0358
  112MOL    H1149073   3.671   7.718   3.308 -0.5775 -2.0518 -1.5985
  112MOL    H1249074   3.759   7.569   3.369 -0.1924  0.4520 -2.4096
  112MOL    H1349075   3.773   7.671   3.585  1.8146 -0.0499 -0.2884
  112MOL    H1449076   3.603   7.692   3.536 -0.4880  2.1202 -1.5235
  112MOL    H1549077   3.698   0.129   3.641 -0.6149  0.3335 -0.2318
  112MOL    H1649078   3.649   0.155   3.476  3.6679  0.5728 -1.0482
  112MOL    H1749079   3.853   0.262   3.514 -0.0157  0.1150 -0.2590
  112MOL    H1849080   3.924   0.113   3.573 -0.3638 -0.4907  0.0714
  112MOL    H1949081   4.003   0.152   3.349 -0.0961  1.1462 -1.8604
  112MOL    H2049082   3.850   0.174   3.287 -1.4683  0.0489  2.1223
  112MOL    H2149083   3.841   7.516   3.177  0.3183  0.1878  1.7177
  112MOL    H2249084   4.013   7.514   3.197 -0.6875  0.6006  0.7181
  112MOL    H2349085   4.027   7.750   3.169 -1.0466  2.6386  3.1211
  112MOL    C2449086   3.953   7.536   2.989 -0.1599 -0.3532  0.1741
  112MOL    C2549087   4.093   7.511   2.942  0.0420  0.4577 -0.5528
  112MOL    C2649088   4.161   7.380   2.980 -0.3615 -0.4176 -0.1842
  112MOL    C2749089   4.290   7.365   2.911  0.4385  0.3336 -0.2457
  112MOL    C2849090   4.391   7.473   2.955 -0.0068  0.5109  0.0481
  112MOL    C2949091   4.333   7.608   2.931 -0.6400  0.2533  0.1836
  112MOL    C3049092   4.187   7.620   2.985  0.2293  0.1792  0.6937
  112MOL    C3149093   3.853   7.438   2.932  0.3764 -0.3661 -0.1796
  112MOL    H3249094   3.929   7.632   2.942 -2.2268 -0.2363  1.4111
  112MOL    H3349095   4.085   7.518   2.833 -0.5360 -0.4432 -0.5738
  112MOL    H3449096   4.109   7.287   2.957  1.4000 -1.5464  0.2752
  112MOL    H3549097   4.182   7.383   3.087 -0.0927 -0.5485 -0.2318
  112MOL    H3649098   4.325   7.263   2.924 -0.4632 -0.0458 -0.7487
  112MOL    H3749099   4.266   7.372   2.805  0.2369 -1.8714 -0.3549
  112MOL    H3849100   4.482   7.458   2.896 -0.1544 -0.6554  0.0999
  112MOL    H3949101   4.418   7.457   3.059  0.2305  0.3193 -0.0419
  112MOL    H4049102   4.401   7.685   2.968  0.2529 -0.8821  0.9449
  112MOL    H4149103   4.331   7.628   2.824 -0.1126  0.8517  0.2800
  112MOL    H4249104   4.200   7.626   3.093 -1.3537  0.5709  0.8775
  112MOL    H4349105   4.146   7.717   2.956  0.6326  0.4559  1.0306
  112MOL    H4449106   3.866   7.353   2.999  1.2496 -0.6610 -0.7005
  112MOL    H4549107   3.894   7.404   2.836  2.0544 -0.1472  0.4282
  112MOL    C4649108   3.703   7.485   2.926 -0.2347 -0.8930  0.3411
  112MOL    C4749109   3.598   7.377   2.951 -0.5877  0.3060 -0.2884
  112MOL    C4849110   3.604   7.319   3.096  0.1117 -0.2983 -0.2505
  112MOL    C4949111   3.498   7.216   3.124 -0.0863 -0.1225 -0.2699
  112MOL    C5049112   3.494   7.102   3.020  0.4726  0.2355  0.6228
  112MOL    C5149113   3.496   7.153   2.877  0.2392  0.0669 -0.0130
  112MOL    C5249114   3.610   7.257   2.854 -0.2257 -0.9056  0.0792
  112MOL    C5349115   3.679   7.566   2.792 -0.1880  0.2608 -0.2724
  112MOL    H5449116   3.691   7.554   3.009 -1.7839 -0.3932 -0.2844
  112MOL    H5549117   3.499   7.422   2.952 -0.8338 -0.2370  0.3940
  112MOL    H5649118   3.694   7.260   3.116 -0.6030 -0.6947  1.9335
  112MOL    H5749119   3.604   7.393   3.176 -2.2309 -1.5515  0.9200
  112MOL    H5849120   3.406   7.275   3.127  0.1693  0.2884 -0.4650
  112MOL    H5949121   3.520   7.167   3.219  1.5919  0.2660 -0.4558
  112MOL    H6049122   3.571   7.026   3.023 -1.4402 -1.7964 -0.0639
  112MOL    H6149123   3.407   7.040   3.040  0.6750  0.3138  1.7347
  112MOL    H6249124   3.401   7.202   2.854  0.9354  2.0721  1.2871
  112MOL    H6349125   3.500   7.075   2.801 -0.8431  0.9849 -1.0306
  112MOL    H6449126   3.708   7.212   2.872 -0.0072 -0.2413  0.5580
  112MOL    H6549127   3.620   7.279   2.748  1.0242 -1.8402 -0.0123
  112MOL    H6649128   3.699   7.503   2.705  0.7797  0.4962 -0.2278
  112MOL    H6749129   3.765   7.633   2.789 -1.2408  1.6532  0.0436
  112MOL    C6849130   3.546   7.647   2.783 -0.3630 -0.2818 -0.2327
  112MOL    C6949131   3.532   0.000   2.881 -0.1415 -0.4793  0.0964
  112MOL    C7049132   3.466   7.736   3.013 -0.2552 -0.0610  0.0093
  112MOL    C7149133   3.424   0.083   3.094  0.2099 -0.6435  0.0681
  112MOL    C7249134   3.561   0.164   3.125  0.4422 -0.1669 -0.7876
  112MOL    C7349135   3.619   0.205   2.987  0.5172 -0.0990 -0.7038
  112MOL    C7449136   3.655   0.082   2.903 -0.3452  0.0538  0.7697
  112MOL    C7549137   3.521   7.685   2.635  0.6920 -0.0706  0.7595
  112MOL    H7649138   3.466   7.588   2.827 -0.5334  0.5432  0.5815
  112MOL    H7749139   3.466   0.073   2.833  0.0119  2.2286  3.7934
  112MOL    H7849140   3.529   7.669   3.071 -1.3328 -1.0292  0.0799
  112MOL    H7949141   3.370   7.687   2.996  0.3360 -1.7369  1.3518
  112MOL    H8049142   3.359   0.150   3.038 -0.5854 -2.1680 -0.8628
  112MOL    H8149143   3.379   0.053   3.189  2.1302 -0.3691  1.0891
  112MOL    H8249144   3.634   0.111   3.186  2.1881  1.4985 -1.4039
  112MOL    H8349145   3.532   0.257   3.175 -2.1379 -0.9093 -0.8084
  112MOL    H8449146   3.705   0.270   3.005 -0.2857  0.9882 -0.7996
  112MOL    H8549147   3.546   0.276   2.950  1.3379  1.7970  1.1948
  112MOL    H8649148   3.718   0.021   2.967 -0.2318 -1.4476 -0.7400
  112MOL    H8749149   3.706   0.117   2.812 -0.1723 -5.1851 -1.2874
  112MOL    H8849150   3.599   7.755   2.604  0.7004 -0.2448  0.3876
  112MOL    H8949151   3.549   7.597   2.578  0.8704  0.8337 -0.5537
  112MOL    C9049152   3.374   7.724   2.606 -0.3509  0.3145  0.6305
  112MOL    C9149153   3.367   0.027   2.466  0.0366  0.0868 -0.2186
  112MOL    C9249154   3.456   0.156   2.471  0.4720  0.6204 -0.2154
  112MOL    C9349155   3.432   0.235   2.343 -0.0203  0.0899 -0.0092
  112MOL    C9449156   3.447   0.157   2.206 -0.5197  0.6338  0.5613
  112MOL    C9549157   3.365   0.024   2.219  0.4246  0.5112 -0.0591
  112MOL    C9649158   3.399   7.715   2.345  0.9059  0.0745  0.0986
  112MOL    C9749159   3.278   7.604   2.627 -0.0590 -0.2449 -0.4295
  112MOL    H9849160   3.338   0.030   2.673  2.1855  1.8052  0.3611
  112MOL    H9949161   3.262   0.058   2.466  0.2833  0.9278 -0.6905
  112MOL   H10049162   3.560   0.125   2.466 -0.0864 -1.5069  0.7105
  112MOL   H10149163   3.451   0.221   2.558  2.3549  1.2079 -0.5285
  112MOL   H10249164   3.500   0.319   2.332  0.5679 -0.3500  0.2514
  112MOL   H10349165   3.335   0.282   2.356  0.7527  1.0349  2.7970
  112MOL   H10449166   3.553   0.135   2.191 -0.2410  2.7536 -0.8272
  112MOL   H10549167   3.427   0.228   2.126  1.2416 -0.2661 -0.7054
  112MOL   H10649168   3.259   0.045   2.225  0.6880  1.8328  0.1927
  112MOL   H10749169   3.387   7.738   2.129  0.0247 -1.2444  0.9730
  112MOL   H10849170   3.345   7.621   2.338 -0.5951  0.8333  1.0301
  112MOL   H10949171   3.503   7.684   2.344  1.0682  0.5270 -2.6691
  112MOL   H11049172   3.317   7.516   2.576  0.6103 -1.1947  1.6581
  112MOL   H11149173   3.282   7.570   2.731  1.0249  1.6805  0.1807
  112MOL   C11249174   3.130   7.624   2.587  0.1114  0.1447 -1.0170
  112MOL   C11349175   3.049   7.693   2.700 -0.4819  0.0476 -0.4704
  112MOL   C11449176   3.018   7.604   2.820 -0.3239  0.3190 -1.0876
  112MOL   C11549177   2.944   7.675   2.939 -0.1781 -0.0657 -0.1446
  112MOL   C11649178   2.819   7.762   2.902  0.2896 -0.2740 -0.4922
  112MOL   C11749179   2.852   0.068   2.772  0.8591  0.2575 -0.4167
  112MOL   C11849180   2.916   7.757   2.658 -0.3619  0.3743 -0.3035
  112MOL   C11949181   3.059   7.486   2.546  0.1361  0.8844 -0.1633
  112MOL   H12049182   3.119   7.692   2.503 -1.6088 -1.2676 -1.9791
  112MOL   H12149183   3.120   7.767   2.735  1.0992 -1.0010 -1.3817
  112MOL   H12249184   3.111   7.568   2.863 -0.7325  2.0781  1.3834
  112MOL   H12349185   2.959   7.516   2.795 -0.5105 -0.5918  2.3289
  112MOL   H12449186   2.916   7.603   3.015 -0.0608  1.2431  1.1743
  112MOL   H12549187   3.008   7.746   2.992  1.5446 -2.1540  0.6199
  112MOL   H12649188   2.737   7.704   2.859 -0.2879  1.2608 -1.4806
  112MOL   H12749189   2.784   0.040   2.992 -2.1840 -1.7434 -0.5893
  112MOL   H12849190   2.757   0.108   2.737  1.7254  1.0877 -1.8393
  112MOL   H12949191   2.913   0.153   2.801  0.6848 -0.5614  2.5383
  112MOL   H13049192   2.938   0.055   2.578  0.0672 -0.2367 -0.7296
  112MOL   H13149193   2.850   7.676   2.626  1.8057 -2.2635  1.7304
  112MOL   H13249194   2.951   7.486   2.538  0.0593  1.1574  0.8550
  112MOL   H13349195   3.085   7.423   2.630  0.2616  1.8697  0.5518
  112MOL   C13449196   3.118   7.426   2.422  0.3475 -0.3654  0.5115
  112MOL   C13549197   3.030   7.439   2.284  0.1884 -0.0153  0.4407
  112MOL   C13649198   3.017   7.589   2.248 -0.3363 -0.3255  0.1638
  112MOL   C13749199   2.941   7.607   2.118  0.3055 -0.1837 -0.3864
  112MOL   C13849200   2.799   7.555   2.124 -0.0856  0.0870 -0.1792
  112MOL   C13949201   2.834   7.404   2.139 -0.0605  0.2964  0.6672
  112MOL   C14049202   2.891   7.371   2.278  0.1777  0.4784 -0.0777
  112MOL   C14149203   3.153   7.276   2.445 -0.1699  0.5702 -0.1786
  112MOL   H14249204   3.213   7.477   2.405  0.0713  0.8124  2.4164
  112MOL   H14349205   3.091   7.398   2.204  2.2228  0.3911  1.7258
  112MOL   H14449206   2.969   7.645   2.328  0.0816  1.2003 -0.6350
  112MOL   H14549207   3.121   7.618   2.234 -0.6430  0.9037  0.3665
  112MOL   H14649208   2.999   7.556   2.041  0.2107 -1.0471  0.1053
  112MOL   H14749209   2.945   7.710   2.083  0.4010  0.1212  0.5021
  112MOL   H14849210   2.732   7.586   2.205  0.9063  2.9589 -0.4199
  112MOL   H14949211   2.752   7.568   2.026 -1.5821  1.9684  0.7584
  112MOL   H15049212   2.901   7.367   2.061 -0.7338  3.8941 -1.7629
  112MOL   H15149213   2.737   7.355   2.127 -0.0833  0.8168 -1.5395
  112MOL   H15249214   2.827   7.402   2.360 -0.6662  0.2113 -0.6316
  112MOL   H15349215   2.896   7.263   2.287  0.3495  0.5685  0.9805
  112MOL   H15449216   3.058   7.225   2.462 -0.0213  0.9714  1.9850
  112MOL   H15549217   3.203   7.259   2.540  0.6443 -2.6534 -1.1126
  112MOL   C15649218   3.244   7.216   2.340  0.0134 -0.3544  0.5004
  112MOL   C15749219   3.216   7.058   2.324  0.1766 -0.6039  0.0828
  112MOL   C15849220   3.228   6.968   2.448 -0.4964 -0.0633 -0.0226
  112MOL   C15949221   3.191   6.827   2.408  0.1925 -0.0869 -0.6398
  112MOL   C16049222   3.061   6.806   2.328 -0.3772 -0.3034  0.5940
  112MOL   C16149223   3.063   6.894   2.208  0.7455 -0.2204 -0.4346
  112MOL   C16249224   3.073   7.041   2.248  0.1003  0.3650 -0.3659
  112MOL   C16349225   3.392   7.244   2.386  0.0682 -0.1202  0.0774
  112MOL   H16449226   3.235   7.260   2.241  1.6329  0.6764  0.7895
  112MOL   H16549227   3.294   7.017   2.260 -0.1429 -0.2159 -0.5575
  112MOL   H16649228   3.330   6.974   2.486 -0.6395 -1.4074  0.6394
  112MOL   H16749229   3.158   7.008   2.521 -1.8430 -1.0232 -0.7703
  112MOL   H16849230   3.271   6.776   2.355  2.4632  1.6725  1.0178
  112MOL   H16949231   3.188   6.767   2.500  0.1432  2.4806  1.0869
  112MOL   H17049232   2.973   6.827   2.390 -0.7627 -1.3666  0.4172
  112MOL   H17149233   3.036   6.702   2.308  1.4597 -0.7217  0.3873
  112MOL   H17249234   2.994   6.871   2.126  3.7442  0.4341 -3.2405
  112MOL   H17349235   3.154   6.875   2.152  0.1146  0.3542 -1.6877
  112MOL   H17449236   3.068   7.109   2.164 -2.4617  0.0194 -0.5218
  112MOL   H17549237   2.988   7.059   2.313 -0.7199 -0.2488 -1.2612
  112MOL   H17649238   3.434   7.185   2.468 -0.6396 -0.5428  0.1387
  112MOL   H17749239   3.406   7.351   2.404 -1.1320  0.6004 -2.9605
  112MOL   C17849240   3.501   7.201   2.279  0.5613  0.0497  0.1044
  112MOL   C17949241   3.487   7.260   2.138  0.4367 -0.0179 -0.2982
  112MOL   C18049242   3.579   7.188   2.023 -0.1952 -0.2361  0.3518
  112MOL   C18149243   3.535   7.245   1.891 -0.8298 -0.5425 -0.0850
  112MOL   C18249244   3.541   7.396   1.883  0.0896  0.6657  0.6645
  112MOL   C18349245   3.452   7.466   1.982  0.3090  0.2830 -0.2469
  112MOL   C18449246   3.474   7.417   2.128 -0.2911  0.0264 -0.0949
  112MOL   C18549247   3.642   7.232   2.344 -0.0395  0.2742  0.9301
  112MOL   H18649248   3.493   7.092   2.273 -0.4817  0.1478 -0.3869
  112MOL   H18749249   3.388   7.227   2.108 -0.8039  0.4376  3.1286
  112MOL   H18849250   3.683   7.193   2.055  0.2952 -0.1014 -1.2630
  112MOL   H18949251   3.552   7.082   2.026  0.5436 -0.3902  2.7486
  112MOL   H19049252   3.438   7.202   1.865 -0.9512 -1.0726  1.2041
  112MOL   H19149253   3.607   7.211   1.816 -0.5251 -1.9948  0.8405
  112MOL   H19249254   3.642   7.433   1.900  0.9927 -0.9375 -1.0096
  112MOL   H19349255   3.513   7.428   1.782 -0.2026 -1.1410  0.1620
  112MOL   H19449256   3.350   7.464   1.944  0.8929  2.4844 -2.0478
  112MOL   H19549257   3.473   7.573   1.981 -0.0856  0.3730  0.3024
  112MOL   H19649258   3.563   7.464   2.170  0.6496 -0.8205 -1.0916
  112MOL   H19749259   3.391   7.458   2.183  0.1961 -0.8421  1.3116
  112MOL   H19849260   3.690   7.300   2.274 -1.6776  0.0048 -0.4963
  112MOL   H19949261   3.634   7.303   2.426 -0.7164  0.2927  0.8462
  112MOL   C20049262   3.732   7.105   2.375 -0.1070 -0.5253 -0.7269
  112MOL   C20149263   3.879   7.144   2.399 -0.0295 -0.0382  0.0881
  112MOL   C20249264   3.945   7.188   2.264 -0.3105 -0.1412  0.2988
  112MOL   C20349265   4.087   7.226   2.275 -0.6198  0.2303 -0.4433
  112MOL   C20449266   4.117   7.334   2.384  0.3965 -0.6467  0.4827
  112MOL   C20549267   4.070   7.271   2.522 -0.6449 -0.1925  0.2924
  112MOL   C20649268   3.919   7.245   2.509  0.4732  0.2404 -0.4220
  112MOL   C20749269   3.690   7.007   2.494  0.3865  0.5669 -0.0569
  112MOL   H20849270   3.721   7.050   2.281  1.3871 -0.6747 -0.8253
  112MOL   H20949271   3.929   7.055   2.436  2.7736  1.9033  1.0813
  112MOL   H21049272   3.895   7.270   2.213 -0.5295 -1.8135 -2.3049
  112MOL   H21149273   3.931   7.115   2.184 -0.2495 -0.7720  0.8494
  112MOL   H21249274   4.146   7.142   2.310 -0.6569  0.7993  1.0084
  112MOL   H21349275   4.124   7.255   2.176 -0.7362 -0.6633 -0.7551
  112MOL   H21449276   4.222   7.359   2.380  0.5072 -1.1973 -0.2473
  112MOL   H21549277   4.061   7.426   2.367 -2.5582 -2.0269  2.1694
  112MOL   H21649278   4.134   7.185   2.543  0.6913  1.2155  2.0635
  112MOL   H21749279   4.083   7.350   2.595 -1.5766  0.1557  0.0910
  112MOL   H21849280   3.882   7.214   2.607 -0.8291 -0.0145 -0.9912
  112MOL   H21949281   3.874   7.341   2.482  1.4366  0.7610 -0.1893
  112MOL   H22049282   3.735   7.056   2.580 -0.5600 -0.0778  0.8226
  112MOL   H22149283   3.586   7.021   2.524  0.1302  1.2539 -1.2299
  112MOL   C22249284   3.727   6.857   2.465 -0.2182  0.1631 -0.5150
  112MOL   C22349285   3.781   6.778   2.585  0.5689 -0.0405  0.2899
  112MOL   C22449286   3.695   6.787   2.709 -0.5453 -0.2968 -0.7833
  112MOL   C22549287   3.749   6.705   2.823  0.1295  0.1652 -0.3688
  112MOL   C22649288   3.896   6.744   2.851  0.6351 -0.3909 -0.2304
  112MOL   C22749289   3.988   6.730   2.727  0.2744 -0.0834  0.9703
  112MOL   C22849290   3.927   6.806   2.608  0.6451 -0.2302 -0.1507
  112MOL   C22949291   3.608   6.784   2.396  0.1512 -0.5150 -0.9537
  112MOL   H23049292   3.813   6.853   2.399 -0.4029  2.9052 -0.9863
  112MOL   H23149293   3.781   6.673   2.555 -0.1421  0.0332  0.0333
  112MOL   H23249294   3.691   6.891   2.742 -0.6828 -0.6016  0.1541
  112MOL   H23349295   3.597   6.755   2.675 -0.8864  1.2869 -1.3351
  112MOL   H23449296   3.749   6.597   2.806 -0.6047  0.3520 -1.6144
  112MOL   H23549297   3.689   6.718   2.913  0.6535 -0.6449  0.1169
  112MOL   H23649298   3.901   6.847   2.886  2.3612 -1.0431  1.5687
  112MOL   H23749299   3.942   6.686   2.931 -0.5392 -0.4519  0.4033
  112MOL   H23849300   3.992   6.626   2.694 -2.8395  0.6900 -2.1130
  112MOL   H23949301   4.093   6.755   2.741  0.5061  0.5333 -1.5969
  112MOL   H24049302   3.944   6.912   2.627 -1.7015  0.6683 -2.7259
  112MOL   H24149303   3.979   6.773   2.519  1.5719 -2.8380  1.2983
  112MOL   H24249304   3.570   6.860   2.327  0.9564 -1.2430 -2.2044
  112MOL   H24349305   3.525   6.772   2.466  1.2368  0.3818  0.5351
  112MOL   C24449306   3.633   6.651   2.313  0.2446 -0.0975 -0.6032
  112MOL   C24549307   3.719   6.663   2.187 -0.3384 -0.3043 -0.3213
  112MOL   C24649308   3.871   6.655   2.204 -0.5899  0.2466  0.4035
  112MOL   C24749309   3.948   6.657   2.072 -0.1711 -0.8362  0.3127
  112MOL   C24849310   3.902   6.770   1.973 -0.4784  0.0301 -0.9289
  112MOL   C24949311   3.751   6.759   1.954  0.0679  0.1640 -0.3787
  112MOL   C25049312   3.674   6.773   2.087 -0.2919 -0.0879  0.6591
  112MOL   C25149313   3.494   6.580   2.282 -0.0023  0.3797  0.3802
  112MOL   H25249314   3.686   6.576   2.371  0.8699  0.8531  0.0630
  112MOL   H25349315   3.691   6.572   2.134  0.5263 -1.0167  0.4282
  112MOL   H25449316   3.896   6.563   2.258  1.2373 -0.8253 -2.1442
  112MOL   H25549317   3.913   6.736   2.262  0.1309 -0.4040  0.7958
  112MOL   H25649318   4.056   6.656   2.081  0.1802 -1.3247 -3.3586
  112MOL   H25749319   3.951   6.555   2.032  0.2475 -1.2999  1.4968
  112MOL   H25849320   3.924   6.860   2.029  1.9384  0.3431 -2.3185
  112MOL   H25949321   3.957   6.758   1.880  0.2668 -0.4699 -0.4353
  112MOL   H26049322   3.733   6.665   1.902  0.1336 -0.0768  0.0397
  112MOL   H26149323   3.710   6.832   1.883 -1.5319  0.7020  1.0623
  112MOL   H26249324   3.704   6.867   2.133 -1.6863  0.4316  0.5145
  112MOL   H26349325   3.569   6.766   2.058 -0.0622 -0.4468 -0.1213
  112MOL   H26449326   3.513   6.526   2.189 -1.3101  1.5629 -0.5794
  112MOL   H26549327   3.417   6.646   2.244 -0.1351  0.7838  1.3333
  112MOL   C26649328   3.428   6.501   2.403  0.3514 -0.5364  0.4290
  112MOL   C26749329   3.302   6.420   2.367 -0.3977  0.0067  0.4224
  112MOL   C26849330   3.229   6.469   2.235 -0.0868 -0.1005 -0.2798
  112MOL   C26949331   3.111   6.373   2.198 -0.0548  0.6161  0.3729
  112MOL   C27049332   3.008   6.379   2.320 -0.1245 -0.7556  0.2109
  112MOL   C27149333   3.081   6.340   2.452  0.0325 -0.1274  0.5629
  112MOL   C27249334   3.202   6.431   2.487 -0.3965 -0.0091 -1.0706
  112MOL   C27349335   3.529   6.418   2.492  0.6257 -1.0920 -0.7783
  112MOL   H27449336   3.397   6.583   2.467  0.3770  0.4395 -0.7882
  112MOL   H27549337   3.319   6.316   2.339 -1.9279  0.1442 -1.1235
  112MOL   H27649338   3.197   6.572   2.253 -1.6836 -0.6670  0.1266
  112MOL   H27749339   3.297   6.474   2.149  1.2452  0.2069  0.7772
  112MOL   H27849340   3.154   6.273   2.199 -1.7131 -0.1158  0.5434
  112MOL   H27949341   3.071   6.397   2.100  1.6330 -0.2410 -0.5520
  112MOL   H28049342   2.960   6.476   2.330  0.4595 -0.5090  0.7135
  112MOL   H28149343   2.924   6.311   2.306  0.9204 -1.7450 -1.4688
  112MOL   H28249344   3.111   6.236   2.443 -0.0311  0.0329 -1.6366
  112MOL   H28349345   3.008   6.338   2.533 -1.0410 -1.4163 -0.4199
  112MOL   H28449346   3.239   6.390   2.581 -1.2985 -1.4964 -1.3527
  112MOL   H28549347   3.172   6.534   2.507 -0.1165  0.2470 -1.9412
  112MOL   H28649348   3.461   6.391   2.573  1.1100  0.3324  0.1161
  112MOL   H28749349   3.600   6.480   2.546 -0.6821 -0.7754  0.5990
  112MOL   C28849350   3.591   6.286   2.435 -0.0422  0.7663  0.8159
  112MOL   C28949351   3.657   6.192   2.541  0.4314  0.5651 -0.8218
  112MOL   C29049352   3.778   6.247   2.616  0.1523  0.0374  0.4470
  112MOL   C29149353   3.841   6.143   2.701 -0.9959 -0.5632 -0.0137
  112MOL   C29249354   3.751   6.078   2.799  0.1753  0.0386 -0.4532
  112MOL   C29349355   3.630   6.020   2.728 -0.9785  0.7782 -0.0048
  112MOL   C29449356   3.559   6.123   2.634 -0.3402  0.4267  0.1170
  112MOL   C29549357   3.678   6.309   2.305 -0.0258 -0.4564 -0.9033
  112MOL   H29649358   3.501   6.236   2.399  1.3844  0.5131 -2.5983
  112MOL   H29749359   3.696   6.100   2.498 -0.4315 -1.9285  3.4822
  112MOL   H29849360   3.861   6.290   2.561  1.0258 -1.2004  0.7682
  112MOL   H29949361   3.728   6.330   2.666 -2.0379  0.0995 -1.7116
  112MOL   H30049362   3.882   6.071   2.630  1.1649  1.1359 -0.5459
  112MOL   H30149363   3.923   6.178   2.765 -2.1873  1.1737  0.6016
  112MOL   H30249364   3.716   6.139   2.882 -2.1204  0.3642 -1.6107
  112MOL   H30349365   3.810   6.001   2.849  1.5576  1.4536  0.1256
  112MOL   H30449366   3.554   5.973   2.790 -0.0372  0.6689  1.0866
  112MOL   H30549367   3.661   5.940   2.662 -2.6936  0.4580 -0.4384
  112MOL   H30649368   3.514   6.206   2.689 -1.5624  0.9613 -1.6543
  112MOL   H30749369   3.480   6.075   2.576 -0.4637 -0.1813  0.7772
  112MOL   H30849370   3.633   6.372   2.228 -0.6959 -0.6459 -0.6747
  112MOL   H30949371   3.766   6.363   2.338 -1.0985  1.4713 -1.1353
  112MOL   C31049372   3.724   6.185   2.226  0.4685  0.4025 -0.5711
  112MOL   C31149373   3.615   6.128   2.123 -0.5137  0.1219  0.3153
  112MOL   C31249374   3.507   6.035   2.187  0.1857 -0.8015  0.2500
  112MOL   C31349375   3.408   5.987   2.077  0.4720 -0.1850  0.0578
  112MOL   C31449376   3.349   6.096   1.991  0.6935  0.0319  0.1631
  112MOL   C31549377   3.458   6.185   1.927  0.2825 -0.0727 -0.3355
  112MOL   C31649378   3.559   6.232   2.030  1.1603 -0.7975 -0.1235
  112MOL   C31749379   3.860   6.220   2.161  0.3095  0.1754 -0.3609
  112MOL   H31849380   3.745   6.104   2.295 -0.2490 -0.9254 -1.8732
  112MOL   H31949381   3.672   6.063   2.056  1.0160  0.7004  1.0333
  112MOL   H32049382   3.559   5.956   2.241  2.9854  1.9509  1.7541
  112MOL   H32149383   3.442   6.082   2.261  1.2675  1.7279 -0.3549
  112MOL   H32249384   3.329   5.929   2.125  0.3572 -0.7043 -0.7565
  112MOL   H32349385   3.454   5.915   2.010  2.7260  1.2484  0.0256
  112MOL   H32449386   3.289   6.065   1.905  1.7130  1.2052 -0.9940
  112MOL   H32549387   3.287   6.163   2.051 -1.8601  0.0508 -2.4176
  112MOL   H32649388   3.503   6.114   1.857  0.4620  0.6326 -0.9327
  112MOL   H32749389   3.422   6.270   1.870  1.1216 -1.3735 -2.8588
  112MOL   H32849390   3.505   6.314   2.077  0.3169 -1.1326 -0.5097
  112MOL   H32949391   3.642   6.282   1.980  1.1710 -3.2719 -2.6784
  112MOL   H33049392   3.925   6.270   2.232  1.2000  1.1077 -1.8111
  112MOL   H33149393   3.829   6.284   2.078  0.9503  1.0365  0.0539
  112MOL   C33249394   3.953   6.108   2.101  0.7428 -0.0811 -0.4186
  112MOL   C33349395   4.063   6.050   2.200 -0.2109 -0.2225  0.5986
  112MOL   C33449396   4.157   5.937   2.144 -0.1952 -0.0046 -0.0367
  112MOL   C33549397   4.269   5.887   2.248  0.4051  0.5679 -0.2024
  112MOL   C33649398   4.197   5.853   2.378  0.1120 -0.3331 -0.3002
  112MOL   C33749399   4.103   5.962   2.436  0.3052 -0.7127  0.2768
  112MOL   C33849400   3.998   6.012   2.336 -0.0255 -0.3389 -0.5199
  112MOL   C33949401   3.989   6.141   1.953 -0.1529 -0.1259 -0.2082
  112MOL   H34049402   3.888   6.023   2.083  1.2693 -0.5290 -0.2488
  112MOL   H34149403   4.141   6.119   2.231 -0.7150 -0.8247  3.3215
  112MOL   H34249404   4.102   5.856   2.095 -0.2353 -0.0988  0.1651
  112MOL   H34349405   4.218   5.984   2.067 -0.3943  1.9496  0.9770
  112MOL   H34449406   4.340   5.808   2.222  0.3237 -0.3350  2.1505
  112MOL   H34549407   4.338   5.970   2.260  0.8000 -0.1365  2.8601
  112MOL   H34649408   4.134   5.766   2.358 -0.5148 -1.2695  4.8451
  112MOL   H34749409   4.271   5.825   2.454  0.5741 -0.9069 -0.9512
  112MOL   H34849410   4.157   6.045   2.482 -0.2050 -0.6989  0.8615
  112MOL   H34949411   4.063   5.914   2.525 -0.2116 -0.2832  0.2790
  112MOL   H35049412   3.949   6.101   2.376  1.4605  0.6256 -0.8185
  112MOL   H35149413   3.913   5.948   2.313 -1.8297  0.7356  2.7619
  112MOL   H35249414   3.898   6.135   1.894 -0.7879  0.1992  0.7253
  112MOL   H35349415   4.061   6.067   1.919  1.1515  0.9380  0.1701
  112MOL   C35449416   4.071   6.267   1.917 -0.2472  0.5573  0.1648
  112MOL   C35549417   4.055   6.309   1.771  0.1740 -0.4884  0.2396
  112MOL   C35649418   3.924   6.383   1.733 -0.3067  0.9965 -0.4158
  112MOL   C35749419   3.935   6.433   1.591 -0.1583  0.7223  0.0114
  112MOL   C35849420   3.959   6.311   1.495  0.5568  0.5786  0.2549
  112MOL   C35949421   4.093   6.255   1.531 -0.0070 -0.4831 -0.1484
  112MOL   C36049422   4.099   6.196   1.673  0.3050  0.1557  0.1786
  112MOL   C36149423   4.218   6.257   1.963 -0.7774 -0.4703  0.4730
  112MOL   H36249424   4.030   6.352   1.971 -1.5197 -0.6448  1.1482
  112MOL   H36349425   4.136   6.379   1.749 -0.5061 -0.5100 -2.5221
  112MOL   H36449426   3.929   6.473   1.796  1.5837  0.6109  0.0102
  112MOL   H36549427   3.830   6.332   1.751 -0.0864  0.8952  0.4744
  112MOL   H36649428   3.837   6.477   1.572 -1.0422 -1.1293  0.1607
  112MOL   H36749429   4.002   6.518   1.581  0.1475  0.7857  2.3676
  112MOL   H36849430   3.876   6.240   1.504  0.6757  0.4392  0.2515
  112MOL   H36949431   3.944   6.338   1.391  0.0041 -1.8601 -0.3217
  112MOL   H37049432   4.122   6.175   1.463 -0.8199 -0.1360 -0.9231
  112MOL   H37149433   4.156   6.343   1.525 -0.2194 -0.2732  0.6652
  112MOL   H37249434   4.205   6.173   1.688  0.1430 -1.6329 -1.2481
  112MOL   H37349435   4.036   6.107   1.674 -0.6476  0.7374 -2.7189
  112MOL   H37449436   4.278   6.228   1.877  0.9192  0.7198  1.2087
  112MOL   H37549437   4.235   6.175   2.033  0.0637 -1.4546 -0.8751
  112MOL   C37649438   4.288   6.388   2.003 -0.0570  0.0674 -0.0316
  112MOL   C37749439   4.262   6.418   2.156  1.0844  0.0870  0.2280
  112MOL   C37849440   4.286   6.564   2.208 -0.2600 -0.3073  0.2009
  112MOL   C37949441   4.248   6.582   2.354 -0.0015  0.6216 -0.1659
  112MOL   C38049442   4.322   6.484   2.449  0.1786  0.2723  0.2053
  112MOL   C38149443   4.282   6.341   2.406  0.0786 -0.1043  0.4361
  112MOL   C38249444   4.324   6.317   2.257  0.2138  0.0323  0.6687
  112MOL   C38349445   4.442   6.380   1.967  0.2549  0.1617 -0.1008
  112MOL   H38449446   4.237   6.467   1.949 -0.0827 -0.7523 -1.2162
  112MOL   H38549447   4.154   6.404   2.162  0.6351  2.0227 -2.5492
  112MOL   H38649448   4.391   6.586   2.189 -0.6414  0.0379 -1.6120
  112MOL   H38749449   4.250   6.643   2.141  0.0049  0.2372  0.6935
  112MOL   H38849450   4.139   6.575   2.357  0.0783 -0.6240 -0.2274
  112MOL   H38949451   4.270   6.682   2.393  0.8067  0.5831 -0.5103
  112MOL   H39049452   4.428   6.497   2.430  1.0242 -1.4601  3.4123
  112MOL   H39149453   4.293   6.508   2.552 -0.4448  0.2307  0.0425
  112MOL   H39249454   4.313   6.260   2.473  0.8003  0.0069  0.2363
  112MOL   H39349455   4.173   6.339   2.410  0.0700 -2.0191  0.1276
  112MOL   H39449456   4.432   6.329   2.245  0.1892 -0.6026 -0.2964
  112MOL   H39549457   4.310   6.212   2.229  0.2475  0.4691 -1.0475
  112MOL   H39649458   4.485   6.280   1.982  1.6548  1.1303  2.7372
  112MOL   H39749459   4.495   6.447   2.035 -0.3366 -1.9562  2.5197
  112MOL   C39849460   4.485   6.422   1.820 -0.0441 -0.7265  0.5566
  112MOL   C39949461   4.495   6.582   1.786  0.1929  0.0293  0.1507
  112MOL   C40049462   4.355   6.647   1.774  0.3448 -0.2507 -0.6552
  112MOL   C40149463   4.357   6.794   1.731  0.4755  0.5123 -0.1279
  112MOL   C40249464   4.437   6.882   1.833  0.3570 -0.4098  0.1659
  112MOL   C40349465   4.577   6.815   1.855 -0.7528  0.1360  0.0159
  112MOL   C40449466   4.575   6.665   1.890 -0.0485 -1.1105  0.1894
  112MOL   C40549467   4.624   6.352   1.790 -0.1606  0.4935 -0.2308
  112MOL   H40649468   4.410   6.378   1.754 -0.4304  1.6463 -0.6439
  112MOL   H40749469   4.553   6.587   1.694  1.9923 -0.0145  1.2398
  112MOL   H40849470   4.298   6.633   1.866  1.3562 -1.8590 -0.2450
  112MOL   H40949471   4.305   6.596   1.691 -0.1659  1.0988 -1.1891
  112MOL   H41049472   4.257   6.828   1.706  0.0168  0.1829  1.2528
  112MOL   H41149473   4.407   6.802   1.634 -0.2860  0.5651 -0.5189
  112MOL   H41249474   4.377   6.899   1.922 -0.8008 -1.3696 -0.4048
  112MOL   H41349475   4.456   6.976   1.781  3.1932 -2.3033 -2.3931
  112MOL   H41449476   4.643   6.827   1.769 -1.5876  1.6461 -0.4295
  112MOL   H41549477   4.626   6.865   1.938 -0.1425 -2.3718  1.2042
  112MOL   H41649478   4.676   6.623   1.884  0.6773  0.7193 -1.0313
  112MOL   H41749479   4.528   6.661   1.988  0.5275  1.5020  0.6186
  112MOL   H41849480   4.689   6.403   1.719  1.9777 -2.5965 -0.6026
  112MOL   H41949481   4.685   6.363   1.879 -0.2196  1.5399 -0.3099
  112MOL   C42049482   4.611   6.200   1.745 -0.8360 -0.1757  0.2920
  112MOL   C42149483   4.735   6.112   1.799  0.2704 -0.8502  0.3367
  112MOL   C42249484   4.875   6.147   1.731  0.0187 -0.1583  0.4361
  112MOL   C42349485   4.994   6.070   1.780 -0.5637  0.3581 -0.8942
  112MOL   C42449486   4.963   5.911   1.779  0.2397  0.1202 -0.0534
  112MOL   C42549487   4.825   5.868   1.835 -0.7428 -0.4538 -0.9072
  112MOL   C42649488   4.708   5.961   1.793 -0.1242  0.3233 -0.5038
  112MOL   C42749489   4.594   6.193   1.590 -0.3168  0.2611  0.2787
  112MOL   H42849490   4.524   6.150   1.787 -2.1521  1.7675 -0.0756
  112MOL   H42949491   4.754   6.125   1.905 -1.5268  1.4434  0.4012
  112MOL   H43049492   4.868   6.122   1.625  0.4673 -2.8377  1.0016
  112MOL   H43149493   4.901   6.251   1.749  0.2696 -0.6716  3.1605
  112MOL   H43249494   5.079   6.113   1.726 -0.0365 -0.2195 -0.5275
  112MOL   H43349495   4.999   6.089   1.887 -2.7203 -2.0974 -0.3330
  112MOL   H43449496   5.049   5.865   1.829  0.7296 -0.6327 -1.5372
  112MOL   H43549497   4.957   5.872   1.677  1.6568 -0.9534  0.2496
  112MOL   H43649498   4.826   5.855   1.943  1.5503 -0.7862 -0.9456
  112MOL   H43749499   4.809   5.771   1.790  0.6621 -0.0511 -2.3460
  112MOL   H43849500   4.681   5.932   1.692 -0.1334 -0.8067 -0.1867
  112MOL   H43949501   4.626   5.932   1.860 -1.1450 -0.9738 -2.2862
  112MOL   H44049502   4.583   6.097   1.539 -1.7875  1.4422 -1.7450
  112MOL   H44149503   4.509   6.241   1.541  1.9066  3.5971 -0.4873
  112MOL   H44249504   4.679   6.249   1.551  0.1807 -0.4867  0.2813
  113MOL     C149505   0.798   4.511   1.822  0.5959 -0.1764 -0.0717
  113MOL     C249506   0.747   4.658   1.810  0.4479 -0.3868  0.1276
  113MOL     C349507   0.687   4.690   1.675 -0.8135  0.2304  0.1266
  113MOL     C449508   0.631   4.836   1.675  0.1184  0.3343 -0.3288
  113MOL     C549509   0.741   4.928   1.719  0.1877  0.0126 -0.1436
  113MOL     C649510   0.791   4.892   1.856  0.2383  0.1399 -0.0555
  113MOL     C749511   0.852   4.759   1.860 -0.3359  0.6286  1.0556
  113MOL     C849512   0.901   4.455   1.723 -0.4086  0.1326 -0.1413
  113MOL     H949513   0.845   4.497   1.920 -1.4409 -0.5252  0.8849
  113MOL    H1049514   0.680   4.671   1.895  1.7005  0.2392  1.0462
  113MOL    H1149515   0.763   4.684   1.596  0.0279  1.2175  0.8454
  113MOL    H1249516   0.610   4.614   1.660  0.5272 -1.5403  1.8902
  113MOL    H1349517   0.549   4.841   1.748  0.0566  0.8974 -0.4368
  113MOL    H1449518   0.593   4.862   1.577  2.1589  1.3053 -0.8866
  113MOL    H1549519   0.708   5.031   1.732  2.5428  1.1761 -2.7275
  113MOL    H1649520   0.809   4.946   1.636 -1.1225  2.7622 -0.7040
  113MOL    H1749521   0.849   4.975   1.896  0.7698 -1.3385  2.3436
  113MOL    H1849522   0.696   4.897   1.909  0.1546 -0.6100 -0.1293
  113MOL    H1949523   0.884   4.734   1.961 -0.2326  1.1752  1.1549
  113MOL    H2049524   0.950   4.753   1.813  0.5501  2.7510  2.5623
  113MOL    H2149525   0.998   4.506   1.730  0.7774 -1.9420 -1.1119
  113MOL    H2249526   0.870   4.487   1.623  0.7043  2.2492  0.1568
  113MOL    H2349527   0.709   4.447   1.820 -0.5146  1.3711 -0.5617
  113MOL    C2449528   0.916   4.293   1.731  0.3485 -0.0596  0.8689
  113MOL    C2549529   0.811   4.208   1.661  0.4712 -0.4050  0.3558
  113MOL    C2649530   0.817   4.059   1.683  0.2677  1.0547 -0.0120
  113MOL    C2749531   0.691   3.988   1.637 -0.4615 -0.3753  0.2965
  113MOL    C2849532   0.671   4.012   1.482 -0.3548 -0.4635 -0.2239
  113MOL    C2949533   0.675   4.164   1.451 -0.0879  0.0322 -0.0851
  113MOL    C3049534   0.801   4.238   1.508 -0.2866 -0.0048 -0.5799
  113MOL    C3149535   1.056   4.247   1.683 -0.6955  0.4564  0.0858
  113MOL    H3249536   0.902   4.261   1.835  0.7185 -2.5868  0.1661
  113MOL    H3349537   0.719   4.241   1.710  0.9679 -0.6257  1.4634
  113MOL    H3449538   0.824   4.025   1.787 -0.2254 -0.1016 -0.3478
  113MOL    H3549539   0.901   4.021   1.626 -1.0694  0.6643 -1.7731
  113MOL    H3649540   0.691   3.883   1.665  2.6655  0.0018  1.8972
  113MOL    H3749541   0.600   4.016   1.691 -0.9142 -1.9318  0.3639
  113MOL    H3849542   0.575   3.972   1.450 -0.1882 -0.4165 -0.7869
  113MOL    H3949543   0.744   3.963   1.417 -1.3628 -1.0481 -0.9418
  113MOL    H4049544   0.666   4.185   1.344  0.4726 -2.3511 -0.6401
  113MOL    H4149545   0.595   4.225   1.493 -0.2823 -0.0052 -0.3991
  113MOL    H4249546   0.896   4.218   1.459 -0.1581 -0.2615 -0.2275
  113MOL    H4349547   0.774   4.344   1.503  0.7983  0.3801  1.5001
  113MOL    H4449548   1.059   4.274   1.578  0.1330 -0.9792 -0.2709
  113MOL    H4549549   1.056   4.138   1.689 -0.6356  0.5864  3.3808
  113MOL    C4649550   1.193   4.315   1.731 -0.9069 -0.3916 -0.1562
  113MOL    C4749551   1.321   4.256   1.663  0.5246  0.4640  0.7681
  113MOL    C4849552   1.321   4.303   1.515 -1.0890 -0.1325 -0.2252
  113MOL    C4949553   1.447   4.252   1.450  0.5210  0.0944  1.0452
  113MOL    C5049554   1.465   4.102   1.461 -0.0040 -0.4834 -0.5328
  113MOL    C5149555   1.472   4.057   1.607  0.6089 -0.4119  0.4200
  113MOL    C5249556   1.349   4.104   1.685  0.7363  0.1076  0.9988
  113MOL    C5349557   1.206   4.328   1.886 -0.1495 -0.1619  0.7148
  113MOL    H5449558   1.192   4.415   1.687  0.5872  0.8173  2.4389
  113MOL    H5549559   1.407   4.307   1.706 -0.7368  2.9961  0.3621
  113MOL    H5649560   1.233   4.276   1.456 -2.4719  0.4675  1.5126
  113MOL    H5749561   1.313   4.412   1.517 -2.0099 -0.2167  2.4975
  113MOL    H5849562   1.540   4.302   1.478  1.5205 -0.7841 -0.6428
  113MOL    H5949563   1.429   4.269   1.344  0.8324 -1.0905  0.7928
  113MOL    H6049564   1.387   4.045   1.411 -0.3747 -1.0146  0.6130
  113MOL    H6149565   1.561   4.077   1.414 -0.2351 -2.0594 -0.2143
  113MOL    H6249566   1.565   4.100   1.646 -0.2111 -0.0078  1.9789
  113MOL    H6349567   1.494   3.951   1.618 -0.1782 -0.4643  1.6246
  113MOL    H6449568   1.262   4.049   1.649  0.4945 -0.0157  1.7475
  113MOL    H6549569   1.359   4.079   1.791 -0.4788 -0.3451  1.0215
  113MOL    H6649570   1.203   4.222   1.911  2.7414 -0.4345  0.0815
  113MOL    H6749571   1.115   4.348   1.942 -1.8277  0.1834 -2.0598
  113MOL    C6849572   1.333   4.398   1.940 -0.4344 -0.0167 -0.1163
  113MOL    C6949573   1.348   4.547   1.899  0.1261  0.1131  0.9000
  113MOL    C7049574   1.234   4.634   1.946  0.1280 -0.2426  0.6017
  113MOL    C7149575   1.246   4.783   1.908  0.0329 -0.9419 -0.4757
  113MOL    C7249576   1.386   4.845   1.947 -0.2430 -0.1784 -0.5910
  113MOL    C7349577   1.504   4.756   1.891  0.2685  0.4357  0.2672
  113MOL    C7449578   1.481   4.613   1.945  0.1282 -0.3113 -0.4415
  113MOL    C7549579   1.349   4.362   2.092 -0.1273  1.0406  0.5055
  113MOL    H7649580   1.422   4.347   1.903  1.6624  2.7311  1.0532
  113MOL    H7749581   1.354   4.556   1.791  1.4945  1.3399  1.0539
  113MOL    H7849582   1.217   4.626   2.054 -3.6601 -0.6810  0.0117
  113MOL    H7949583   1.146   4.598   1.894 -0.6400  2.0593  0.2570
  113MOL    H8049584   1.212   4.792   1.804 -1.7404 -0.7985  0.1071
  113MOL    H8149585   1.159   4.828   1.956  0.8107  1.4923 -1.2557
  113MOL    H8249586   1.394   4.833   2.055  0.8419 -1.2642 -0.7868
  113MOL    H8349587   1.391   4.950   1.916  2.3334 -0.0585  0.1185
  113MOL    H8449588   1.600   4.785   1.932  0.6814 -1.6602  0.8688
  113MOL    H8549589   1.495   4.744   1.783  0.5972 -2.2610  0.5065
  113MOL    H8649590   1.481   4.631   2.052  3.5989 -2.3444 -0.0074
  113MOL    H8749591   1.574   4.560   1.925 -1.3370 -2.6074 -1.3295
  113MOL    H8849592   1.446   4.406   2.113 -0.5533  0.9526  2.7552
  113MOL    H8949593   1.271   4.416   2.146  2.0698  4.6617  0.2005
  113MOL    C9049594   1.359   4.207   2.138 -0.6004 -0.2627  0.2441
  113MOL    C9149595   1.497   4.150   2.156 -0.6443 -0.1012 -0.3584
  113MOL    C9249596   1.577   4.146   2.026  0.1849  0.6559  0.1666
  113MOL    C9349597   1.716   4.074   2.038 -0.1695 -0.1701 -0.0648
  113MOL    C9449598   1.799   4.125   2.150 -0.3057 -0.3904 -0.2619
  113MOL    C9549599   1.720   4.129   2.283 -0.2781  0.6056  0.2045
  113MOL    C9649600   1.590   4.207   2.271 -0.1084  0.4459  0.2433
  113MOL    C9749601   1.268   4.193   2.259  0.5374 -0.5351 -0.1486
  113MOL    H9849602   1.312   4.144   2.063 -0.4547 -1.8109  1.4365
  113MOL    H9949603   1.491   4.044   2.179 -0.3515 -0.1350 -0.4341
  113MOL   H10049604   1.606   4.245   1.990  1.7024  0.9893  2.2127
  113MOL   H10149605   1.519   4.098   1.947  1.2804  1.2012 -0.9884
  113MOL   H10249606   1.762   4.082   1.939 -0.0060 -0.6207 -0.0271
  113MOL   H10349607   1.700   3.968   2.058 -1.3525  0.2039  1.0024
  113MOL   H10449608   1.826   4.229   2.132  0.0568 -0.4287  0.0694
  113MOL   H10549609   1.888   4.063   2.156  0.5639  0.8148 -0.6130
  113MOL   H10649610   1.707   4.030   2.327 -0.4310  1.5682  2.4002
  113MOL   H10749611   1.784   4.177   2.357 -1.9407  1.6263  1.0250
  113MOL   H10849612   1.539   4.214   2.367  1.0951  0.8679  0.8594
  113MOL   H10949613   1.605   4.307   2.231  1.7972 -0.8553 -2.4952
  113MOL   H11049614   1.321   4.251   2.334 -1.7412  1.9096 -0.3618
  113MOL   H11149615   1.176   4.251   2.251 -1.2294 -3.0265  1.4255
  113MOL   C11249616   1.236   4.052   2.314  0.4571  0.6376 -0.7351
  113MOL   C11349617   1.189   3.950   2.211  0.2570  0.0609 -0.1702
  113MOL   C11449618   1.044   3.987   2.156  0.6422 -0.6679  0.3154
  113MOL   C11549619   0.999   3.897   2.046 -0.4250 -0.0624  0.6272
  113MOL   C11649620   1.020   3.746   2.081 -0.4592  0.2807  0.0030
  113MOL   C11749621   1.158   3.711   2.145  0.1810 -0.4159 -0.1349
  113MOL   C11849622   1.188   3.809   2.260  0.2414 -0.2375 -0.2515
  113MOL   C11949623   1.162   4.063   2.448 -0.0243 -0.3857 -0.2642
  113MOL   H12049624   1.337   4.012   2.329  0.0208  0.2513  1.3671
  113MOL   H12149625   1.263   3.952   2.132  2.5187 -1.2203  1.8542
  113MOL   H12249626   1.054   4.089   2.119  0.0859 -0.5706  0.4225
  113MOL   H12349627   0.974   3.992   2.240 -0.0109 -2.5322 -0.1075
  113MOL   H12449628   0.892   3.914   2.035 -0.5480  0.4421  2.4433
  113MOL   H12549629   1.043   3.920   1.949 -1.4310 -0.0863  0.1606
  113MOL   H12649630   0.940   3.725   2.152 -0.6546 -0.5083 -0.4455
  113MOL   H12749631   1.002   3.688   1.991 -0.2905 -0.5933  0.5236
  113MOL   H12849632   1.170   3.604   2.165 -0.6125 -1.2562 -3.8556
  113MOL   H12949633   1.225   3.728   2.061  0.3752 -1.4016 -0.1871
  113MOL   H13049634   1.284   3.784   2.304  1.3063  0.6193 -2.0332
  113MOL   H13149635   1.105   3.795   2.330  2.2093  0.2915  2.2547
  113MOL   H13249636   1.143   3.958   2.469 -0.5168 -0.1754  0.3211
  113MOL   H13349637   1.063   4.103   2.426 -0.1197 -0.7678 -0.5486
  113MOL   C13449638   1.228   4.135   2.573  0.0500 -0.1970 -0.7872
  113MOL   C13549639   1.373   4.091   2.595 -0.7277  0.2856 -0.6513
  113MOL   C13649640   1.385   3.939   2.622  0.3844  0.0967  0.1741
  113MOL   C13749641   1.531   3.888   2.648  0.1006 -0.1235 -0.5666
  113MOL   C13849642   1.595   3.977   2.753 -0.8626  0.1624 -0.1990
  113MOL   C13949643   1.596   4.123   2.713 -0.2823 -0.2433 -0.0254
  113MOL   C14049644   1.457   4.175   2.699  0.1494 -0.0593  0.0465
  113MOL   C14149645   1.130   4.131   2.702 -0.2617 -0.9377 -0.2364
  113MOL   H14249646   1.238   4.240   2.546 -0.2425  0.4835  1.6236
  113MOL   H14349647   1.435   4.104   2.507 -0.1656 -4.6258 -1.1155
  113MOL   H14449648   1.324   3.913   2.709  2.4076 -2.3582  0.9074
  113MOL   H14549649   1.352   3.883   2.534 -0.9599 -0.5961  1.0944
  113MOL   H14649650   1.571   3.889   2.546  1.9209  1.0816  0.1343
  113MOL   H14749651   1.519   3.789   2.692 -1.6221  0.6783  0.8023
  113MOL   H14849652   1.546   3.977   2.850  0.9355  0.0933  0.7142
  113MOL   H14949653   1.699   3.947   2.763 -0.3584  1.5444 -1.1432
  113MOL   H15049654   1.658   4.120   2.623  1.8043  1.4653  1.2979
  113MOL   H15149655   1.653   4.184   2.784 -0.9149 -0.3626  0.5857
  113MOL   H15249656   1.409   4.189   2.796 -0.4617  1.0712 -0.4105
  113MOL   H15349657   1.458   4.279   2.669 -1.5735  1.0918  3.7038
  113MOL   H15449658   1.164   4.055   2.772 -1.8670  0.2941  1.9621
  113MOL   H15549659   1.036   4.085   2.669 -0.2036 -1.2197 -0.0054
  113MOL   C15649660   1.117   4.269   2.773 -0.3643  0.3041  0.0805
  113MOL   C15749661   1.075   4.226   2.919 -0.0684 -0.2584  0.7200
  113MOL   C15849662   0.941   4.135   2.921 -0.5272 -0.3002 -0.1610
  113MOL   C15949663   0.907   4.087   3.070 -0.3583  0.1055  0.2546
  113MOL   C16049664   1.033   4.032   3.146  0.6230 -0.0172  0.0263
  113MOL   C16149665   1.139   4.139   3.151 -0.0349 -0.2638 -0.3551
  113MOL   C16249666   1.187   4.170   3.011 -0.6866 -0.3724  0.1502
  113MOL   C16349667   1.004   4.353   2.704  0.0913  0.1436 -0.3148
  113MOL   H16449668   1.217   4.311   2.757  0.2726 -1.1486  0.0910
  113MOL   H16549669   1.045   4.320   2.966  0.5238 -0.1917  0.9648
  113MOL   H16649670   0.850   4.185   2.886 -0.4247  0.4977  0.6787
  113MOL   H16749671   0.947   4.053   2.850 -0.9521 -1.3783  1.0309
  113MOL   H16849672   0.861   4.169   3.124 -0.0928 -0.2049  0.9700
  113MOL   H16949673   0.830   4.011   3.059  0.1315  0.1156 -4.3718
  113MOL   H17049674   1.073   3.945   3.095 -0.6316 -0.0049 -1.0153
  113MOL   H17149675   1.001   4.011   3.248 -0.7266 -1.0722 -0.5962
  113MOL   H17249676   1.218   4.105   3.217  0.5345 -1.0032 -1.3930
  113MOL   H17349677   1.105   4.225   3.209  1.6839 -0.0759  0.3922
  113MOL   H17449678   1.279   4.228   3.020  0.0138 -1.2118 -1.3253
  113MOL   H17549679   1.212   4.072   2.970  0.4968 -0.8495  1.9524
  113MOL   H17649680   0.937   4.413   2.766  1.0872  2.3732 -1.3055
  113MOL   H17749681   0.940   4.285   2.648  0.2078  0.8680 -1.3517
  113MOL   C17849682   1.050   4.458   2.597  0.3578 -0.6443  0.1036
  113MOL   C17949683   0.961   4.461   2.467 -0.0475  0.2686  0.1743
  113MOL   C18049684   1.027   4.534   2.354 -0.3238 -0.5356 -0.2358
  113MOL   C18149685   0.936   4.516   2.228  0.6123  0.1340  0.5230
  113MOL   C18249686   0.796   4.573   2.252 -0.9534 -0.1457  0.0251
  113MOL   C18349687   0.729   4.506   2.366  0.5898 -0.1078  0.2246
  113MOL   C18449688   0.817   4.514   2.489  0.8946 -0.5225  0.6576
  113MOL   C18549689   1.085   4.598   2.660  0.1872 -0.0793  1.1037
  113MOL   H18649690   1.147   4.426   2.562  1.0782 -0.3644  1.7927
  113MOL   H18749691   0.962   4.357   2.435 -0.7964 -0.1111  1.3603
  113MOL   H18849692   1.032   4.639   2.383 -0.5531 -0.7882  0.7274
  113MOL   H18949693   1.127   4.494   2.339 -0.0379  0.2391 -0.4358
  113MOL   H19049694   0.929   4.410   2.201 -0.3628  0.2598  0.2742
  113MOL   H19149695   0.969   4.571   2.140 -2.9756 -1.7216 -2.1358
  113MOL   H19249696   0.804   4.680   2.274  2.5715 -0.3664 -0.0301
  113MOL   H19349697   0.749   4.561   2.154  0.1012  2.0392 -0.7961
  113MOL   H19449698   0.715   4.401   2.343 -1.3417  0.0369  0.6241
  113MOL   H19549699   0.630   4.542   2.395  0.5189  0.9288 -1.2371
  113MOL   H19649700   0.817   4.613   2.535  0.8632 -0.6488  0.9347
  113MOL   H19749701   0.775   4.450   2.567  1.1238 -0.9281  0.4538
  113MOL   H19849702   1.042   4.675   2.596  0.2074 -1.1983 -0.2836
  113MOL   H19949703   1.029   4.609   2.753  0.5976  0.5777  1.2771
  113MOL   C20049704   1.240   4.616   2.688 -0.0262  0.0879  0.5883
  113MOL   C20149705   1.314   4.649   2.554 -0.7917 -0.1864 -0.6982
  113MOL   C20249706   1.297   4.780   2.480 -0.0440 -0.5291  0.4640
  113MOL   C20349707   1.354   4.771   2.341 -0.0827 -0.5042 -0.6173
  113MOL   C20449708   1.501   4.724   2.340  0.5428 -0.2546  0.3448
  113MOL   C20549709   1.524   4.604   2.431 -0.2171  0.8489  1.1036
  113MOL   C20649710   1.468   4.621   2.568  0.1051  0.3886 -0.3003
  113MOL   C20749711   1.264   4.718   2.797 -0.1291 -0.0754  0.0162
  113MOL   H20849712   1.270   4.523   2.737  0.8943  2.1823  4.1773
  113MOL   H20949713   1.286   4.568   2.486  0.1773 -1.3005  0.1901
  113MOL   H21049714   1.358   4.844   2.543 -0.4943 -3.5611  4.1768
  113MOL   H21149715   1.195   4.818   2.482  1.3272  3.2753  1.1781
  113MOL   H21249716   1.287   4.714   2.277 -1.7698 -2.0983  2.4457
  113MOL   H21349717   1.353   4.870   2.295 -1.0768 -0.2247 -0.0200
  113MOL   H21449718   1.538   4.702   2.239 -1.3326 -0.3585 -0.3387
  113MOL   H21549719   1.559   4.809   2.375 -1.3046  1.4675 -0.7008
  113MOL   H21649720   1.491   4.512   2.382 -0.1316  0.5165  1.6600
  113MOL   H21749721   1.633   4.592   2.438 -0.4237 -1.7987  0.4495
  113MOL   H21849722   1.492   4.530   2.623  0.8057  1.7739  1.7487
  113MOL   H21949723   1.510   4.704   2.625  2.5209 -0.3856 -0.8833
  113MOL   H22049724   1.369   4.744   2.791 -0.5107  1.6680  0.6535
  113MOL   H22149725   1.225   4.815   2.767  0.9371  0.7322  1.1864
  113MOL   C22249726   1.225   4.691   2.944  0.6281  0.1766 -0.1590
  113MOL   C22349727   1.318   4.603   3.030  0.8781  0.2123  0.1920
  113MOL   C22449728   1.239   4.544   3.147  0.0183 -0.4578  0.0070
  113MOL   C22549729   1.330   4.443   3.223  0.8127  0.1702  0.4954
  113MOL   C22649730   1.447   4.515   3.281  0.0846 -0.2661  0.9761
  113MOL   C22749731   1.530   4.593   3.180  0.3730  0.1029 -0.1471
  113MOL   C22849732   1.445   4.678   3.082  0.5334  0.9716  0.0640
  113MOL   C22949733   1.177   4.827   3.012 -0.4515  0.4452 -0.2875
  113MOL   H23049734   1.130   4.638   2.935  0.8243 -0.5658  1.8241
  113MOL   H23149735   1.345   4.519   2.967 -0.6170  0.1491 -0.3772
  113MOL   H23249736   1.184   4.615   3.208 -0.3726 -0.1031 -0.7544
  113MOL   H23349737   1.154   4.485   3.112  0.6317 -0.2769 -1.8483
  113MOL   H23449738   1.376   4.371   3.156 -0.9892 -0.7382  0.1960
  113MOL   H23549739   1.279   4.393   3.305  0.6834 -1.3487 -0.4965
  113MOL   H23649740   1.410   4.577   3.363  2.6749  0.9958  1.2368
  113MOL   H23749741   1.512   4.441   3.327  0.0086 -0.9019  0.0621
  113MOL   H23849742   1.595   4.524   3.127  0.0803 -0.0851 -0.2603
  113MOL   H23949743   1.605   4.659   3.226 -1.4266  2.2400 -0.1745
  113MOL   H24049744   1.412   4.761   3.144 -0.3526 -0.6490  1.8049
  113MOL   H24149745   1.512   4.717   3.005  1.1354  0.2724  0.2311
  113MOL   H24249746   1.247   4.906   2.983 -0.7604  0.4072 -1.1642
  113MOL   H24349747   1.188   4.828   3.120 -0.5367 -0.9734 -0.2633
  113MOL   C24449748   1.033   4.873   2.967 -0.3166  0.4001 -0.0986
  113MOL   C24549749   1.019   5.024   2.932 -0.1133 -0.0923 -0.4223
  113MOL   C24649750   1.092   5.072   2.804  0.3228 -0.5270 -0.9169
  113MOL   C24749751   1.064   5.219   2.762 -0.0758  0.2741  0.0968
  113MOL   C24849752   1.091   5.310   2.886 -0.7356  0.1061  0.2621
  113MOL   C24949753   1.029   5.267   3.013  0.2147 -0.4866  0.6446
  113MOL   C25049754   1.064   5.117   3.045 -0.2467 -0.7978 -0.2432
  113MOL   C25149755   0.932   4.824   3.074  0.2228  0.3082  0.1461
  113MOL   H25249756   1.020   4.831   2.867  0.3548  1.8074 -0.7969
  113MOL   H25349757   0.913   5.040   2.914 -0.0767 -0.0822 -0.6337
  113MOL   H25449758   1.079   5.000   2.723  0.3115 -1.0828 -0.4237
  113MOL   H25549759   1.199   5.069   2.823  0.3435 -0.5539 -1.0407
  113MOL   H25649760   1.135   5.252   2.685  0.0318  2.0328  0.9379
  113MOL   H25749761   0.964   5.236   2.722  1.4588 -1.2349 -4.8255
  113MOL   H25849762   1.199   5.312   2.898 -0.5979  1.4848 -1.0645
  113MOL   H25949763   1.060   5.406   2.844 -2.2381  0.0709  1.2296
  113MOL   H26049764   0.921   5.282   3.014  0.2102 -0.5321  0.7791
  113MOL   H26149765   1.056   5.339   3.091 -1.6410  0.7473  0.1823
  113MOL   H26249766   1.169   5.104   3.068 -0.4353 -3.3296 -0.6386
  113MOL   H26349767   1.011   5.086   3.135 -3.0695  1.9069 -0.8960
  113MOL   H26449768   0.938   4.884   3.165 -2.2883  0.8742 -0.0284
  113MOL   H26549769   0.963   4.722   3.097 -2.0640 -1.0210 -2.3588
  113MOL   C26649770   0.783   4.812   3.022 -0.0231 -0.0005  0.2076
  113MOL   C26749771   0.746   4.671   2.960  0.1018 -0.8985 -0.1235
  113MOL   C26849772   0.623   4.672   2.869  0.2965  0.6591  0.3790
  113MOL   C26949773   0.586   4.538   2.800 -0.6582  0.6186 -0.2254
  113MOL   C27049774   0.575   4.425   2.900 -0.5237  0.3613  0.1485
  113MOL   C27149775   0.682   4.420   3.008  0.2509 -0.4151 -0.0515
  113MOL   C27249776   0.722   4.556   3.069  0.5027 -0.8497  0.7602
  113MOL   C27349777   0.699   4.849   3.145 -0.6831  0.3550  0.4943
  113MOL   H27449778   0.774   4.877   2.935  1.2815  0.0171  0.0830
  113MOL   H27549779   0.832   4.642   2.899  0.1290 -1.4097  0.1587
  113MOL   H27649780   0.535   4.711   2.921  2.4000  2.2778  2.8700
  113MOL   H27749781   0.648   4.741   2.788 -2.6934 -1.5148 -2.5435
  113MOL   H27849782   0.646   4.505   2.715  0.1544 -0.5232  0.7599
  113MOL   H27949783   0.490   4.538   2.748 -0.5106  0.1832 -0.5026
  113MOL   H28049784   0.479   4.438   2.949 -0.3075  2.6261 -0.0146
  113MOL   H28149785   0.561   4.327   2.854  1.7345  0.6862 -1.2955
  113MOL   H28249786   0.769   4.388   2.950 -1.0394 -1.5346 -1.3909
  113MOL   H28349787   0.675   4.346   3.087  2.6266  0.6109  1.1587
  113MOL   H28449788   0.813   4.554   3.128  1.1094  0.5324 -0.0869
  113MOL   H28549789   0.639   4.577   3.137 -0.0789  1.7657 -0.6948
  113MOL   H28649790   0.749   4.817   3.236  1.5035 -0.3095 -0.9017
  113MOL   H28749791   0.612   4.785   3.138 -1.0138  0.9533 -0.9545
  113MOL   C28849792   0.652   4.992   3.133  0.1741 -0.2394  0.1637
  113MOL   C28949793   0.620   5.061   3.270  0.5825  0.0372 -1.0372
  113MOL   C29049794   0.522   4.975   3.363  0.0235 -0.0600  0.0888
  113MOL   C29149795   0.491   5.041   3.498 -0.5415  0.5218 -0.1594
  113MOL   C29249796   0.620   5.065   3.575  0.4190 -0.5280  0.1158
  113MOL   C29349797   0.727   5.151   3.496  0.1267  0.3233 -0.5033
  113MOL   C29449798   0.745   5.080   3.359 -0.1944 -0.0937 -0.2572
  113MOL   C29549799   0.535   5.007   3.031  0.1423  0.1092  0.1202
  113MOL   H29649800   0.739   5.042   3.092  0.3292 -0.9961 -0.4360
  113MOL   H29749801   0.562   5.150   3.248 -0.0479 -0.4466 -1.3643
  113MOL   H29849802   0.426   4.966   3.314  0.5978 -1.3087 -0.8255
  113MOL   H29949803   0.570   4.879   3.383  0.3878 -0.0442 -0.6979
  113MOL   H30049804   0.421   5.124   3.486  1.8193  2.3569 -1.7819
  113MOL   H30149805   0.446   4.960   3.556 -1.1282  0.1347 -1.1253
  113MOL   H30249806   0.673   4.971   3.591  1.0720 -0.1509  0.1618
  113MOL   H30349807   0.604   5.113   3.671  3.2437  0.6428  0.0413
  113MOL   H30449808   0.823   5.174   3.542 -0.6992  2.5134  0.2103
  113MOL   H30549809   0.687   5.253   3.490  1.5969  1.1446  2.4308
  113MOL   H30649810   0.799   4.987   3.378 -0.4214 -0.2250 -0.2620
  113MOL   H30749811   0.818   5.142   3.307  0.1912 -0.0337  0.3526
  113MOL   H30849812   0.553   4.938   2.948 -0.3570 -0.5032  0.5199
  113MOL   H30949813   0.439   4.975   3.071  0.9015 -1.4488  0.7198
  113MOL   C31049814   0.498   5.140   2.962  0.7525 -0.4594  0.0505
  113MOL   C31149815   0.483   5.124   2.807 -0.0010  0.1152 -0.3161
  113MOL   C31249816   0.611   5.076   2.726 -0.5125 -0.2584 -0.2351
  113MOL   C31349817   0.588   5.094   2.572 -0.7422 -0.4449 -0.3779
  113MOL   C31449818   0.464   5.018   2.528 -0.1261  0.6264 -0.3666
  113MOL   C31549819   0.338   5.041   2.617  0.4612 -0.0451 -0.2313
  113MOL   C31649820   0.362   5.037   2.758 -0.5532  0.1643 -0.3986
  113MOL   C31749821   0.381   5.209   3.038  0.8047 -0.5584  0.2912
  113MOL   H31849822   0.578   5.213   2.972  0.2685 -0.0682  1.1453
  113MOL   H31949823   0.461   5.222   2.764  1.3613  1.1137  1.1920
  113MOL   H32049824   0.706   5.126   2.744 -0.0219 -0.8820 -1.0713
  113MOL   H32149825   0.641   4.972   2.739  2.2439  0.8634  3.2844
  113MOL   H32249826   0.655   5.055   2.496 -0.8881 -1.2214 -0.1182
  113MOL   H32349827   0.575   5.200   2.551 -2.3956 -0.1842  1.7300
  113MOL   H32449828   0.438   5.042   2.425 -3.1774 -1.9401 -0.2729
  113MOL   H32549829   0.486   4.911   2.530 -2.2016  0.1845  1.3634
  113MOL   H32649830   0.309   5.145   2.605 -0.9960 -0.2876  1.0295
  113MOL   H32749831   0.254   4.976   2.591 -0.5690  0.0680  2.7239
  113MOL   H32849832   0.382   4.931   2.776 -1.5558 -0.2569 -1.7023
  113MOL   H32949833   0.269   5.068   2.806  0.7884  1.4188  1.4876
  113MOL   H33049834   0.410   5.227   3.141 -0.1701 -0.0182  0.4728
  113MOL   H33149835   0.302   5.134   3.043  0.9365 -0.8896 -1.9196
  113MOL   C33249836   0.323   5.346   2.986  0.6006 -0.4123 -0.2022
  113MOL   C33349837   0.430   5.464   2.968 -0.1473 -0.4318 -0.4154
  113MOL   C33449838   0.500   5.513   3.091 -0.4220  0.6615 -0.1121
  113MOL   C33549839   0.625   5.592   3.048 -0.2445  1.1339  0.0835
  113MOL   C33649840   0.593   5.718   2.961 -0.1328 -0.2260  0.1533
  113MOL   C33749841   0.522   5.664   2.829  0.2481  0.3955  0.7421
  113MOL   C33849842   0.396   5.586   2.871  0.0602  0.5161 -0.3952
  113MOL   C33949843   0.206   5.389   3.068  0.7769  0.0071  0.3052
  113MOL   H34049844   0.297   5.327   2.882  0.7284  0.4988 -0.4022
  113MOL   H34149845   0.511   5.408   2.921  0.0642  0.1879 -0.8009
  113MOL   H34249846   0.437   5.576   3.153  0.7208  1.7873 -0.0692
  113MOL   H34349847   0.538   5.427   3.146 -1.6917 -0.0081 -0.2586
  113MOL   H34449848   0.679   5.629   3.135  1.7018  2.1059 -1.4845
  113MOL   H34549849   0.699   5.534   2.992  0.9195  1.7027  1.0074
  113MOL   H34649850   0.526   5.781   3.021 -1.5280  0.1197 -1.7168
  113MOL   H34749851   0.681   5.774   2.930 -0.4648 -0.0269 -0.4417
  113MOL   H34849852   0.587   5.600   2.770 -0.2367  1.3209 -0.8189
  113MOL   H34949853   0.484   5.736   2.757 -0.5522 -0.5685  0.1958
  113MOL   H35049854   0.340   5.543   2.788  1.8331  1.0781 -1.9246
  113MOL   H35149855   0.325   5.648   2.927  0.6887 -0.0093  0.9930
  113MOL   H35249856   0.201   5.498   3.073  2.9362  0.1121  0.5329
  113MOL   H35349857   0.225   5.355   3.170 -2.7112 -0.0885  0.9732
  113MOL   C35449858   0.061   5.344   3.010  0.6933  0.3264  0.1950
  113MOL   C35549859   7.717   5.416   3.080 -0.3357 -0.4697  0.0837
  113MOL   C35649860   7.713   5.567   3.067  0.0647 -0.6554  0.3064
  113MOL   C35749861   7.593   5.618   3.144 -0.1458  0.0571  0.0286
  113MOL   C35849862   7.568   5.575   3.290  0.5553  0.1776 -0.8086
  113MOL   C35949863   7.580   5.423   3.294  0.1989  0.5468  0.4466
  113MOL   C36049864   7.710   5.371   3.236  0.2401 -0.4141  0.3069
  113MOL   C36149865   0.049   5.192   3.013  0.3021  0.5645 -0.1217
  113MOL   H36249866   0.047   5.366   2.904 -0.8620  0.5654  0.4328
  113MOL   H36349867   7.624   5.382   3.034 -1.0995  0.4810  0.9024
  113MOL   H36449868   7.693   5.585   2.961  1.3718  1.4202  0.3761
  113MOL   H36549869   0.036   5.610   3.097 -0.7782  1.4713  0.0350
  113MOL   H36649870   7.594   5.727   3.150 -3.2049  0.1668 -0.4832
  113MOL   H36749871   7.501   5.600   3.089 -1.1210  1.3639  1.1887
  113MOL   H36849872   7.636   5.623   3.361 -1.7320  0.4320  1.2939
  113MOL   H36949873   7.471   5.597   3.335  0.6641 -1.2192  0.1734
  113MOL   H37049874   7.569   5.379   3.393 -2.4257 -0.7123 -0.3451
  113MOL   H37149875   7.493   5.384   3.241  0.0952 -1.9285  2.3665
  113MOL   H37249876   7.709   5.263   3.249  1.3508 -0.4712 -0.0039
  113MOL   H37349877   0.029   5.394   3.291  1.2288 -0.3142 -1.3359
  113MOL   H37449878   0.081   5.159   3.112 -2.6074 -0.5839  0.4751
  113MOL   H37549879   0.117   5.151   2.938  1.1168 -2.0359  1.9608
  113MOL   C37649880   7.692   5.114   2.989  0.5436 -0.1627  1.0446
  113MOL   C37749881   7.626   5.152   2.855 -0.3880  0.5726  0.4724
  113MOL   C37849882   7.474   5.111   2.833 -0.3234  0.2301  0.3963
  113MOL   C37949883   7.407   5.193   2.721  0.1294 -0.0339 -0.3302
  113MOL   C38049884   7.478   5.178   2.588  0.8650 -0.2857  0.4042
  113MOL   C38149885   7.632   5.199   2.607 -0.2896 -0.0292  0.1206
  113MOL   C38249886   7.699   5.126   2.728 -0.0504 -0.1817 -0.4291
  113MOL   C38349887   7.711   4.964   3.020  0.2157 -0.2171 -0.3400
  113MOL   H38449888   7.626   5.154   3.066  0.2766 -0.2732  0.8720
  113MOL   H38549889   7.614   5.260   2.863 -0.6505  0.4339  2.3053
  113MOL   H38649890   7.469   5.004   2.815 -1.7767  0.1493  1.2517
  113MOL   H38749891   7.427   5.123   2.930 -2.5610  1.6387 -0.8208
  113MOL   H38849892   7.413   5.296   2.755  1.5110  0.3836 -1.7865
  113MOL   H38949893   7.303   5.161   2.715  0.0703 -0.0441  0.7092
  113MOL   H39049894   7.448   5.080   2.551  1.7791 -0.4278  0.0226
  113MOL   H39149895   7.428   5.241   2.515  0.3063 -1.3588 -0.1549
  113MOL   H39249896   7.670   5.171   2.509  1.3246  1.9265  0.1467
  113MOL   H39349897   7.657   5.304   2.618 -1.7521  0.5179 -1.5195
  113MOL   H39449898   7.701   5.023   2.692 -2.8719  0.6872 -3.3406
  113MOL   H39549899   0.025   5.170   2.741 -0.3690  0.2961  0.4394
  113MOL   H39649900   0.004   4.967   3.108 -0.4716 -0.1794  0.1779
  113MOL   H39749901   7.764   4.903   2.948  0.5762  1.6502 -1.6872
  113MOL   C39849902   7.580   4.888   3.066 -0.7076 -0.6968 -0.2512
  113MOL   C39949903   7.548   4.777   2.968 -0.7392 -0.4713  0.5819
  113MOL   C40049904   7.627   4.639   2.986 -0.0675  0.0154 -0.9787
  113MOL   C40149905   7.581   4.531   2.878 -0.0270  0.2692  1.4228
  113MOL   C40249906   7.429   4.513   2.893 -0.6705  0.4645  0.0580
  113MOL   C40349907   7.354   4.641   2.863 -0.0277 -0.6666 -0.1625
  113MOL   C40449908   7.393   4.753   2.960  0.0999  0.6029 -0.6694
  113MOL   C40549909   7.583   4.842   3.213  0.4664 -0.0682 -0.3450
  113MOL   H40649910   7.508   4.969   3.059 -0.5875 -0.3464  2.2081
  113MOL   H40749911   7.564   4.812   2.867  0.9249 -0.7685  0.7219
  113MOL   H40849912   7.618   4.597   3.086 -2.7345 -2.1402 -2.0909
  113MOL   H40949913   7.733   4.667   2.982  0.0890  0.1357  2.8023
  113MOL   H41049914   7.629   4.435   2.897 -0.2792 -0.6225 -2.0451
  113MOL   H41149915   7.598   4.560   2.774  0.8556 -1.2741  1.1228
  113MOL   H41249916   7.411   4.477   2.994  0.8147 -0.0375  0.1519
  113MOL   H41349917   7.389   4.430   2.835 -0.6491  0.2936  0.2892
  113MOL   H41449918   7.372   4.677   2.762 -0.3067  1.6836  0.6074
  113MOL   H41549919   7.250   4.620   2.886 -0.0714  0.0601  0.3100
  113MOL   H41649920   7.341   4.847   2.944 -0.0189  0.5189 -0.7793
  113MOL   H41749921   7.357   4.729   3.061  1.5615  1.6097  0.1158
  113MOL   H41849922   7.508   4.768   3.242  0.8082 -0.5039 -0.5760
  113MOL   H41949923   7.680   4.794   3.222  0.9172  0.8519 -0.2173
  113MOL   C42049924   7.571   4.954   3.316  0.9487 -0.1604 -0.3609
  113MOL   C42149925   7.596   4.897   3.465  0.3146 -0.2224  0.4638
  113MOL   C42249926   7.555   5.005   3.575  0.2035 -0.8244  0.0352
  113MOL   C42349927   7.667   5.114   3.594 -0.2302  0.0672 -0.5039
  113MOL   C42449928   0.030   5.050   3.622 -1.0144  0.2122  0.2329
  113MOL   C42549929   0.070   4.943   3.521 -0.9533  0.3219 -0.2991
  113MOL   C42649930   7.741   4.835   3.486 -0.0891 -0.3496  0.1883
  113MOL   C42749931   7.432   5.013   3.304 -0.1597 -0.3210 -0.1141
  113MOL   H42849932   7.649   5.026   3.294 -0.1748  0.6709 -1.6898
  113MOL   H42949933   7.526   4.815   3.481 -0.1029 -0.3240 -1.6385
  113MOL   H43049934   7.460   5.055   3.559  0.9550  0.4990 -0.3472
  113MOL   H43149935   7.543   4.948   3.667  2.4022  0.5163  1.1908
  113MOL   H43249936   7.677   5.173   3.502 -0.5113  0.1235 -0.5008
  113MOL   H43349937   7.625   5.181   3.669  1.0463 -0.0006  0.2804
  113MOL   H43449938   0.022   4.997   3.717 -0.7237  0.9135  0.6488
  113MOL   H43549939   0.108   5.126   3.629 -1.2337  0.5402 -0.8629
  113MOL   H43649940   0.163   4.897   3.554  1.0848  3.8233 -1.0052
  113MOL   H43749941   0.088   4.997   3.429 -0.4696  2.2268  0.8795
  113MOL   H43849942   0.006   4.777   3.401 -2.2275 -1.1143 -0.2737
  113MOL   H43949943   7.731   4.759   3.563 -1.9762  1.0973  1.4141
  113MOL   H44049944   7.386   5.003   3.206 -0.1749 -3.0512  0.1142
  113MOL   H44149945   7.360   4.965   3.370 -0.0266  0.7341  0.8009
  113MOL   H44249946   7.421   5.119   3.326 -3.1811 -0.9198  1.5507
   7.77218   7.77218   7.77218
