;
; Gromacs include topology (itp) file.
; For Molecular Group XYZ
; Force field scheme: opls2005
; Produced from DL_FIELD v4.11
;


[ moleculetype ]
; name    nrexcl
XYZ    3

[ atoms ]
; nr   type   resnr   residu    atom    cgnr    charge    mass
    1        CT    1  MOL      C1     1  -0.1800000   12.0115
    2        CT    1  MOL      C2     2   0.0100000   12.0115
    3         N    1  MOL      N3     3  -0.1400000   14.0067
    4       CYA    1  MOL      C4     4  -0.0500000   12.0115
    5       CYA    1  MOL      C5     5  -0.1200000   12.0115
    6       CYA    1  MOL      C6     6  -0.1200000   12.0115
    7         C    1  MOL      C7     7   0.5000000   12.0115
    8         O    1  MOL      O8     8  -0.5000000   15.9994
    9        HC    1  MOL      H9     9   0.0600000    1.0080
   10        HC    1  MOL     H10    10   0.0600000    1.0080
   11        HC    1  MOL     H11    11   0.0600000    1.0080
   12        HC    1  MOL     H12    12   0.0600000    1.0080
   13        HC    1  MOL     H13    13   0.0600000    1.0080
   14        HC    1  MOL     H14    14   0.0600000    1.0080
   15        HC    1  MOL     H15    15   0.0600000    1.0080
   16        HC    1  MOL     H16    16   0.0600000    1.0080
   17        HC    1  MOL     H17    17   0.0600000    1.0080
   18        HC    1  MOL     H18    18   0.0600000    1.0080
   19        CT    1  MOL     C19    19  -0.1200000   12.0115
   20        CT    1  MOL     C20    20   0.0100000   12.0115
   21         N    1  MOL     N21    21  -0.1400000   14.0067
   22       CYA    1  MOL     C22    22  -0.0500000   12.0115
   23       CYA    1  MOL     C23    23  -0.1200000   12.0115
   24       CYA    1  MOL     C24    24  -0.1200000   12.0115
   25         C    1  MOL     C25    25   0.5000000   12.0115
   26         O    1  MOL     O26    26  -0.5000000   15.9994
   27        HC    1  MOL     H27    27   0.0600000    1.0080
   28        HC    1  MOL     H28    28   0.0600000    1.0080
   29        HC    1  MOL     H29    29   0.0600000    1.0080
   30        HC    1  MOL     H30    30   0.0600000    1.0080
   31        HC    1  MOL     H31    31   0.0600000    1.0080
   32        HC    1  MOL     H32    32   0.0600000    1.0080
   33        HC    1  MOL     H33    33   0.0600000    1.0080
   34        HC    1  MOL     H34    34   0.0600000    1.0080
   35        HC    1  MOL     H35    35   0.0600000    1.0080
   36        CT    1  MOL     C36    36  -0.1200000   12.0115
   37        CT    1  MOL     C37    37   0.0100000   12.0115
   38         N    1  MOL     N38    38  -0.1400000   14.0067
   39       CYA    1  MOL     C39    39  -0.0500000   12.0115
   40       CYA    1  MOL     C40    40  -0.1200000   12.0115
   41       CYA    1  MOL     C41    41  -0.1200000   12.0115
   42         C    1  MOL     C42    42   0.5000000   12.0115
   43         O    1  MOL     O43    43  -0.5000000   15.9994
   44        HC    1  MOL     H44    44   0.0600000    1.0080
   45        HC    1  MOL     H45    45   0.0600000    1.0080
   46        HC    1  MOL     H46    46   0.0600000    1.0080
   47        HC    1  MOL     H47    47   0.0600000    1.0080
   48        HC    1  MOL     H48    48   0.0600000    1.0080
   49        HC    1  MOL     H49    49   0.0600000    1.0080
   50        HC    1  MOL     H50    50   0.0600000    1.0080
   51        HC    1  MOL     H51    51   0.0600000    1.0080
   52        HC    1  MOL     H52    52   0.0600000    1.0080
   53        CT    1  MOL     C53    53  -0.1200000   12.0115
   54        CT    1  MOL     C54    54   0.0100000   12.0115
   55         N    1  MOL     N55    55  -0.1400000   14.0067
   56       CYA    1  MOL     C56    56  -0.0500000   12.0115
   57       CYA    1  MOL     C57    57  -0.1200000   12.0115
   58       CYA    1  MOL     C58    58  -0.1200000   12.0115
   59         C    1  MOL     C59    59   0.5000000   12.0115
   60         O    1  MOL     O60    60  -0.5000000   15.9994
   61        HC    1  MOL     H61    61   0.0600000    1.0080
   62        HC    1  MOL     H62    62   0.0600000    1.0080
   63        HC    1  MOL     H63    63   0.0600000    1.0080
   64        HC    1  MOL     H64    64   0.0600000    1.0080
   65        HC    1  MOL     H65    65   0.0600000    1.0080
   66        HC    1  MOL     H66    66   0.0600000    1.0080
   67        HC    1  MOL     H67    67   0.0600000    1.0080
   68        HC    1  MOL     H68    68   0.0600000    1.0080
   69        HC    1  MOL     H69    69   0.0600000    1.0080
   70        CT    1  MOL     C70    70  -0.1200000   12.0115
   71        CT    1  MOL     C71    71   0.0100000   12.0115
   72         N    1  MOL     N72    72  -0.1400000   14.0067
   73       CYA    1  MOL     C73    73  -0.0500000   12.0115
   74       CYA    1  MOL     C74    74  -0.1200000   12.0115
   75       CYA    1  MOL     C75    75  -0.1200000   12.0115
   76         C    1  MOL     C76    76   0.5000000   12.0115
   77         O    1  MOL     O77    77  -0.5000000   15.9994
   78        HC    1  MOL     H78    78   0.0600000    1.0080
   79        HC    1  MOL     H79    79   0.0600000    1.0080
   80        HC    1  MOL     H80    80   0.0600000    1.0080
   81        HC    1  MOL     H81    81   0.0600000    1.0080
   82        HC    1  MOL     H82    82   0.0600000    1.0080
   83        HC    1  MOL     H83    83   0.0600000    1.0080
   84        HC    1  MOL     H84    84   0.0600000    1.0080
   85        HC    1  MOL     H85    85   0.0600000    1.0080
   86        HC    1  MOL     H86    86   0.0600000    1.0080
   87        CT    1  MOL     C87    87  -0.1200000   12.0115
   88        CT    1  MOL     C88    88   0.0100000   12.0115
   89         N    1  MOL     N89    89  -0.1400000   14.0067
   90       CYA    1  MOL     C90    90  -0.0500000   12.0115
   91       CYA    1  MOL     C91    91  -0.1200000   12.0115
   92       CYA    1  MOL     C92    92  -0.1200000   12.0115
   93         C    1  MOL     C93    93   0.5000000   12.0115
   94         O    1  MOL     O94    94  -0.5000000   15.9994
   95        HC    1  MOL     H95    95   0.0600000    1.0080
   96        HC    1  MOL     H96    96   0.0600000    1.0080
   97        HC    1  MOL     H97    97   0.0600000    1.0080
   98        HC    1  MOL     H98    98   0.0600000    1.0080
   99        HC    1  MOL     H99    99   0.0600000    1.0080
  100        HC    1  MOL    H100   100   0.0600000    1.0080
  101        HC    1  MOL    H101   101   0.0600000    1.0080
  102        HC    1  MOL    H102   102   0.0600000    1.0080
  103        HC    1  MOL    H103   103   0.0600000    1.0080
  104        CT    1  MOL    C104   104  -0.1200000   12.0115
  105        CT    1  MOL    C105   105   0.0100000   12.0115
  106         N    1  MOL    N106   106  -0.1400000   14.0067
  107       CYA    1  MOL    C107   107  -0.0500000   12.0115
  108       CYA    1  MOL    C108   108  -0.1200000   12.0115
  109       CYA    1  MOL    C109   109  -0.1200000   12.0115
  110         C    1  MOL    C110   110   0.5000000   12.0115
  111         O    1  MOL    O111   111  -0.5000000   15.9994
  112        HC    1  MOL    H112   112   0.0600000    1.0080
  113        HC    1  MOL    H113   113   0.0600000    1.0080
  114        HC    1  MOL    H114   114   0.0600000    1.0080
  115        HC    1  MOL    H115   115   0.0600000    1.0080
  116        HC    1  MOL    H116   116   0.0600000    1.0080
  117        HC    1  MOL    H117   117   0.0600000    1.0080
  118        HC    1  MOL    H118   118   0.0600000    1.0080
  119        HC    1  MOL    H119   119   0.0600000    1.0080
  120        HC    1  MOL    H120   120   0.0600000    1.0080
  121        CT    1  MOL    C121   121  -0.1200000   12.0115
  122        CT    1  MOL    C122   122   0.0100000   12.0115
  123         N    1  MOL    N123   123  -0.1400000   14.0067
  124       CYA    1  MOL    C124   124  -0.0500000   12.0115
  125       CYA    1  MOL    C125   125  -0.1200000   12.0115
  126       CYA    1  MOL    C126   126  -0.1200000   12.0115
  127         C    1  MOL    C127   127   0.5000000   12.0115
  128         O    1  MOL    O128   128  -0.5000000   15.9994
  129        HC    1  MOL    H129   129   0.0600000    1.0080
  130        HC    1  MOL    H130   130   0.0600000    1.0080
  131        HC    1  MOL    H131   131   0.0600000    1.0080
  132        HC    1  MOL    H132   132   0.0600000    1.0080
  133        HC    1  MOL    H133   133   0.0600000    1.0080
  134        HC    1  MOL    H134   134   0.0600000    1.0080
  135        HC    1  MOL    H135   135   0.0600000    1.0080
  136        HC    1  MOL    H136   136   0.0600000    1.0080
  137        HC    1  MOL    H137   137   0.0600000    1.0080
  138        CT    1  MOL    C138   138  -0.1200000   12.0115
  139        CT    1  MOL    C139   139   0.0100000   12.0115
  140         N    1  MOL    N140   140  -0.1400000   14.0067
  141       CYA    1  MOL    C141   141  -0.0500000   12.0115
  142       CYA    1  MOL    C142   142  -0.1200000   12.0115
  143       CYA    1  MOL    C143   143  -0.1200000   12.0115
  144         C    1  MOL    C144   144   0.5000000   12.0115
  145         O    1  MOL    O145   145  -0.5000000   15.9994
  146        HC    1  MOL    H146   146   0.0600000    1.0080
  147        HC    1  MOL    H147   147   0.0600000    1.0080
  148        HC    1  MOL    H148   148   0.0600000    1.0080
  149        HC    1  MOL    H149   149   0.0600000    1.0080
  150        HC    1  MOL    H150   150   0.0600000    1.0080
  151        HC    1  MOL    H151   151   0.0600000    1.0080
  152        HC    1  MOL    H152   152   0.0600000    1.0080
  153        HC    1  MOL    H153   153   0.0600000    1.0080
  154        HC    1  MOL    H154   154   0.0600000    1.0080
  155        CT    1  MOL    C155   155  -0.1200000   12.0115
  156        CT    1  MOL    C156   156   0.0100000   12.0115
  157         N    1  MOL    N157   157  -0.1400000   14.0067
  158       CYA    1  MOL    C158   158  -0.0500000   12.0115
  159       CYA    1  MOL    C159   159  -0.1200000   12.0115
  160       CYA    1  MOL    C160   160  -0.1200000   12.0115
  161         C    1  MOL    C161   161   0.5000000   12.0115
  162         O    1  MOL    O162   162  -0.5000000   15.9994
  163        HC    1  MOL    H163   163   0.0600000    1.0080
  164        HC    1  MOL    H164   164   0.0600000    1.0080
  165        HC    1  MOL    H165   165   0.0600000    1.0080
  166        HC    1  MOL    H166   166   0.0600000    1.0080
  167        HC    1  MOL    H167   167   0.0600000    1.0080
  168        HC    1  MOL    H168   168   0.0600000    1.0080
  169        HC    1  MOL    H169   169   0.0600000    1.0080
  170        HC    1  MOL    H170   170   0.0600000    1.0080
  171        HC    1  MOL    H171   171   0.0600000    1.0080
  172        CT    1  MOL    C172   172  -0.1200000   12.0115
  173        CT    1  MOL    C173   173   0.0100000   12.0115
  174         N    1  MOL    N174   174  -0.1400000   14.0067
  175       CYA    1  MOL    C175   175  -0.0500000   12.0115
  176       CYA    1  MOL    C176   176  -0.1200000   12.0115
  177       CYA    1  MOL    C177   177  -0.1200000   12.0115
  178         C    1  MOL    C178   178   0.5000000   12.0115
  179         O    1  MOL    O179   179  -0.5000000   15.9994
  180        HC    1  MOL    H180   180   0.0600000    1.0080
  181        HC    1  MOL    H181   181   0.0600000    1.0080
  182        HC    1  MOL    H182   182   0.0600000    1.0080
  183        HC    1  MOL    H183   183   0.0600000    1.0080
  184        HC    1  MOL    H184   184   0.0600000    1.0080
  185        HC    1  MOL    H185   185   0.0600000    1.0080
  186        HC    1  MOL    H186   186   0.0600000    1.0080
  187        HC    1  MOL    H187   187   0.0600000    1.0080
  188        HC    1  MOL    H188   188   0.0600000    1.0080
  189        CT    1  MOL    C189   189  -0.1200000   12.0115
  190        CT    1  MOL    C190   190   0.0100000   12.0115
  191         N    1  MOL    N191   191  -0.1400000   14.0067
  192       CYA    1  MOL    C192   192  -0.0500000   12.0115
  193       CYA    1  MOL    C193   193  -0.1200000   12.0115
  194       CYA    1  MOL    C194   194  -0.1200000   12.0115
  195         C    1  MOL    C195   195   0.5000000   12.0115
  196         O    1  MOL    O196   196  -0.5000000   15.9994
  197        HC    1  MOL    H197   197   0.0600000    1.0080
  198        HC    1  MOL    H198   198   0.0600000    1.0080
  199        HC    1  MOL    H199   199   0.0600000    1.0080
  200        HC    1  MOL    H200   200   0.0600000    1.0080
  201        HC    1  MOL    H201   201   0.0600000    1.0080
  202        HC    1  MOL    H202   202   0.0600000    1.0080
  203        HC    1  MOL    H203   203   0.0600000    1.0080
  204        HC    1  MOL    H204   204   0.0600000    1.0080
  205        HC    1  MOL    H205   205   0.0600000    1.0080
  206        CT    1  MOL    C206   206  -0.1200000   12.0115
  207        CT    1  MOL    C207   207   0.0100000   12.0115
  208         N    1  MOL    N208   208  -0.1400000   14.0067
  209       CYA    1  MOL    C209   209  -0.0500000   12.0115
  210       CYA    1  MOL    C210   210  -0.1200000   12.0115
  211       CYA    1  MOL    C211   211  -0.1200000   12.0115
  212         C    1  MOL    C212   212   0.5000000   12.0115
  213         O    1  MOL    O213   213  -0.5000000   15.9994
  214        HC    1  MOL    H214   214   0.0600000    1.0080
  215        HC    1  MOL    H215   215   0.0600000    1.0080
  216        HC    1  MOL    H216   216   0.0600000    1.0080
  217        HC    1  MOL    H217   217   0.0600000    1.0080
  218        HC    1  MOL    H218   218   0.0600000    1.0080
  219        HC    1  MOL    H219   219   0.0600000    1.0080
  220        HC    1  MOL    H220   220   0.0600000    1.0080
  221        HC    1  MOL    H221   221   0.0600000    1.0080
  222        HC    1  MOL    H222   222   0.0600000    1.0080
  223        CT    1  MOL    C223   223  -0.1200000   12.0115
  224        CT    1  MOL    C224   224   0.0100000   12.0115
  225         N    1  MOL    N225   225  -0.1400000   14.0067
  226       CYA    1  MOL    C226   226  -0.0500000   12.0115
  227       CYA    1  MOL    C227   227  -0.1200000   12.0115
  228       CYA    1  MOL    C228   228  -0.1200000   12.0115
  229         C    1  MOL    C229   229   0.5000000   12.0115
  230         O    1  MOL    O230   230  -0.5000000   15.9994
  231        HC    1  MOL    H231   231   0.0600000    1.0080
  232        HC    1  MOL    H232   232   0.0600000    1.0080
  233        HC    1  MOL    H233   233   0.0600000    1.0080
  234        HC    1  MOL    H234   234   0.0600000    1.0080
  235        HC    1  MOL    H235   235   0.0600000    1.0080
  236        HC    1  MOL    H236   236   0.0600000    1.0080
  237        HC    1  MOL    H237   237   0.0600000    1.0080
  238        HC    1  MOL    H238   238   0.0600000    1.0080
  239        HC    1  MOL    H239   239   0.0600000    1.0080
  240        CT    1  MOL    C240   240  -0.1200000   12.0115
  241        CT    1  MOL    C241   241   0.0100000   12.0115
  242         N    1  MOL    N242   242  -0.1400000   14.0067
  243       CYA    1  MOL    C243   243  -0.0500000   12.0115
  244       CYA    1  MOL    C244   244  -0.1200000   12.0115
  245       CYA    1  MOL    C245   245  -0.1200000   12.0115
  246         C    1  MOL    C246   246   0.5000000   12.0115
  247         O    1  MOL    O247   247  -0.5000000   15.9994
  248        HC    1  MOL    H248   248   0.0600000    1.0080
  249        HC    1  MOL    H249   249   0.0600000    1.0080
  250        HC    1  MOL    H250   250   0.0600000    1.0080
  251        HC    1  MOL    H251   251   0.0600000    1.0080
  252        HC    1  MOL    H252   252   0.0600000    1.0080
  253        HC    1  MOL    H253   253   0.0600000    1.0080
  254        HC    1  MOL    H254   254   0.0600000    1.0080
  255        HC    1  MOL    H255   255   0.0600000    1.0080
  256        HC    1  MOL    H256   256   0.0600000    1.0080
  257        CT    1  MOL    C257   257  -0.1200000   12.0115
  258        CT    1  MOL    C258   258   0.0100000   12.0115
  259         N    1  MOL    N259   259  -0.1400000   14.0067
  260       CYA    1  MOL    C260   260  -0.0500000   12.0115
  261       CYA    1  MOL    C261   261  -0.1200000   12.0115
  262       CYA    1  MOL    C262   262  -0.1200000   12.0115
  263         C    1  MOL    C263   263   0.5000000   12.0115
  264         O    1  MOL    O264   264  -0.5000000   15.9994
  265        HC    1  MOL    H265   265   0.0600000    1.0080
  266        HC    1  MOL    H266   266   0.0600000    1.0080
  267        HC    1  MOL    H267   267   0.0600000    1.0080
  268        HC    1  MOL    H268   268   0.0600000    1.0080
  269        HC    1  MOL    H269   269   0.0600000    1.0080
  270        HC    1  MOL    H270   270   0.0600000    1.0080
  271        HC    1  MOL    H271   271   0.0600000    1.0080
  272        HC    1  MOL    H272   272   0.0600000    1.0080
  273        HC    1  MOL    H273   273   0.0600000    1.0080
  274        CT    1  MOL    C274   274  -0.1200000   12.0115
  275        CT    1  MOL    C275   275   0.0100000   12.0115
  276         N    1  MOL    N276   276  -0.1400000   14.0067
  277       CYA    1  MOL    C277   277  -0.0500000   12.0115
  278       CYA    1  MOL    C278   278  -0.1200000   12.0115
  279       CYA    1  MOL    C279   279  -0.1200000   12.0115
  280         C    1  MOL    C280   280   0.5000000   12.0115
  281         O    1  MOL    O281   281  -0.5000000   15.9994
  282        HC    1  MOL    H282   282   0.0600000    1.0080
  283        HC    1  MOL    H283   283   0.0600000    1.0080
  284        HC    1  MOL    H284   284   0.0600000    1.0080
  285        HC    1  MOL    H285   285   0.0600000    1.0080
  286        HC    1  MOL    H286   286   0.0600000    1.0080
  287        HC    1  MOL    H287   287   0.0600000    1.0080
  288        HC    1  MOL    H288   288   0.0600000    1.0080
  289        HC    1  MOL    H289   289   0.0600000    1.0080
  290        HC    1  MOL    H290   290   0.0600000    1.0080
  291        CT    1  MOL    C291   291  -0.1200000   12.0115
  292        CT    1  MOL    C292   292   0.0100000   12.0115
  293         N    1  MOL    N293   293  -0.1400000   14.0067
  294       CYA    1  MOL    C294   294  -0.0500000   12.0115
  295       CYA    1  MOL    C295   295  -0.1200000   12.0115
  296       CYA    1  MOL    C296   296  -0.1200000   12.0115
  297         C    1  MOL    C297   297   0.5000000   12.0115
  298         O    1  MOL    O298   298  -0.5000000   15.9994
  299        HC    1  MOL    H299   299   0.0600000    1.0080
  300        HC    1  MOL    H300   300   0.0600000    1.0080
  301        HC    1  MOL    H301   301   0.0600000    1.0080
  302        HC    1  MOL    H302   302   0.0600000    1.0080
  303        HC    1  MOL    H303   303   0.0600000    1.0080
  304        HC    1  MOL    H304   304   0.0600000    1.0080
  305        HC    1  MOL    H305   305   0.0600000    1.0080
  306        HC    1  MOL    H306   306   0.0600000    1.0080
  307        HC    1  MOL    H307   307   0.0600000    1.0080
  308        CT    1  MOL    C308   308  -0.1200000   12.0115
  309        CT    1  MOL    C309   309   0.0100000   12.0115
  310         N    1  MOL    N310   310  -0.1400000   14.0067
  311       CYA    1  MOL    C311   311  -0.0500000   12.0115
  312       CYA    1  MOL    C312   312  -0.1200000   12.0115
  313       CYA    1  MOL    C313   313  -0.1200000   12.0115
  314         C    1  MOL    C314   314   0.5000000   12.0115
  315         O    1  MOL    O315   315  -0.5000000   15.9994
  316        HC    1  MOL    H316   316   0.0600000    1.0080
  317        HC    1  MOL    H317   317   0.0600000    1.0080
  318        HC    1  MOL    H318   318   0.0600000    1.0080
  319        HC    1  MOL    H319   319   0.0600000    1.0080
  320        HC    1  MOL    H320   320   0.0600000    1.0080
  321        HC    1  MOL    H321   321   0.0600000    1.0080
  322        HC    1  MOL    H322   322   0.0600000    1.0080
  323        HC    1  MOL    H323   323   0.0600000    1.0080
  324        HC    1  MOL    H324   324   0.0600000    1.0080
  325        CT    1  MOL    C325   325  -0.1200000   12.0115
  326        CT    1  MOL    C326   326  -0.0500000   12.0115
  327         N    1  MOL    N327   327  -0.1400000   14.0067
  328       CYA    1  MOL    C328   328  -0.0500000   12.0115
  329       CYA    1  MOL    C329   329  -0.1200000   12.0115
  330       CYA    1  MOL    C330   330  -0.1200000   12.0115
  331         C    1  MOL    C331   331   0.5000000   12.0115
  332         O    1  MOL    O332   332  -0.5000000   15.9994
  333        HC    1  MOL    H333   333   0.0600000    1.0080
  334        HC    1  MOL    H334   334   0.0600000    1.0080
  335        HC    1  MOL    H335   335   0.0600000    1.0080
  336        HC    1  MOL    H336   336   0.0600000    1.0080
  337        HC    1  MOL    H337   337   0.0600000    1.0080
  338        HC    1  MOL    H338   338   0.0600000    1.0080
  339        HC    1  MOL    H339   339   0.0600000    1.0080
  340        HC    1  MOL    H340   340   0.0600000    1.0080
  341        HC    1  MOL    H341   341   0.0600000    1.0080
  342        HC    1  MOL    H342   342   0.0600000    1.0080

[ bonds ]
      1      2   1      0.1529 224262.4000
      1      9   1      0.1090 284512.0000
      1     10   1      0.1090 284512.0000
      1     18   1      0.1090 284512.0000
      2      3   1      0.1449 282001.6000
      2     11   1      0.1090 284512.0000
      2     19   1      0.1529 224262.4000
      3      4   1      0.1449 282001.6000
      3      7   1      0.1335 410032.0000
      4      5   1      0.1529 224262.4000
      4     12   1      0.1090 284512.0000
      4     13   1      0.1090 284512.0000
      5      6   1      0.1529 224262.4000
      5     14   1      0.1090 284512.0000
      5     15   1      0.1090 284512.0000
      6      7   1      0.1522 265265.6000
      6     16   1      0.1090 284512.0000
      6     17   1      0.1090 284512.0000
      7      8   1      0.1229 476976.0000
     19     20   1      0.1529 224262.4000
     19     27   1      0.1090 284512.0000
     19     28   1      0.1090 284512.0000
     20     21   1      0.1449 282001.6000
     20     29   1      0.1090 284512.0000
     20     36   1      0.1529 224262.4000
     21     22   1      0.1449 282001.6000
     21     25   1      0.1335 410032.0000
     22     23   1      0.1529 224262.4000
     22     30   1      0.1090 284512.0000
     22     31   1      0.1090 284512.0000
     23     24   1      0.1529 224262.4000
     23     32   1      0.1090 284512.0000
     23     33   1      0.1090 284512.0000
     24     25   1      0.1522 265265.6000
     24     34   1      0.1090 284512.0000
     24     35   1      0.1090 284512.0000
     25     26   1      0.1229 476976.0000
     36     37   1      0.1529 224262.4000
     36     44   1      0.1090 284512.0000
     36     45   1      0.1090 284512.0000
     37     38   1      0.1449 282001.6000
     37     46   1      0.1090 284512.0000
     37     53   1      0.1529 224262.4000
     38     39   1      0.1449 282001.6000
     38     42   1      0.1335 410032.0000
     39     40   1      0.1529 224262.4000
     39     47   1      0.1090 284512.0000
     39     48   1      0.1090 284512.0000
     40     41   1      0.1529 224262.4000
     40     49   1      0.1090 284512.0000
     40     50   1      0.1090 284512.0000
     41     42   1      0.1522 265265.6000
     41     51   1      0.1090 284512.0000
     41     52   1      0.1090 284512.0000
     42     43   1      0.1229 476976.0000
     53     54   1      0.1529 224262.4000
     53     61   1      0.1090 284512.0000
     53     62   1      0.1090 284512.0000
     54     55   1      0.1449 282001.6000
     54     63   1      0.1090 284512.0000
     54     70   1      0.1529 224262.4000
     55     56   1      0.1449 282001.6000
     55     59   1      0.1335 410032.0000
     56     57   1      0.1529 224262.4000
     56     64   1      0.1090 284512.0000
     56     65   1      0.1090 284512.0000
     57     58   1      0.1529 224262.4000
     57     66   1      0.1090 284512.0000
     57     67   1      0.1090 284512.0000
     58     59   1      0.1522 265265.6000
     58     68   1      0.1090 284512.0000
     58     69   1      0.1090 284512.0000
     59     60   1      0.1229 476976.0000
     70     71   1      0.1529 224262.4000
     70     78   1      0.1090 284512.0000
     70     79   1      0.1090 284512.0000
     71     72   1      0.1449 282001.6000
     71     80   1      0.1090 284512.0000
     71     87   1      0.1529 224262.4000
     72     73   1      0.1449 282001.6000
     72     76   1      0.1335 410032.0000
     73     74   1      0.1529 224262.4000
     73     81   1      0.1090 284512.0000
     73     82   1      0.1090 284512.0000
     74     75   1      0.1529 224262.4000
     74     83   1      0.1090 284512.0000
     74     84   1      0.1090 284512.0000
     75     76   1      0.1522 265265.6000
     75     85   1      0.1090 284512.0000
     75     86   1      0.1090 284512.0000
     76     77   1      0.1229 476976.0000
     87     88   1      0.1529 224262.4000
     87     95   1      0.1090 284512.0000
     87     96   1      0.1090 284512.0000
     88     89   1      0.1449 282001.6000
     88     97   1      0.1090 284512.0000
     88    104   1      0.1529 224262.4000
     89     90   1      0.1449 282001.6000
     89     93   1      0.1335 410032.0000
     90     91   1      0.1529 224262.4000
     90     98   1      0.1090 284512.0000
     90     99   1      0.1090 284512.0000
     91     92   1      0.1529 224262.4000
     91    100   1      0.1090 284512.0000
     91    101   1      0.1090 284512.0000
     92     93   1      0.1522 265265.6000
     92    102   1      0.1090 284512.0000
     92    103   1      0.1090 284512.0000
     93     94   1      0.1229 476976.0000
    104    105   1      0.1529 224262.4000
    104    112   1      0.1090 284512.0000
    104    113   1      0.1090 284512.0000
    105    106   1      0.1449 282001.6000
    105    114   1      0.1090 284512.0000
    105    121   1      0.1529 224262.4000
    106    107   1      0.1449 282001.6000
    106    110   1      0.1335 410032.0000
    107    108   1      0.1529 224262.4000
    107    115   1      0.1090 284512.0000
    107    116   1      0.1090 284512.0000
    108    109   1      0.1529 224262.4000
    108    117   1      0.1090 284512.0000
    108    118   1      0.1090 284512.0000
    109    110   1      0.1522 265265.6000
    109    119   1      0.1090 284512.0000
    109    120   1      0.1090 284512.0000
    110    111   1      0.1229 476976.0000
    121    122   1      0.1529 224262.4000
    121    129   1      0.1090 284512.0000
    121    130   1      0.1090 284512.0000
    122    123   1      0.1449 282001.6000
    122    131   1      0.1090 284512.0000
    122    138   1      0.1529 224262.4000
    123    124   1      0.1449 282001.6000
    123    127   1      0.1335 410032.0000
    124    125   1      0.1529 224262.4000
    124    132   1      0.1090 284512.0000
    124    133   1      0.1090 284512.0000
    125    126   1      0.1529 224262.4000
    125    134   1      0.1090 284512.0000
    125    135   1      0.1090 284512.0000
    126    127   1      0.1522 265265.6000
    126    136   1      0.1090 284512.0000
    126    137   1      0.1090 284512.0000
    127    128   1      0.1229 476976.0000
    138    139   1      0.1529 224262.4000
    138    146   1      0.1090 284512.0000
    138    147   1      0.1090 284512.0000
    139    140   1      0.1449 282001.6000
    139    148   1      0.1090 284512.0000
    139    155   1      0.1529 224262.4000
    140    141   1      0.1449 282001.6000
    140    144   1      0.1335 410032.0000
    141    142   1      0.1529 224262.4000
    141    149   1      0.1090 284512.0000
    141    150   1      0.1090 284512.0000
    142    143   1      0.1529 224262.4000
    142    151   1      0.1090 284512.0000
    142    152   1      0.1090 284512.0000
    143    144   1      0.1522 265265.6000
    143    153   1      0.1090 284512.0000
    143    154   1      0.1090 284512.0000
    144    145   1      0.1229 476976.0000
    155    156   1      0.1529 224262.4000
    155    163   1      0.1090 284512.0000
    155    164   1      0.1090 284512.0000
    156    157   1      0.1449 282001.6000
    156    165   1      0.1090 284512.0000
    156    172   1      0.1529 224262.4000
    157    158   1      0.1449 282001.6000
    157    161   1      0.1335 410032.0000
    158    159   1      0.1529 224262.4000
    158    166   1      0.1090 284512.0000
    158    167   1      0.1090 284512.0000
    159    160   1      0.1529 224262.4000
    159    168   1      0.1090 284512.0000
    159    169   1      0.1090 284512.0000
    160    161   1      0.1522 265265.6000
    160    170   1      0.1090 284512.0000
    160    171   1      0.1090 284512.0000
    161    162   1      0.1229 476976.0000
    172    173   1      0.1529 224262.4000
    172    180   1      0.1090 284512.0000
    172    181   1      0.1090 284512.0000
    173    174   1      0.1449 282001.6000
    173    182   1      0.1090 284512.0000
    173    189   1      0.1529 224262.4000
    174    175   1      0.1449 282001.6000
    174    178   1      0.1335 410032.0000
    175    176   1      0.1529 224262.4000
    175    183   1      0.1090 284512.0000
    175    184   1      0.1090 284512.0000
    176    177   1      0.1529 224262.4000
    176    185   1      0.1090 284512.0000
    176    186   1      0.1090 284512.0000
    177    178   1      0.1522 265265.6000
    177    187   1      0.1090 284512.0000
    177    188   1      0.1090 284512.0000
    178    179   1      0.1229 476976.0000
    189    190   1      0.1529 224262.4000
    189    197   1      0.1090 284512.0000
    189    198   1      0.1090 284512.0000
    190    191   1      0.1449 282001.6000
    190    199   1      0.1090 284512.0000
    190    206   1      0.1529 224262.4000
    191    192   1      0.1449 282001.6000
    191    195   1      0.1335 410032.0000
    192    193   1      0.1529 224262.4000
    192    200   1      0.1090 284512.0000
    192    201   1      0.1090 284512.0000
    193    194   1      0.1529 224262.4000
    193    202   1      0.1090 284512.0000
    193    203   1      0.1090 284512.0000
    194    195   1      0.1522 265265.6000
    194    204   1      0.1090 284512.0000
    194    205   1      0.1090 284512.0000
    195    196   1      0.1229 476976.0000
    206    207   1      0.1529 224262.4000
    206    214   1      0.1090 284512.0000
    206    215   1      0.1090 284512.0000
    207    208   1      0.1449 282001.6000
    207    216   1      0.1090 284512.0000
    207    223   1      0.1529 224262.4000
    208    209   1      0.1449 282001.6000
    208    212   1      0.1335 410032.0000
    209    210   1      0.1529 224262.4000
    209    217   1      0.1090 284512.0000
    209    218   1      0.1090 284512.0000
    210    211   1      0.1529 224262.4000
    210    219   1      0.1090 284512.0000
    210    220   1      0.1090 284512.0000
    211    212   1      0.1522 265265.6000
    211    221   1      0.1090 284512.0000
    211    222   1      0.1090 284512.0000
    212    213   1      0.1229 476976.0000
    223    224   1      0.1529 224262.4000
    223    231   1      0.1090 284512.0000
    223    232   1      0.1090 284512.0000
    224    225   1      0.1449 282001.6000
    224    233   1      0.1090 284512.0000
    224    240   1      0.1529 224262.4000
    225    226   1      0.1449 282001.6000
    225    229   1      0.1335 410032.0000
    226    227   1      0.1529 224262.4000
    226    234   1      0.1090 284512.0000
    226    235   1      0.1090 284512.0000
    227    228   1      0.1529 224262.4000
    227    236   1      0.1090 284512.0000
    227    237   1      0.1090 284512.0000
    228    229   1      0.1522 265265.6000
    228    238   1      0.1090 284512.0000
    228    239   1      0.1090 284512.0000
    229    230   1      0.1229 476976.0000
    240    241   1      0.1529 224262.4000
    240    248   1      0.1090 284512.0000
    240    249   1      0.1090 284512.0000
    241    242   1      0.1449 282001.6000
    241    250   1      0.1090 284512.0000
    241    257   1      0.1529 224262.4000
    242    243   1      0.1449 282001.6000
    242    246   1      0.1335 410032.0000
    243    244   1      0.1529 224262.4000
    243    251   1      0.1090 284512.0000
    243    252   1      0.1090 284512.0000
    244    245   1      0.1529 224262.4000
    244    253   1      0.1090 284512.0000
    244    254   1      0.1090 284512.0000
    245    246   1      0.1522 265265.6000
    245    255   1      0.1090 284512.0000
    245    256   1      0.1090 284512.0000
    246    247   1      0.1229 476976.0000
    257    258   1      0.1529 224262.4000
    257    265   1      0.1090 284512.0000
    257    266   1      0.1090 284512.0000
    258    259   1      0.1449 282001.6000
    258    267   1      0.1090 284512.0000
    258    274   1      0.1529 224262.4000
    259    260   1      0.1449 282001.6000
    259    263   1      0.1335 410032.0000
    260    261   1      0.1529 224262.4000
    260    268   1      0.1090 284512.0000
    260    269   1      0.1090 284512.0000
    261    262   1      0.1529 224262.4000
    261    270   1      0.1090 284512.0000
    261    271   1      0.1090 284512.0000
    262    263   1      0.1522 265265.6000
    262    272   1      0.1090 284512.0000
    262    273   1      0.1090 284512.0000
    263    264   1      0.1229 476976.0000
    274    275   1      0.1529 224262.4000
    274    282   1      0.1090 284512.0000
    274    283   1      0.1090 284512.0000
    275    276   1      0.1449 282001.6000
    275    284   1      0.1090 284512.0000
    275    291   1      0.1529 224262.4000
    276    277   1      0.1449 282001.6000
    276    280   1      0.1335 410032.0000
    277    278   1      0.1529 224262.4000
    277    285   1      0.1090 284512.0000
    277    286   1      0.1090 284512.0000
    278    279   1      0.1529 224262.4000
    278    287   1      0.1090 284512.0000
    278    288   1      0.1090 284512.0000
    279    280   1      0.1522 265265.6000
    279    289   1      0.1090 284512.0000
    279    290   1      0.1090 284512.0000
    280    281   1      0.1229 476976.0000
    291    292   1      0.1529 224262.4000
    291    299   1      0.1090 284512.0000
    291    300   1      0.1090 284512.0000
    292    293   1      0.1449 282001.6000
    292    301   1      0.1090 284512.0000
    292    308   1      0.1529 224262.4000
    293    294   1      0.1449 282001.6000
    293    297   1      0.1335 410032.0000
    294    295   1      0.1529 224262.4000
    294    302   1      0.1090 284512.0000
    294    303   1      0.1090 284512.0000
    295    296   1      0.1529 224262.4000
    295    304   1      0.1090 284512.0000
    295    305   1      0.1090 284512.0000
    296    297   1      0.1522 265265.6000
    296    306   1      0.1090 284512.0000
    296    307   1      0.1090 284512.0000
    297    298   1      0.1229 476976.0000
    308    309   1      0.1529 224262.4000
    308    316   1      0.1090 284512.0000
    308    317   1      0.1090 284512.0000
    309    310   1      0.1449 282001.6000
    309    318   1      0.1090 284512.0000
    309    325   1      0.1529 224262.4000
    310    311   1      0.1449 282001.6000
    310    314   1      0.1335 410032.0000
    311    312   1      0.1529 224262.4000
    311    319   1      0.1090 284512.0000
    311    320   1      0.1090 284512.0000
    312    313   1      0.1529 224262.4000
    312    321   1      0.1090 284512.0000
    312    322   1      0.1090 284512.0000
    313    314   1      0.1522 265265.6000
    313    323   1      0.1090 284512.0000
    313    324   1      0.1090 284512.0000
    314    315   1      0.1229 476976.0000
    325    326   1      0.1529 224262.4000
    325    333   1      0.1090 284512.0000
    325    334   1      0.1090 284512.0000
    326    327   1      0.1449 282001.6000
    326    335   1      0.1090 284512.0000
    326    342   1      0.1090 284512.0000
    327    328   1      0.1449 282001.6000
    327    331   1      0.1335 410032.0000
    328    329   1      0.1529 224262.4000
    328    336   1      0.1090 284512.0000
    328    337   1      0.1090 284512.0000
    329    330   1      0.1529 224262.4000
    329    338   1      0.1090 284512.0000
    329    339   1      0.1090 284512.0000
    330    331   1      0.1522 265265.6000
    330    340   1      0.1090 284512.0000
    330    341   1      0.1090 284512.0000
    331    332   1      0.1229 476976.0000

[ pairs ]
; ai   aj   funct   fudge_QQ  charge_i   charge_j   c6    c12
      9      3   2   0.50000     0.0600000   -0.1400000   3.205360e-04  1.719281e-07
      9     11   2   0.50000     0.0600000    0.0600000   6.128906e-05  1.496315e-08
      9     19   2   0.50000     0.0600000   -0.1200000   2.494471e-04  1.671101e-07
     10      3   2   0.50000     0.0600000   -0.1400000   3.205360e-04  1.719281e-07
     10     11   2   0.50000     0.0600000    0.0600000   6.128906e-05  1.496315e-08
     10     19   2   0.50000     0.0600000   -0.1200000   2.494471e-04  1.671101e-07
     18      3   2   0.50000     0.0600000   -0.1400000   3.205360e-04  1.719281e-07
     18     11   2   0.50000     0.0600000    0.0600000   6.128906e-05  1.496315e-08
     18     19   2   0.50000     0.0600000   -0.1200000   2.494471e-04  1.671101e-07
      1      4   2   0.50000    -0.1800000   -0.0500000   1.015252e-03  1.866303e-06
      1      7   2   0.50000    -0.1800000    0.5000000   1.575021e-03  3.561100e-06
     11      4   2   0.50000     0.0600000   -0.0500000   2.494471e-04  1.671101e-07
     11      7   2   0.50000     0.0600000    0.5000000   3.869820e-04  3.188634e-07
     19      4   2   0.50000    -0.1200000   -0.0500000   1.015252e-03  1.866303e-06
     19      7   2   0.50000    -0.1200000    0.5000000   1.575021e-03  3.561100e-06
      1     20   2   0.50000    -0.1800000    0.0100000   1.015252e-03  1.866303e-06
      1     27   2   0.50000    -0.1800000    0.0600000   2.494471e-04  1.671101e-07
      1     28   2   0.50000    -0.1800000    0.0600000   2.494471e-04  1.671101e-07
      3     20   2   0.50000    -0.1400000    0.0100000   1.304585e-03  1.920112e-06
      3     27   2   0.50000    -0.1400000    0.0600000   3.205360e-04  1.719281e-07
      3     28   2   0.50000    -0.1400000    0.0600000   3.205360e-04  1.719281e-07
     11     20   2   0.50000     0.0600000    0.0100000   2.494471e-04  1.671101e-07
     11     27   2   0.50000     0.0600000    0.0600000   6.128906e-05  1.496315e-08
     11     28   2   0.50000     0.0600000    0.0600000   6.128906e-05  1.496315e-08
      2      5   2   0.50000     0.0100000   -0.1200000   1.015252e-03  1.866303e-06
      2     12   2   0.50000     0.0100000    0.0600000   2.494471e-04  1.671101e-07
      2     13   2   0.50000     0.0100000    0.0600000   2.494471e-04  1.671101e-07
      7     12   2   0.50000     0.5000000    0.0600000   3.869820e-04  3.188634e-07
      7     13   2   0.50000     0.5000000    0.0600000   3.869820e-04  3.188634e-07
      2      6   2   0.50000     0.0100000   -0.1200000   1.015252e-03  1.866303e-06
      2      8   2   0.50000     0.0100000   -0.5000000   1.095425e-03  1.218041e-06
      4      8   2   0.50000    -0.0500000   -0.5000000   1.095425e-03  1.218041e-06
      3     14   2   0.50000    -0.1400000    0.0600000   3.205360e-04  1.719281e-07
      3     15   2   0.50000    -0.1400000    0.0600000   3.205360e-04  1.719281e-07
     12      6   2   0.50000     0.0600000   -0.1200000   2.494471e-04  1.671101e-07
     12     14   2   0.50000     0.0600000    0.0600000   6.128906e-05  1.496315e-08
     12     15   2   0.50000     0.0600000    0.0600000   6.128906e-05  1.496315e-08
     13      6   2   0.50000     0.0600000   -0.1200000   2.494471e-04  1.671101e-07
     13     14   2   0.50000     0.0600000    0.0600000   6.128906e-05  1.496315e-08
     13     15   2   0.50000     0.0600000    0.0600000   6.128906e-05  1.496315e-08
      4     16   2   0.50000    -0.0500000    0.0600000   2.494471e-04  1.671101e-07
      4     17   2   0.50000    -0.0500000    0.0600000   2.494471e-04  1.671101e-07
     14      7   2   0.50000     0.0600000    0.5000000   3.869820e-04  3.188634e-07
     14     16   2   0.50000     0.0600000    0.0600000   6.128906e-05  1.496315e-08
     14     17   2   0.50000     0.0600000    0.0600000   6.128906e-05  1.496315e-08
     15      7   2   0.50000     0.0600000    0.5000000   3.869820e-04  3.188634e-07
     15     16   2   0.50000     0.0600000    0.0600000   6.128906e-05  1.496315e-08
     15     17   2   0.50000     0.0600000    0.0600000   6.128906e-05  1.496315e-08
      5      8   2   0.50000    -0.1200000   -0.5000000   1.095425e-03  1.218041e-06
     16      3   2   0.50000     0.0600000   -0.1400000   3.205360e-04  1.719281e-07
     16      8   2   0.50000     0.0600000   -0.5000000   2.691455e-04  1.090642e-07
     17      3   2   0.50000     0.0600000   -0.1400000   3.205360e-04  1.719281e-07
     17      8   2   0.50000     0.0600000   -0.5000000   2.691455e-04  1.090642e-07
      2     21   2   0.50000     0.0100000   -0.1400000   1.304585e-03  1.920112e-06
      2     29   2   0.50000     0.0100000    0.0600000   2.494471e-04  1.671101e-07
      2     36   2   0.50000     0.0100000   -0.1200000   1.015252e-03  1.866303e-06
     27     21   2   0.50000     0.0600000   -0.1400000   3.205360e-04  1.719281e-07
     27     29   2   0.50000     0.0600000    0.0600000   6.128906e-05  1.496315e-08
     27     36   2   0.50000     0.0600000   -0.1200000   2.494471e-04  1.671101e-07
     28     21   2   0.50000     0.0600000   -0.1400000   3.205360e-04  1.719281e-07
     28     29   2   0.50000     0.0600000    0.0600000   6.128906e-05  1.496315e-08
     28     36   2   0.50000     0.0600000   -0.1200000   2.494471e-04  1.671101e-07
     19     22   2   0.50000    -0.1200000   -0.0500000   1.015252e-03  1.866303e-06
     19     25   2   0.50000    -0.1200000    0.5000000   1.575021e-03  3.561100e-06
     29     22   2   0.50000     0.0600000   -0.0500000   2.494471e-04  1.671101e-07
     29     25   2   0.50000     0.0600000    0.5000000   3.869820e-04  3.188634e-07
     36     22   2   0.50000    -0.1200000   -0.0500000   1.015252e-03  1.866303e-06
     36     25   2   0.50000    -0.1200000    0.5000000   1.575021e-03  3.561100e-06
     19     37   2   0.50000    -0.1200000    0.0100000   1.015252e-03  1.866303e-06
     19     44   2   0.50000    -0.1200000    0.0600000   2.494471e-04  1.671101e-07
     19     45   2   0.50000    -0.1200000    0.0600000   2.494471e-04  1.671101e-07
     21     37   2   0.50000    -0.1400000    0.0100000   1.304585e-03  1.920112e-06
     21     44   2   0.50000    -0.1400000    0.0600000   3.205360e-04  1.719281e-07
     21     45   2   0.50000    -0.1400000    0.0600000   3.205360e-04  1.719281e-07
     29     37   2   0.50000     0.0600000    0.0100000   2.494471e-04  1.671101e-07
     29     44   2   0.50000     0.0600000    0.0600000   6.128906e-05  1.496315e-08
     29     45   2   0.50000     0.0600000    0.0600000   6.128906e-05  1.496315e-08
     20     23   2   0.50000     0.0100000   -0.1200000   1.015252e-03  1.866303e-06
     20     30   2   0.50000     0.0100000    0.0600000   2.494471e-04  1.671101e-07
     20     31   2   0.50000     0.0100000    0.0600000   2.494471e-04  1.671101e-07
     25     30   2   0.50000     0.5000000    0.0600000   3.869820e-04  3.188634e-07
     25     31   2   0.50000     0.5000000    0.0600000   3.869820e-04  3.188634e-07
     20     24   2   0.50000     0.0100000   -0.1200000   1.015252e-03  1.866303e-06
     20     26   2   0.50000     0.0100000   -0.5000000   1.095425e-03  1.218041e-06
     22     26   2   0.50000    -0.0500000   -0.5000000   1.095425e-03  1.218041e-06
     21     32   2   0.50000    -0.1400000    0.0600000   3.205360e-04  1.719281e-07
     21     33   2   0.50000    -0.1400000    0.0600000   3.205360e-04  1.719281e-07
     30     24   2   0.50000     0.0600000   -0.1200000   2.494471e-04  1.671101e-07
     30     32   2   0.50000     0.0600000    0.0600000   6.128906e-05  1.496315e-08
     30     33   2   0.50000     0.0600000    0.0600000   6.128906e-05  1.496315e-08
     31     24   2   0.50000     0.0600000   -0.1200000   2.494471e-04  1.671101e-07
     31     32   2   0.50000     0.0600000    0.0600000   6.128906e-05  1.496315e-08
     31     33   2   0.50000     0.0600000    0.0600000   6.128906e-05  1.496315e-08
     22     34   2   0.50000    -0.0500000    0.0600000   2.494471e-04  1.671101e-07
     22     35   2   0.50000    -0.0500000    0.0600000   2.494471e-04  1.671101e-07
     32     25   2   0.50000     0.0600000    0.5000000   3.869820e-04  3.188634e-07
     32     34   2   0.50000     0.0600000    0.0600000   6.128906e-05  1.496315e-08
     32     35   2   0.50000     0.0600000    0.0600000   6.128906e-05  1.496315e-08
     33     25   2   0.50000     0.0600000    0.5000000   3.869820e-04  3.188634e-07
     33     34   2   0.50000     0.0600000    0.0600000   6.128906e-05  1.496315e-08
     33     35   2   0.50000     0.0600000    0.0600000   6.128906e-05  1.496315e-08
     23     26   2   0.50000    -0.1200000   -0.5000000   1.095425e-03  1.218041e-06
     34     21   2   0.50000     0.0600000   -0.1400000   3.205360e-04  1.719281e-07
     34     26   2   0.50000     0.0600000   -0.5000000   2.691455e-04  1.090642e-07
     35     21   2   0.50000     0.0600000   -0.1400000   3.205360e-04  1.719281e-07
     35     26   2   0.50000     0.0600000   -0.5000000   2.691455e-04  1.090642e-07
     20     38   2   0.50000     0.0100000   -0.1400000   1.304585e-03  1.920112e-06
     20     46   2   0.50000     0.0100000    0.0600000   2.494471e-04  1.671101e-07
     20     53   2   0.50000     0.0100000   -0.1200000   1.015252e-03  1.866303e-06
     44     38   2   0.50000     0.0600000   -0.1400000   3.205360e-04  1.719281e-07
     44     46   2   0.50000     0.0600000    0.0600000   6.128906e-05  1.496315e-08
     44     53   2   0.50000     0.0600000   -0.1200000   2.494471e-04  1.671101e-07
     45     38   2   0.50000     0.0600000   -0.1400000   3.205360e-04  1.719281e-07
     45     46   2   0.50000     0.0600000    0.0600000   6.128906e-05  1.496315e-08
     45     53   2   0.50000     0.0600000   -0.1200000   2.494471e-04  1.671101e-07
     36     39   2   0.50000    -0.1200000   -0.0500000   1.015252e-03  1.866303e-06
     36     42   2   0.50000    -0.1200000    0.5000000   1.575021e-03  3.561100e-06
     46     39   2   0.50000     0.0600000   -0.0500000   2.494471e-04  1.671101e-07
     46     42   2   0.50000     0.0600000    0.5000000   3.869820e-04  3.188634e-07
     53     39   2   0.50000    -0.1200000   -0.0500000   1.015252e-03  1.866303e-06
     53     42   2   0.50000    -0.1200000    0.5000000   1.575021e-03  3.561100e-06
     36     54   2   0.50000    -0.1200000    0.0100000   1.015252e-03  1.866303e-06
     36     61   2   0.50000    -0.1200000    0.0600000   2.494471e-04  1.671101e-07
     36     62   2   0.50000    -0.1200000    0.0600000   2.494471e-04  1.671101e-07
     38     54   2   0.50000    -0.1400000    0.0100000   1.304585e-03  1.920112e-06
     38     61   2   0.50000    -0.1400000    0.0600000   3.205360e-04  1.719281e-07
     38     62   2   0.50000    -0.1400000    0.0600000   3.205360e-04  1.719281e-07
     46     54   2   0.50000     0.0600000    0.0100000   2.494471e-04  1.671101e-07
     46     61   2   0.50000     0.0600000    0.0600000   6.128906e-05  1.496315e-08
     46     62   2   0.50000     0.0600000    0.0600000   6.128906e-05  1.496315e-08
     37     40   2   0.50000     0.0100000   -0.1200000   1.015252e-03  1.866303e-06
     37     47   2   0.50000     0.0100000    0.0600000   2.494471e-04  1.671101e-07
     37     48   2   0.50000     0.0100000    0.0600000   2.494471e-04  1.671101e-07
     42     47   2   0.50000     0.5000000    0.0600000   3.869820e-04  3.188634e-07
     42     48   2   0.50000     0.5000000    0.0600000   3.869820e-04  3.188634e-07
     37     41   2   0.50000     0.0100000   -0.1200000   1.015252e-03  1.866303e-06
     37     43   2   0.50000     0.0100000   -0.5000000   1.095425e-03  1.218041e-06
     39     43   2   0.50000    -0.0500000   -0.5000000   1.095425e-03  1.218041e-06
     38     49   2   0.50000    -0.1400000    0.0600000   3.205360e-04  1.719281e-07
     38     50   2   0.50000    -0.1400000    0.0600000   3.205360e-04  1.719281e-07
     47     41   2   0.50000     0.0600000   -0.1200000   2.494471e-04  1.671101e-07
     47     49   2   0.50000     0.0600000    0.0600000   6.128906e-05  1.496315e-08
     47     50   2   0.50000     0.0600000    0.0600000   6.128906e-05  1.496315e-08
     48     41   2   0.50000     0.0600000   -0.1200000   2.494471e-04  1.671101e-07
     48     49   2   0.50000     0.0600000    0.0600000   6.128906e-05  1.496315e-08
     48     50   2   0.50000     0.0600000    0.0600000   6.128906e-05  1.496315e-08
     39     51   2   0.50000    -0.0500000    0.0600000   2.494471e-04  1.671101e-07
     39     52   2   0.50000    -0.0500000    0.0600000   2.494471e-04  1.671101e-07
     49     42   2   0.50000     0.0600000    0.5000000   3.869820e-04  3.188634e-07
     49     51   2   0.50000     0.0600000    0.0600000   6.128906e-05  1.496315e-08
     49     52   2   0.50000     0.0600000    0.0600000   6.128906e-05  1.496315e-08
     50     42   2   0.50000     0.0600000    0.5000000   3.869820e-04  3.188634e-07
     50     51   2   0.50000     0.0600000    0.0600000   6.128906e-05  1.496315e-08
     50     52   2   0.50000     0.0600000    0.0600000   6.128906e-05  1.496315e-08
     40     43   2   0.50000    -0.1200000   -0.5000000   1.095425e-03  1.218041e-06
     51     38   2   0.50000     0.0600000   -0.1400000   3.205360e-04  1.719281e-07
     51     43   2   0.50000     0.0600000   -0.5000000   2.691455e-04  1.090642e-07
     52     38   2   0.50000     0.0600000   -0.1400000   3.205360e-04  1.719281e-07
     52     43   2   0.50000     0.0600000   -0.5000000   2.691455e-04  1.090642e-07
     37     55   2   0.50000     0.0100000   -0.1400000   1.304585e-03  1.920112e-06
     37     63   2   0.50000     0.0100000    0.0600000   2.494471e-04  1.671101e-07
     37     70   2   0.50000     0.0100000   -0.1200000   1.015252e-03  1.866303e-06
     61     55   2   0.50000     0.0600000   -0.1400000   3.205360e-04  1.719281e-07
     61     63   2   0.50000     0.0600000    0.0600000   6.128906e-05  1.496315e-08
     61     70   2   0.50000     0.0600000   -0.1200000   2.494471e-04  1.671101e-07
     62     55   2   0.50000     0.0600000   -0.1400000   3.205360e-04  1.719281e-07
     62     63   2   0.50000     0.0600000    0.0600000   6.128906e-05  1.496315e-08
     62     70   2   0.50000     0.0600000   -0.1200000   2.494471e-04  1.671101e-07
     53     56   2   0.50000    -0.1200000   -0.0500000   1.015252e-03  1.866303e-06
     53     59   2   0.50000    -0.1200000    0.5000000   1.575021e-03  3.561100e-06
     63     56   2   0.50000     0.0600000   -0.0500000   2.494471e-04  1.671101e-07
     63     59   2   0.50000     0.0600000    0.5000000   3.869820e-04  3.188634e-07
     70     56   2   0.50000    -0.1200000   -0.0500000   1.015252e-03  1.866303e-06
     70     59   2   0.50000    -0.1200000    0.5000000   1.575021e-03  3.561100e-06
     53     71   2   0.50000    -0.1200000    0.0100000   1.015252e-03  1.866303e-06
     53     78   2   0.50000    -0.1200000    0.0600000   2.494471e-04  1.671101e-07
     53     79   2   0.50000    -0.1200000    0.0600000   2.494471e-04  1.671101e-07
     55     71   2   0.50000    -0.1400000    0.0100000   1.304585e-03  1.920112e-06
     55     78   2   0.50000    -0.1400000    0.0600000   3.205360e-04  1.719281e-07
     55     79   2   0.50000    -0.1400000    0.0600000   3.205360e-04  1.719281e-07
     63     71   2   0.50000     0.0600000    0.0100000   2.494471e-04  1.671101e-07
     63     78   2   0.50000     0.0600000    0.0600000   6.128906e-05  1.496315e-08
     63     79   2   0.50000     0.0600000    0.0600000   6.128906e-05  1.496315e-08
     54     57   2   0.50000     0.0100000   -0.1200000   1.015252e-03  1.866303e-06
     54     64   2   0.50000     0.0100000    0.0600000   2.494471e-04  1.671101e-07
     54     65   2   0.50000     0.0100000    0.0600000   2.494471e-04  1.671101e-07
     59     64   2   0.50000     0.5000000    0.0600000   3.869820e-04  3.188634e-07
     59     65   2   0.50000     0.5000000    0.0600000   3.869820e-04  3.188634e-07
     54     58   2   0.50000     0.0100000   -0.1200000   1.015252e-03  1.866303e-06
     54     60   2   0.50000     0.0100000   -0.5000000   1.095425e-03  1.218041e-06
     56     60   2   0.50000    -0.0500000   -0.5000000   1.095425e-03  1.218041e-06
     55     66   2   0.50000    -0.1400000    0.0600000   3.205360e-04  1.719281e-07
     55     67   2   0.50000    -0.1400000    0.0600000   3.205360e-04  1.719281e-07
     64     58   2   0.50000     0.0600000   -0.1200000   2.494471e-04  1.671101e-07
     64     66   2   0.50000     0.0600000    0.0600000   6.128906e-05  1.496315e-08
     64     67   2   0.50000     0.0600000    0.0600000   6.128906e-05  1.496315e-08
     65     58   2   0.50000     0.0600000   -0.1200000   2.494471e-04  1.671101e-07
     65     66   2   0.50000     0.0600000    0.0600000   6.128906e-05  1.496315e-08
     65     67   2   0.50000     0.0600000    0.0600000   6.128906e-05  1.496315e-08
     56     68   2   0.50000    -0.0500000    0.0600000   2.494471e-04  1.671101e-07
     56     69   2   0.50000    -0.0500000    0.0600000   2.494471e-04  1.671101e-07
     66     59   2   0.50000     0.0600000    0.5000000   3.869820e-04  3.188634e-07
     66     68   2   0.50000     0.0600000    0.0600000   6.128906e-05  1.496315e-08
     66     69   2   0.50000     0.0600000    0.0600000   6.128906e-05  1.496315e-08
     67     59   2   0.50000     0.0600000    0.5000000   3.869820e-04  3.188634e-07
     67     68   2   0.50000     0.0600000    0.0600000   6.128906e-05  1.496315e-08
     67     69   2   0.50000     0.0600000    0.0600000   6.128906e-05  1.496315e-08
     57     60   2   0.50000    -0.1200000   -0.5000000   1.095425e-03  1.218041e-06
     68     55   2   0.50000     0.0600000   -0.1400000   3.205360e-04  1.719281e-07
     68     60   2   0.50000     0.0600000   -0.5000000   2.691455e-04  1.090642e-07
     69     55   2   0.50000     0.0600000   -0.1400000   3.205360e-04  1.719281e-07
     69     60   2   0.50000     0.0600000   -0.5000000   2.691455e-04  1.090642e-07
     54     72   2   0.50000     0.0100000   -0.1400000   1.304585e-03  1.920112e-06
     54     80   2   0.50000     0.0100000    0.0600000   2.494471e-04  1.671101e-07
     54     87   2   0.50000     0.0100000   -0.1200000   1.015252e-03  1.866303e-06
     78     72   2   0.50000     0.0600000   -0.1400000   3.205360e-04  1.719281e-07
     78     80   2   0.50000     0.0600000    0.0600000   6.128906e-05  1.496315e-08
     78     87   2   0.50000     0.0600000   -0.1200000   2.494471e-04  1.671101e-07
     79     72   2   0.50000     0.0600000   -0.1400000   3.205360e-04  1.719281e-07
     79     80   2   0.50000     0.0600000    0.0600000   6.128906e-05  1.496315e-08
     79     87   2   0.50000     0.0600000   -0.1200000   2.494471e-04  1.671101e-07
     70     73   2   0.50000    -0.1200000   -0.0500000   1.015252e-03  1.866303e-06
     70     76   2   0.50000    -0.1200000    0.5000000   1.575021e-03  3.561100e-06
     80     73   2   0.50000     0.0600000   -0.0500000   2.494471e-04  1.671101e-07
     80     76   2   0.50000     0.0600000    0.5000000   3.869820e-04  3.188634e-07
     87     73   2   0.50000    -0.1200000   -0.0500000   1.015252e-03  1.866303e-06
     87     76   2   0.50000    -0.1200000    0.5000000   1.575021e-03  3.561100e-06
     70     88   2   0.50000    -0.1200000    0.0100000   1.015252e-03  1.866303e-06
     70     95   2   0.50000    -0.1200000    0.0600000   2.494471e-04  1.671101e-07
     70     96   2   0.50000    -0.1200000    0.0600000   2.494471e-04  1.671101e-07
     72     88   2   0.50000    -0.1400000    0.0100000   1.304585e-03  1.920112e-06
     72     95   2   0.50000    -0.1400000    0.0600000   3.205360e-04  1.719281e-07
     72     96   2   0.50000    -0.1400000    0.0600000   3.205360e-04  1.719281e-07
     80     88   2   0.50000     0.0600000    0.0100000   2.494471e-04  1.671101e-07
     80     95   2   0.50000     0.0600000    0.0600000   6.128906e-05  1.496315e-08
     80     96   2   0.50000     0.0600000    0.0600000   6.128906e-05  1.496315e-08
     71     74   2   0.50000     0.0100000   -0.1200000   1.015252e-03  1.866303e-06
     71     81   2   0.50000     0.0100000    0.0600000   2.494471e-04  1.671101e-07
     71     82   2   0.50000     0.0100000    0.0600000   2.494471e-04  1.671101e-07
     76     81   2   0.50000     0.5000000    0.0600000   3.869820e-04  3.188634e-07
     76     82   2   0.50000     0.5000000    0.0600000   3.869820e-04  3.188634e-07
     71     75   2   0.50000     0.0100000   -0.1200000   1.015252e-03  1.866303e-06
     71     77   2   0.50000     0.0100000   -0.5000000   1.095425e-03  1.218041e-06
     73     77   2   0.50000    -0.0500000   -0.5000000   1.095425e-03  1.218041e-06
     72     83   2   0.50000    -0.1400000    0.0600000   3.205360e-04  1.719281e-07
     72     84   2   0.50000    -0.1400000    0.0600000   3.205360e-04  1.719281e-07
     81     75   2   0.50000     0.0600000   -0.1200000   2.494471e-04  1.671101e-07
     81     83   2   0.50000     0.0600000    0.0600000   6.128906e-05  1.496315e-08
     81     84   2   0.50000     0.0600000    0.0600000   6.128906e-05  1.496315e-08
     82     75   2   0.50000     0.0600000   -0.1200000   2.494471e-04  1.671101e-07
     82     83   2   0.50000     0.0600000    0.0600000   6.128906e-05  1.496315e-08
     82     84   2   0.50000     0.0600000    0.0600000   6.128906e-05  1.496315e-08
     73     85   2   0.50000    -0.0500000    0.0600000   2.494471e-04  1.671101e-07
     73     86   2   0.50000    -0.0500000    0.0600000   2.494471e-04  1.671101e-07
     83     76   2   0.50000     0.0600000    0.5000000   3.869820e-04  3.188634e-07
     83     85   2   0.50000     0.0600000    0.0600000   6.128906e-05  1.496315e-08
     83     86   2   0.50000     0.0600000    0.0600000   6.128906e-05  1.496315e-08
     84     76   2   0.50000     0.0600000    0.5000000   3.869820e-04  3.188634e-07
     84     85   2   0.50000     0.0600000    0.0600000   6.128906e-05  1.496315e-08
     84     86   2   0.50000     0.0600000    0.0600000   6.128906e-05  1.496315e-08
     74     77   2   0.50000    -0.1200000   -0.5000000   1.095425e-03  1.218041e-06
     85     72   2   0.50000     0.0600000   -0.1400000   3.205360e-04  1.719281e-07
     85     77   2   0.50000     0.0600000   -0.5000000   2.691455e-04  1.090642e-07
     86     72   2   0.50000     0.0600000   -0.1400000   3.205360e-04  1.719281e-07
     86     77   2   0.50000     0.0600000   -0.5000000   2.691455e-04  1.090642e-07
     71     89   2   0.50000     0.0100000   -0.1400000   1.304585e-03  1.920112e-06
     71     97   2   0.50000     0.0100000    0.0600000   2.494471e-04  1.671101e-07
     71    104   2   0.50000     0.0100000   -0.1200000   1.015252e-03  1.866303e-06
     95     89   2   0.50000     0.0600000   -0.1400000   3.205360e-04  1.719281e-07
     95     97   2   0.50000     0.0600000    0.0600000   6.128906e-05  1.496315e-08
     95    104   2   0.50000     0.0600000   -0.1200000   2.494471e-04  1.671101e-07
     96     89   2   0.50000     0.0600000   -0.1400000   3.205360e-04  1.719281e-07
     96     97   2   0.50000     0.0600000    0.0600000   6.128906e-05  1.496315e-08
     96    104   2   0.50000     0.0600000   -0.1200000   2.494471e-04  1.671101e-07
     87     90   2   0.50000    -0.1200000   -0.0500000   1.015252e-03  1.866303e-06
     87     93   2   0.50000    -0.1200000    0.5000000   1.575021e-03  3.561100e-06
     97     90   2   0.50000     0.0600000   -0.0500000   2.494471e-04  1.671101e-07
     97     93   2   0.50000     0.0600000    0.5000000   3.869820e-04  3.188634e-07
    104     90   2   0.50000    -0.1200000   -0.0500000   1.015252e-03  1.866303e-06
    104     93   2   0.50000    -0.1200000    0.5000000   1.575021e-03  3.561100e-06
     87    105   2   0.50000    -0.1200000    0.0100000   1.015252e-03  1.866303e-06
     87    112   2   0.50000    -0.1200000    0.0600000   2.494471e-04  1.671101e-07
     87    113   2   0.50000    -0.1200000    0.0600000   2.494471e-04  1.671101e-07
     89    105   2   0.50000    -0.1400000    0.0100000   1.304585e-03  1.920112e-06
     89    112   2   0.50000    -0.1400000    0.0600000   3.205360e-04  1.719281e-07
     89    113   2   0.50000    -0.1400000    0.0600000   3.205360e-04  1.719281e-07
     97    105   2   0.50000     0.0600000    0.0100000   2.494471e-04  1.671101e-07
     97    112   2   0.50000     0.0600000    0.0600000   6.128906e-05  1.496315e-08
     97    113   2   0.50000     0.0600000    0.0600000   6.128906e-05  1.496315e-08
     88     91   2   0.50000     0.0100000   -0.1200000   1.015252e-03  1.866303e-06
     88     98   2   0.50000     0.0100000    0.0600000   2.494471e-04  1.671101e-07
     88     99   2   0.50000     0.0100000    0.0600000   2.494471e-04  1.671101e-07
     93     98   2   0.50000     0.5000000    0.0600000   3.869820e-04  3.188634e-07
     93     99   2   0.50000     0.5000000    0.0600000   3.869820e-04  3.188634e-07
     88     92   2   0.50000     0.0100000   -0.1200000   1.015252e-03  1.866303e-06
     88     94   2   0.50000     0.0100000   -0.5000000   1.095425e-03  1.218041e-06
     90     94   2   0.50000    -0.0500000   -0.5000000   1.095425e-03  1.218041e-06
     89    100   2   0.50000    -0.1400000    0.0600000   3.205360e-04  1.719281e-07
     89    101   2   0.50000    -0.1400000    0.0600000   3.205360e-04  1.719281e-07
     98     92   2   0.50000     0.0600000   -0.1200000   2.494471e-04  1.671101e-07
     98    100   2   0.50000     0.0600000    0.0600000   6.128906e-05  1.496315e-08
     98    101   2   0.50000     0.0600000    0.0600000   6.128906e-05  1.496315e-08
     99     92   2   0.50000     0.0600000   -0.1200000   2.494471e-04  1.671101e-07
     99    100   2   0.50000     0.0600000    0.0600000   6.128906e-05  1.496315e-08
     99    101   2   0.50000     0.0600000    0.0600000   6.128906e-05  1.496315e-08
     90    102   2   0.50000    -0.0500000    0.0600000   2.494471e-04  1.671101e-07
     90    103   2   0.50000    -0.0500000    0.0600000   2.494471e-04  1.671101e-07
    100     93   2   0.50000     0.0600000    0.5000000   3.869820e-04  3.188634e-07
    100    102   2   0.50000     0.0600000    0.0600000   6.128906e-05  1.496315e-08
    100    103   2   0.50000     0.0600000    0.0600000   6.128906e-05  1.496315e-08
    101     93   2   0.50000     0.0600000    0.5000000   3.869820e-04  3.188634e-07
    101    102   2   0.50000     0.0600000    0.0600000   6.128906e-05  1.496315e-08
    101    103   2   0.50000     0.0600000    0.0600000   6.128906e-05  1.496315e-08
     91     94   2   0.50000    -0.1200000   -0.5000000   1.095425e-03  1.218041e-06
    102     89   2   0.50000     0.0600000   -0.1400000   3.205360e-04  1.719281e-07
    102     94   2   0.50000     0.0600000   -0.5000000   2.691455e-04  1.090642e-07
    103     89   2   0.50000     0.0600000   -0.1400000   3.205360e-04  1.719281e-07
    103     94   2   0.50000     0.0600000   -0.5000000   2.691455e-04  1.090642e-07
     88    106   2   0.50000     0.0100000   -0.1400000   1.304585e-03  1.920112e-06
     88    114   2   0.50000     0.0100000    0.0600000   2.494471e-04  1.671101e-07
     88    121   2   0.50000     0.0100000   -0.1200000   1.015252e-03  1.866303e-06
    112    106   2   0.50000     0.0600000   -0.1400000   3.205360e-04  1.719281e-07
    112    114   2   0.50000     0.0600000    0.0600000   6.128906e-05  1.496315e-08
    112    121   2   0.50000     0.0600000   -0.1200000   2.494471e-04  1.671101e-07
    113    106   2   0.50000     0.0600000   -0.1400000   3.205360e-04  1.719281e-07
    113    114   2   0.50000     0.0600000    0.0600000   6.128906e-05  1.496315e-08
    113    121   2   0.50000     0.0600000   -0.1200000   2.494471e-04  1.671101e-07
    104    107   2   0.50000    -0.1200000   -0.0500000   1.015252e-03  1.866303e-06
    104    110   2   0.50000    -0.1200000    0.5000000   1.575021e-03  3.561100e-06
    114    107   2   0.50000     0.0600000   -0.0500000   2.494471e-04  1.671101e-07
    114    110   2   0.50000     0.0600000    0.5000000   3.869820e-04  3.188634e-07
    121    107   2   0.50000    -0.1200000   -0.0500000   1.015252e-03  1.866303e-06
    121    110   2   0.50000    -0.1200000    0.5000000   1.575021e-03  3.561100e-06
    104    122   2   0.50000    -0.1200000    0.0100000   1.015252e-03  1.866303e-06
    104    129   2   0.50000    -0.1200000    0.0600000   2.494471e-04  1.671101e-07
    104    130   2   0.50000    -0.1200000    0.0600000   2.494471e-04  1.671101e-07
    106    122   2   0.50000    -0.1400000    0.0100000   1.304585e-03  1.920112e-06
    106    129   2   0.50000    -0.1400000    0.0600000   3.205360e-04  1.719281e-07
    106    130   2   0.50000    -0.1400000    0.0600000   3.205360e-04  1.719281e-07
    114    122   2   0.50000     0.0600000    0.0100000   2.494471e-04  1.671101e-07
    114    129   2   0.50000     0.0600000    0.0600000   6.128906e-05  1.496315e-08
    114    130   2   0.50000     0.0600000    0.0600000   6.128906e-05  1.496315e-08
    105    108   2   0.50000     0.0100000   -0.1200000   1.015252e-03  1.866303e-06
    105    115   2   0.50000     0.0100000    0.0600000   2.494471e-04  1.671101e-07
    105    116   2   0.50000     0.0100000    0.0600000   2.494471e-04  1.671101e-07
    110    115   2   0.50000     0.5000000    0.0600000   3.869820e-04  3.188634e-07
    110    116   2   0.50000     0.5000000    0.0600000   3.869820e-04  3.188634e-07
    105    109   2   0.50000     0.0100000   -0.1200000   1.015252e-03  1.866303e-06
    105    111   2   0.50000     0.0100000   -0.5000000   1.095425e-03  1.218041e-06
    107    111   2   0.50000    -0.0500000   -0.5000000   1.095425e-03  1.218041e-06
    106    117   2   0.50000    -0.1400000    0.0600000   3.205360e-04  1.719281e-07
    106    118   2   0.50000    -0.1400000    0.0600000   3.205360e-04  1.719281e-07
    115    109   2   0.50000     0.0600000   -0.1200000   2.494471e-04  1.671101e-07
    115    117   2   0.50000     0.0600000    0.0600000   6.128906e-05  1.496315e-08
    115    118   2   0.50000     0.0600000    0.0600000   6.128906e-05  1.496315e-08
    116    109   2   0.50000     0.0600000   -0.1200000   2.494471e-04  1.671101e-07
    116    117   2   0.50000     0.0600000    0.0600000   6.128906e-05  1.496315e-08
    116    118   2   0.50000     0.0600000    0.0600000   6.128906e-05  1.496315e-08
    107    119   2   0.50000    -0.0500000    0.0600000   2.494471e-04  1.671101e-07
    107    120   2   0.50000    -0.0500000    0.0600000   2.494471e-04  1.671101e-07
    117    110   2   0.50000     0.0600000    0.5000000   3.869820e-04  3.188634e-07
    117    119   2   0.50000     0.0600000    0.0600000   6.128906e-05  1.496315e-08
    117    120   2   0.50000     0.0600000    0.0600000   6.128906e-05  1.496315e-08
    118    110   2   0.50000     0.0600000    0.5000000   3.869820e-04  3.188634e-07
    118    119   2   0.50000     0.0600000    0.0600000   6.128906e-05  1.496315e-08
    118    120   2   0.50000     0.0600000    0.0600000   6.128906e-05  1.496315e-08
    108    111   2   0.50000    -0.1200000   -0.5000000   1.095425e-03  1.218041e-06
    119    106   2   0.50000     0.0600000   -0.1400000   3.205360e-04  1.719281e-07
    119    111   2   0.50000     0.0600000   -0.5000000   2.691455e-04  1.090642e-07
    120    106   2   0.50000     0.0600000   -0.1400000   3.205360e-04  1.719281e-07
    120    111   2   0.50000     0.0600000   -0.5000000   2.691455e-04  1.090642e-07
    105    123   2   0.50000     0.0100000   -0.1400000   1.304585e-03  1.920112e-06
    105    131   2   0.50000     0.0100000    0.0600000   2.494471e-04  1.671101e-07
    105    138   2   0.50000     0.0100000   -0.1200000   1.015252e-03  1.866303e-06
    129    123   2   0.50000     0.0600000   -0.1400000   3.205360e-04  1.719281e-07
    129    131   2   0.50000     0.0600000    0.0600000   6.128906e-05  1.496315e-08
    129    138   2   0.50000     0.0600000   -0.1200000   2.494471e-04  1.671101e-07
    130    123   2   0.50000     0.0600000   -0.1400000   3.205360e-04  1.719281e-07
    130    131   2   0.50000     0.0600000    0.0600000   6.128906e-05  1.496315e-08
    130    138   2   0.50000     0.0600000   -0.1200000   2.494471e-04  1.671101e-07
    121    124   2   0.50000    -0.1200000   -0.0500000   1.015252e-03  1.866303e-06
    121    127   2   0.50000    -0.1200000    0.5000000   1.575021e-03  3.561100e-06
    131    124   2   0.50000     0.0600000   -0.0500000   2.494471e-04  1.671101e-07
    131    127   2   0.50000     0.0600000    0.5000000   3.869820e-04  3.188634e-07
    138    124   2   0.50000    -0.1200000   -0.0500000   1.015252e-03  1.866303e-06
    138    127   2   0.50000    -0.1200000    0.5000000   1.575021e-03  3.561100e-06
    121    139   2   0.50000    -0.1200000    0.0100000   1.015252e-03  1.866303e-06
    121    146   2   0.50000    -0.1200000    0.0600000   2.494471e-04  1.671101e-07
    121    147   2   0.50000    -0.1200000    0.0600000   2.494471e-04  1.671101e-07
    123    139   2   0.50000    -0.1400000    0.0100000   1.304585e-03  1.920112e-06
    123    146   2   0.50000    -0.1400000    0.0600000   3.205360e-04  1.719281e-07
    123    147   2   0.50000    -0.1400000    0.0600000   3.205360e-04  1.719281e-07
    131    139   2   0.50000     0.0600000    0.0100000   2.494471e-04  1.671101e-07
    131    146   2   0.50000     0.0600000    0.0600000   6.128906e-05  1.496315e-08
    131    147   2   0.50000     0.0600000    0.0600000   6.128906e-05  1.496315e-08
    122    125   2   0.50000     0.0100000   -0.1200000   1.015252e-03  1.866303e-06
    122    132   2   0.50000     0.0100000    0.0600000   2.494471e-04  1.671101e-07
    122    133   2   0.50000     0.0100000    0.0600000   2.494471e-04  1.671101e-07
    127    132   2   0.50000     0.5000000    0.0600000   3.869820e-04  3.188634e-07
    127    133   2   0.50000     0.5000000    0.0600000   3.869820e-04  3.188634e-07
    122    126   2   0.50000     0.0100000   -0.1200000   1.015252e-03  1.866303e-06
    122    128   2   0.50000     0.0100000   -0.5000000   1.095425e-03  1.218041e-06
    124    128   2   0.50000    -0.0500000   -0.5000000   1.095425e-03  1.218041e-06
    123    134   2   0.50000    -0.1400000    0.0600000   3.205360e-04  1.719281e-07
    123    135   2   0.50000    -0.1400000    0.0600000   3.205360e-04  1.719281e-07
    132    126   2   0.50000     0.0600000   -0.1200000   2.494471e-04  1.671101e-07
    132    134   2   0.50000     0.0600000    0.0600000   6.128906e-05  1.496315e-08
    132    135   2   0.50000     0.0600000    0.0600000   6.128906e-05  1.496315e-08
    133    126   2   0.50000     0.0600000   -0.1200000   2.494471e-04  1.671101e-07
    133    134   2   0.50000     0.0600000    0.0600000   6.128906e-05  1.496315e-08
    133    135   2   0.50000     0.0600000    0.0600000   6.128906e-05  1.496315e-08
    124    136   2   0.50000    -0.0500000    0.0600000   2.494471e-04  1.671101e-07
    124    137   2   0.50000    -0.0500000    0.0600000   2.494471e-04  1.671101e-07
    134    127   2   0.50000     0.0600000    0.5000000   3.869820e-04  3.188634e-07
    134    136   2   0.50000     0.0600000    0.0600000   6.128906e-05  1.496315e-08
    134    137   2   0.50000     0.0600000    0.0600000   6.128906e-05  1.496315e-08
    135    127   2   0.50000     0.0600000    0.5000000   3.869820e-04  3.188634e-07
    135    136   2   0.50000     0.0600000    0.0600000   6.128906e-05  1.496315e-08
    135    137   2   0.50000     0.0600000    0.0600000   6.128906e-05  1.496315e-08
    125    128   2   0.50000    -0.1200000   -0.5000000   1.095425e-03  1.218041e-06
    136    123   2   0.50000     0.0600000   -0.1400000   3.205360e-04  1.719281e-07
    136    128   2   0.50000     0.0600000   -0.5000000   2.691455e-04  1.090642e-07
    137    123   2   0.50000     0.0600000   -0.1400000   3.205360e-04  1.719281e-07
    137    128   2   0.50000     0.0600000   -0.5000000   2.691455e-04  1.090642e-07
    122    140   2   0.50000     0.0100000   -0.1400000   1.304585e-03  1.920112e-06
    122    148   2   0.50000     0.0100000    0.0600000   2.494471e-04  1.671101e-07
    122    155   2   0.50000     0.0100000   -0.1200000   1.015252e-03  1.866303e-06
    146    140   2   0.50000     0.0600000   -0.1400000   3.205360e-04  1.719281e-07
    146    148   2   0.50000     0.0600000    0.0600000   6.128906e-05  1.496315e-08
    146    155   2   0.50000     0.0600000   -0.1200000   2.494471e-04  1.671101e-07
    147    140   2   0.50000     0.0600000   -0.1400000   3.205360e-04  1.719281e-07
    147    148   2   0.50000     0.0600000    0.0600000   6.128906e-05  1.496315e-08
    147    155   2   0.50000     0.0600000   -0.1200000   2.494471e-04  1.671101e-07
    138    141   2   0.50000    -0.1200000   -0.0500000   1.015252e-03  1.866303e-06
    138    144   2   0.50000    -0.1200000    0.5000000   1.575021e-03  3.561100e-06
    148    141   2   0.50000     0.0600000   -0.0500000   2.494471e-04  1.671101e-07
    148    144   2   0.50000     0.0600000    0.5000000   3.869820e-04  3.188634e-07
    155    141   2   0.50000    -0.1200000   -0.0500000   1.015252e-03  1.866303e-06
    155    144   2   0.50000    -0.1200000    0.5000000   1.575021e-03  3.561100e-06
    138    156   2   0.50000    -0.1200000    0.0100000   1.015252e-03  1.866303e-06
    138    163   2   0.50000    -0.1200000    0.0600000   2.494471e-04  1.671101e-07
    138    164   2   0.50000    -0.1200000    0.0600000   2.494471e-04  1.671101e-07
    140    156   2   0.50000    -0.1400000    0.0100000   1.304585e-03  1.920112e-06
    140    163   2   0.50000    -0.1400000    0.0600000   3.205360e-04  1.719281e-07
    140    164   2   0.50000    -0.1400000    0.0600000   3.205360e-04  1.719281e-07
    148    156   2   0.50000     0.0600000    0.0100000   2.494471e-04  1.671101e-07
    148    163   2   0.50000     0.0600000    0.0600000   6.128906e-05  1.496315e-08
    148    164   2   0.50000     0.0600000    0.0600000   6.128906e-05  1.496315e-08
    139    142   2   0.50000     0.0100000   -0.1200000   1.015252e-03  1.866303e-06
    139    149   2   0.50000     0.0100000    0.0600000   2.494471e-04  1.671101e-07
    139    150   2   0.50000     0.0100000    0.0600000   2.494471e-04  1.671101e-07
    144    149   2   0.50000     0.5000000    0.0600000   3.869820e-04  3.188634e-07
    144    150   2   0.50000     0.5000000    0.0600000   3.869820e-04  3.188634e-07
    139    143   2   0.50000     0.0100000   -0.1200000   1.015252e-03  1.866303e-06
    139    145   2   0.50000     0.0100000   -0.5000000   1.095425e-03  1.218041e-06
    141    145   2   0.50000    -0.0500000   -0.5000000   1.095425e-03  1.218041e-06
    140    151   2   0.50000    -0.1400000    0.0600000   3.205360e-04  1.719281e-07
    140    152   2   0.50000    -0.1400000    0.0600000   3.205360e-04  1.719281e-07
    149    143   2   0.50000     0.0600000   -0.1200000   2.494471e-04  1.671101e-07
    149    151   2   0.50000     0.0600000    0.0600000   6.128906e-05  1.496315e-08
    149    152   2   0.50000     0.0600000    0.0600000   6.128906e-05  1.496315e-08
    150    143   2   0.50000     0.0600000   -0.1200000   2.494471e-04  1.671101e-07
    150    151   2   0.50000     0.0600000    0.0600000   6.128906e-05  1.496315e-08
    150    152   2   0.50000     0.0600000    0.0600000   6.128906e-05  1.496315e-08
    141    153   2   0.50000    -0.0500000    0.0600000   2.494471e-04  1.671101e-07
    141    154   2   0.50000    -0.0500000    0.0600000   2.494471e-04  1.671101e-07
    151    144   2   0.50000     0.0600000    0.5000000   3.869820e-04  3.188634e-07
    151    153   2   0.50000     0.0600000    0.0600000   6.128906e-05  1.496315e-08
    151    154   2   0.50000     0.0600000    0.0600000   6.128906e-05  1.496315e-08
    152    144   2   0.50000     0.0600000    0.5000000   3.869820e-04  3.188634e-07
    152    153   2   0.50000     0.0600000    0.0600000   6.128906e-05  1.496315e-08
    152    154   2   0.50000     0.0600000    0.0600000   6.128906e-05  1.496315e-08
    142    145   2   0.50000    -0.1200000   -0.5000000   1.095425e-03  1.218041e-06
    153    140   2   0.50000     0.0600000   -0.1400000   3.205360e-04  1.719281e-07
    153    145   2   0.50000     0.0600000   -0.5000000   2.691455e-04  1.090642e-07
    154    140   2   0.50000     0.0600000   -0.1400000   3.205360e-04  1.719281e-07
    154    145   2   0.50000     0.0600000   -0.5000000   2.691455e-04  1.090642e-07
    139    157   2   0.50000     0.0100000   -0.1400000   1.304585e-03  1.920112e-06
    139    165   2   0.50000     0.0100000    0.0600000   2.494471e-04  1.671101e-07
    139    172   2   0.50000     0.0100000   -0.1200000   1.015252e-03  1.866303e-06
    163    157   2   0.50000     0.0600000   -0.1400000   3.205360e-04  1.719281e-07
    163    165   2   0.50000     0.0600000    0.0600000   6.128906e-05  1.496315e-08
    163    172   2   0.50000     0.0600000   -0.1200000   2.494471e-04  1.671101e-07
    164    157   2   0.50000     0.0600000   -0.1400000   3.205360e-04  1.719281e-07
    164    165   2   0.50000     0.0600000    0.0600000   6.128906e-05  1.496315e-08
    164    172   2   0.50000     0.0600000   -0.1200000   2.494471e-04  1.671101e-07
    155    158   2   0.50000    -0.1200000   -0.0500000   1.015252e-03  1.866303e-06
    155    161   2   0.50000    -0.1200000    0.5000000   1.575021e-03  3.561100e-06
    165    158   2   0.50000     0.0600000   -0.0500000   2.494471e-04  1.671101e-07
    165    161   2   0.50000     0.0600000    0.5000000   3.869820e-04  3.188634e-07
    172    158   2   0.50000    -0.1200000   -0.0500000   1.015252e-03  1.866303e-06
    172    161   2   0.50000    -0.1200000    0.5000000   1.575021e-03  3.561100e-06
    155    173   2   0.50000    -0.1200000    0.0100000   1.015252e-03  1.866303e-06
    155    180   2   0.50000    -0.1200000    0.0600000   2.494471e-04  1.671101e-07
    155    181   2   0.50000    -0.1200000    0.0600000   2.494471e-04  1.671101e-07
    157    173   2   0.50000    -0.1400000    0.0100000   1.304585e-03  1.920112e-06
    157    180   2   0.50000    -0.1400000    0.0600000   3.205360e-04  1.719281e-07
    157    181   2   0.50000    -0.1400000    0.0600000   3.205360e-04  1.719281e-07
    165    173   2   0.50000     0.0600000    0.0100000   2.494471e-04  1.671101e-07
    165    180   2   0.50000     0.0600000    0.0600000   6.128906e-05  1.496315e-08
    165    181   2   0.50000     0.0600000    0.0600000   6.128906e-05  1.496315e-08
    156    159   2   0.50000     0.0100000   -0.1200000   1.015252e-03  1.866303e-06
    156    166   2   0.50000     0.0100000    0.0600000   2.494471e-04  1.671101e-07
    156    167   2   0.50000     0.0100000    0.0600000   2.494471e-04  1.671101e-07
    161    166   2   0.50000     0.5000000    0.0600000   3.869820e-04  3.188634e-07
    161    167   2   0.50000     0.5000000    0.0600000   3.869820e-04  3.188634e-07
    156    160   2   0.50000     0.0100000   -0.1200000   1.015252e-03  1.866303e-06
    156    162   2   0.50000     0.0100000   -0.5000000   1.095425e-03  1.218041e-06
    158    162   2   0.50000    -0.0500000   -0.5000000   1.095425e-03  1.218041e-06
    157    168   2   0.50000    -0.1400000    0.0600000   3.205360e-04  1.719281e-07
    157    169   2   0.50000    -0.1400000    0.0600000   3.205360e-04  1.719281e-07
    166    160   2   0.50000     0.0600000   -0.1200000   2.494471e-04  1.671101e-07
    166    168   2   0.50000     0.0600000    0.0600000   6.128906e-05  1.496315e-08
    166    169   2   0.50000     0.0600000    0.0600000   6.128906e-05  1.496315e-08
    167    160   2   0.50000     0.0600000   -0.1200000   2.494471e-04  1.671101e-07
    167    168   2   0.50000     0.0600000    0.0600000   6.128906e-05  1.496315e-08
    167    169   2   0.50000     0.0600000    0.0600000   6.128906e-05  1.496315e-08
    158    170   2   0.50000    -0.0500000    0.0600000   2.494471e-04  1.671101e-07
    158    171   2   0.50000    -0.0500000    0.0600000   2.494471e-04  1.671101e-07
    168    161   2   0.50000     0.0600000    0.5000000   3.869820e-04  3.188634e-07
    168    170   2   0.50000     0.0600000    0.0600000   6.128906e-05  1.496315e-08
    168    171   2   0.50000     0.0600000    0.0600000   6.128906e-05  1.496315e-08
    169    161   2   0.50000     0.0600000    0.5000000   3.869820e-04  3.188634e-07
    169    170   2   0.50000     0.0600000    0.0600000   6.128906e-05  1.496315e-08
    169    171   2   0.50000     0.0600000    0.0600000   6.128906e-05  1.496315e-08
    159    162   2   0.50000    -0.1200000   -0.5000000   1.095425e-03  1.218041e-06
    170    157   2   0.50000     0.0600000   -0.1400000   3.205360e-04  1.719281e-07
    170    162   2   0.50000     0.0600000   -0.5000000   2.691455e-04  1.090642e-07
    171    157   2   0.50000     0.0600000   -0.1400000   3.205360e-04  1.719281e-07
    171    162   2   0.50000     0.0600000   -0.5000000   2.691455e-04  1.090642e-07
    156    174   2   0.50000     0.0100000   -0.1400000   1.304585e-03  1.920112e-06
    156    182   2   0.50000     0.0100000    0.0600000   2.494471e-04  1.671101e-07
    156    189   2   0.50000     0.0100000   -0.1200000   1.015252e-03  1.866303e-06
    180    174   2   0.50000     0.0600000   -0.1400000   3.205360e-04  1.719281e-07
    180    182   2   0.50000     0.0600000    0.0600000   6.128906e-05  1.496315e-08
    180    189   2   0.50000     0.0600000   -0.1200000   2.494471e-04  1.671101e-07
    181    174   2   0.50000     0.0600000   -0.1400000   3.205360e-04  1.719281e-07
    181    182   2   0.50000     0.0600000    0.0600000   6.128906e-05  1.496315e-08
    181    189   2   0.50000     0.0600000   -0.1200000   2.494471e-04  1.671101e-07
    172    175   2   0.50000    -0.1200000   -0.0500000   1.015252e-03  1.866303e-06
    172    178   2   0.50000    -0.1200000    0.5000000   1.575021e-03  3.561100e-06
    182    175   2   0.50000     0.0600000   -0.0500000   2.494471e-04  1.671101e-07
    182    178   2   0.50000     0.0600000    0.5000000   3.869820e-04  3.188634e-07
    189    175   2   0.50000    -0.1200000   -0.0500000   1.015252e-03  1.866303e-06
    189    178   2   0.50000    -0.1200000    0.5000000   1.575021e-03  3.561100e-06
    172    190   2   0.50000    -0.1200000    0.0100000   1.015252e-03  1.866303e-06
    172    197   2   0.50000    -0.1200000    0.0600000   2.494471e-04  1.671101e-07
    172    198   2   0.50000    -0.1200000    0.0600000   2.494471e-04  1.671101e-07
    174    190   2   0.50000    -0.1400000    0.0100000   1.304585e-03  1.920112e-06
    174    197   2   0.50000    -0.1400000    0.0600000   3.205360e-04  1.719281e-07
    174    198   2   0.50000    -0.1400000    0.0600000   3.205360e-04  1.719281e-07
    182    190   2   0.50000     0.0600000    0.0100000   2.494471e-04  1.671101e-07
    182    197   2   0.50000     0.0600000    0.0600000   6.128906e-05  1.496315e-08
    182    198   2   0.50000     0.0600000    0.0600000   6.128906e-05  1.496315e-08
    173    176   2   0.50000     0.0100000   -0.1200000   1.015252e-03  1.866303e-06
    173    183   2   0.50000     0.0100000    0.0600000   2.494471e-04  1.671101e-07
    173    184   2   0.50000     0.0100000    0.0600000   2.494471e-04  1.671101e-07
    178    183   2   0.50000     0.5000000    0.0600000   3.869820e-04  3.188634e-07
    178    184   2   0.50000     0.5000000    0.0600000   3.869820e-04  3.188634e-07
    173    177   2   0.50000     0.0100000   -0.1200000   1.015252e-03  1.866303e-06
    173    179   2   0.50000     0.0100000   -0.5000000   1.095425e-03  1.218041e-06
    175    179   2   0.50000    -0.0500000   -0.5000000   1.095425e-03  1.218041e-06
    174    185   2   0.50000    -0.1400000    0.0600000   3.205360e-04  1.719281e-07
    174    186   2   0.50000    -0.1400000    0.0600000   3.205360e-04  1.719281e-07
    183    177   2   0.50000     0.0600000   -0.1200000   2.494471e-04  1.671101e-07
    183    185   2   0.50000     0.0600000    0.0600000   6.128906e-05  1.496315e-08
    183    186   2   0.50000     0.0600000    0.0600000   6.128906e-05  1.496315e-08
    184    177   2   0.50000     0.0600000   -0.1200000   2.494471e-04  1.671101e-07
    184    185   2   0.50000     0.0600000    0.0600000   6.128906e-05  1.496315e-08
    184    186   2   0.50000     0.0600000    0.0600000   6.128906e-05  1.496315e-08
    175    187   2   0.50000    -0.0500000    0.0600000   2.494471e-04  1.671101e-07
    175    188   2   0.50000    -0.0500000    0.0600000   2.494471e-04  1.671101e-07
    185    178   2   0.50000     0.0600000    0.5000000   3.869820e-04  3.188634e-07
    185    187   2   0.50000     0.0600000    0.0600000   6.128906e-05  1.496315e-08
    185    188   2   0.50000     0.0600000    0.0600000   6.128906e-05  1.496315e-08
    186    178   2   0.50000     0.0600000    0.5000000   3.869820e-04  3.188634e-07
    186    187   2   0.50000     0.0600000    0.0600000   6.128906e-05  1.496315e-08
    186    188   2   0.50000     0.0600000    0.0600000   6.128906e-05  1.496315e-08
    176    179   2   0.50000    -0.1200000   -0.5000000   1.095425e-03  1.218041e-06
    187    174   2   0.50000     0.0600000   -0.1400000   3.205360e-04  1.719281e-07
    187    179   2   0.50000     0.0600000   -0.5000000   2.691455e-04  1.090642e-07
    188    174   2   0.50000     0.0600000   -0.1400000   3.205360e-04  1.719281e-07
    188    179   2   0.50000     0.0600000   -0.5000000   2.691455e-04  1.090642e-07
    173    191   2   0.50000     0.0100000   -0.1400000   1.304585e-03  1.920112e-06
    173    199   2   0.50000     0.0100000    0.0600000   2.494471e-04  1.671101e-07
    173    206   2   0.50000     0.0100000   -0.1200000   1.015252e-03  1.866303e-06
    197    191   2   0.50000     0.0600000   -0.1400000   3.205360e-04  1.719281e-07
    197    199   2   0.50000     0.0600000    0.0600000   6.128906e-05  1.496315e-08
    197    206   2   0.50000     0.0600000   -0.1200000   2.494471e-04  1.671101e-07
    198    191   2   0.50000     0.0600000   -0.1400000   3.205360e-04  1.719281e-07
    198    199   2   0.50000     0.0600000    0.0600000   6.128906e-05  1.496315e-08
    198    206   2   0.50000     0.0600000   -0.1200000   2.494471e-04  1.671101e-07
    189    192   2   0.50000    -0.1200000   -0.0500000   1.015252e-03  1.866303e-06
    189    195   2   0.50000    -0.1200000    0.5000000   1.575021e-03  3.561100e-06
    199    192   2   0.50000     0.0600000   -0.0500000   2.494471e-04  1.671101e-07
    199    195   2   0.50000     0.0600000    0.5000000   3.869820e-04  3.188634e-07
    206    192   2   0.50000    -0.1200000   -0.0500000   1.015252e-03  1.866303e-06
    206    195   2   0.50000    -0.1200000    0.5000000   1.575021e-03  3.561100e-06
    189    207   2   0.50000    -0.1200000    0.0100000   1.015252e-03  1.866303e-06
    189    214   2   0.50000    -0.1200000    0.0600000   2.494471e-04  1.671101e-07
    189    215   2   0.50000    -0.1200000    0.0600000   2.494471e-04  1.671101e-07
    191    207   2   0.50000    -0.1400000    0.0100000   1.304585e-03  1.920112e-06
    191    214   2   0.50000    -0.1400000    0.0600000   3.205360e-04  1.719281e-07
    191    215   2   0.50000    -0.1400000    0.0600000   3.205360e-04  1.719281e-07
    199    207   2   0.50000     0.0600000    0.0100000   2.494471e-04  1.671101e-07
    199    214   2   0.50000     0.0600000    0.0600000   6.128906e-05  1.496315e-08
    199    215   2   0.50000     0.0600000    0.0600000   6.128906e-05  1.496315e-08
    190    193   2   0.50000     0.0100000   -0.1200000   1.015252e-03  1.866303e-06
    190    200   2   0.50000     0.0100000    0.0600000   2.494471e-04  1.671101e-07
    190    201   2   0.50000     0.0100000    0.0600000   2.494471e-04  1.671101e-07
    195    200   2   0.50000     0.5000000    0.0600000   3.869820e-04  3.188634e-07
    195    201   2   0.50000     0.5000000    0.0600000   3.869820e-04  3.188634e-07
    190    194   2   0.50000     0.0100000   -0.1200000   1.015252e-03  1.866303e-06
    190    196   2   0.50000     0.0100000   -0.5000000   1.095425e-03  1.218041e-06
    192    196   2   0.50000    -0.0500000   -0.5000000   1.095425e-03  1.218041e-06
    191    202   2   0.50000    -0.1400000    0.0600000   3.205360e-04  1.719281e-07
    191    203   2   0.50000    -0.1400000    0.0600000   3.205360e-04  1.719281e-07
    200    194   2   0.50000     0.0600000   -0.1200000   2.494471e-04  1.671101e-07
    200    202   2   0.50000     0.0600000    0.0600000   6.128906e-05  1.496315e-08
    200    203   2   0.50000     0.0600000    0.0600000   6.128906e-05  1.496315e-08
    201    194   2   0.50000     0.0600000   -0.1200000   2.494471e-04  1.671101e-07
    201    202   2   0.50000     0.0600000    0.0600000   6.128906e-05  1.496315e-08
    201    203   2   0.50000     0.0600000    0.0600000   6.128906e-05  1.496315e-08
    192    204   2   0.50000    -0.0500000    0.0600000   2.494471e-04  1.671101e-07
    192    205   2   0.50000    -0.0500000    0.0600000   2.494471e-04  1.671101e-07
    202    195   2   0.50000     0.0600000    0.5000000   3.869820e-04  3.188634e-07
    202    204   2   0.50000     0.0600000    0.0600000   6.128906e-05  1.496315e-08
    202    205   2   0.50000     0.0600000    0.0600000   6.128906e-05  1.496315e-08
    203    195   2   0.50000     0.0600000    0.5000000   3.869820e-04  3.188634e-07
    203    204   2   0.50000     0.0600000    0.0600000   6.128906e-05  1.496315e-08
    203    205   2   0.50000     0.0600000    0.0600000   6.128906e-05  1.496315e-08
    193    196   2   0.50000    -0.1200000   -0.5000000   1.095425e-03  1.218041e-06
    204    191   2   0.50000     0.0600000   -0.1400000   3.205360e-04  1.719281e-07
    204    196   2   0.50000     0.0600000   -0.5000000   2.691455e-04  1.090642e-07
    205    191   2   0.50000     0.0600000   -0.1400000   3.205360e-04  1.719281e-07
    205    196   2   0.50000     0.0600000   -0.5000000   2.691455e-04  1.090642e-07
    190    208   2   0.50000     0.0100000   -0.1400000   1.304585e-03  1.920112e-06
    190    216   2   0.50000     0.0100000    0.0600000   2.494471e-04  1.671101e-07
    190    223   2   0.50000     0.0100000   -0.1200000   1.015252e-03  1.866303e-06
    214    208   2   0.50000     0.0600000   -0.1400000   3.205360e-04  1.719281e-07
    214    216   2   0.50000     0.0600000    0.0600000   6.128906e-05  1.496315e-08
    214    223   2   0.50000     0.0600000   -0.1200000   2.494471e-04  1.671101e-07
    215    208   2   0.50000     0.0600000   -0.1400000   3.205360e-04  1.719281e-07
    215    216   2   0.50000     0.0600000    0.0600000   6.128906e-05  1.496315e-08
    215    223   2   0.50000     0.0600000   -0.1200000   2.494471e-04  1.671101e-07
    206    209   2   0.50000    -0.1200000   -0.0500000   1.015252e-03  1.866303e-06
    206    212   2   0.50000    -0.1200000    0.5000000   1.575021e-03  3.561100e-06
    216    209   2   0.50000     0.0600000   -0.0500000   2.494471e-04  1.671101e-07
    216    212   2   0.50000     0.0600000    0.5000000   3.869820e-04  3.188634e-07
    223    209   2   0.50000    -0.1200000   -0.0500000   1.015252e-03  1.866303e-06
    223    212   2   0.50000    -0.1200000    0.5000000   1.575021e-03  3.561100e-06
    206    224   2   0.50000    -0.1200000    0.0100000   1.015252e-03  1.866303e-06
    206    231   2   0.50000    -0.1200000    0.0600000   2.494471e-04  1.671101e-07
    206    232   2   0.50000    -0.1200000    0.0600000   2.494471e-04  1.671101e-07
    208    224   2   0.50000    -0.1400000    0.0100000   1.304585e-03  1.920112e-06
    208    231   2   0.50000    -0.1400000    0.0600000   3.205360e-04  1.719281e-07
    208    232   2   0.50000    -0.1400000    0.0600000   3.205360e-04  1.719281e-07
    216    224   2   0.50000     0.0600000    0.0100000   2.494471e-04  1.671101e-07
    216    231   2   0.50000     0.0600000    0.0600000   6.128906e-05  1.496315e-08
    216    232   2   0.50000     0.0600000    0.0600000   6.128906e-05  1.496315e-08
    207    210   2   0.50000     0.0100000   -0.1200000   1.015252e-03  1.866303e-06
    207    217   2   0.50000     0.0100000    0.0600000   2.494471e-04  1.671101e-07
    207    218   2   0.50000     0.0100000    0.0600000   2.494471e-04  1.671101e-07
    212    217   2   0.50000     0.5000000    0.0600000   3.869820e-04  3.188634e-07
    212    218   2   0.50000     0.5000000    0.0600000   3.869820e-04  3.188634e-07
    207    211   2   0.50000     0.0100000   -0.1200000   1.015252e-03  1.866303e-06
    207    213   2   0.50000     0.0100000   -0.5000000   1.095425e-03  1.218041e-06
    209    213   2   0.50000    -0.0500000   -0.5000000   1.095425e-03  1.218041e-06
    208    219   2   0.50000    -0.1400000    0.0600000   3.205360e-04  1.719281e-07
    208    220   2   0.50000    -0.1400000    0.0600000   3.205360e-04  1.719281e-07
    217    211   2   0.50000     0.0600000   -0.1200000   2.494471e-04  1.671101e-07
    217    219   2   0.50000     0.0600000    0.0600000   6.128906e-05  1.496315e-08
    217    220   2   0.50000     0.0600000    0.0600000   6.128906e-05  1.496315e-08
    218    211   2   0.50000     0.0600000   -0.1200000   2.494471e-04  1.671101e-07
    218    219   2   0.50000     0.0600000    0.0600000   6.128906e-05  1.496315e-08
    218    220   2   0.50000     0.0600000    0.0600000   6.128906e-05  1.496315e-08
    209    221   2   0.50000    -0.0500000    0.0600000   2.494471e-04  1.671101e-07
    209    222   2   0.50000    -0.0500000    0.0600000   2.494471e-04  1.671101e-07
    219    212   2   0.50000     0.0600000    0.5000000   3.869820e-04  3.188634e-07
    219    221   2   0.50000     0.0600000    0.0600000   6.128906e-05  1.496315e-08
    219    222   2   0.50000     0.0600000    0.0600000   6.128906e-05  1.496315e-08
    220    212   2   0.50000     0.0600000    0.5000000   3.869820e-04  3.188634e-07
    220    221   2   0.50000     0.0600000    0.0600000   6.128906e-05  1.496315e-08
    220    222   2   0.50000     0.0600000    0.0600000   6.128906e-05  1.496315e-08
    210    213   2   0.50000    -0.1200000   -0.5000000   1.095425e-03  1.218041e-06
    221    208   2   0.50000     0.0600000   -0.1400000   3.205360e-04  1.719281e-07
    221    213   2   0.50000     0.0600000   -0.5000000   2.691455e-04  1.090642e-07
    222    208   2   0.50000     0.0600000   -0.1400000   3.205360e-04  1.719281e-07
    222    213   2   0.50000     0.0600000   -0.5000000   2.691455e-04  1.090642e-07
    207    225   2   0.50000     0.0100000   -0.1400000   1.304585e-03  1.920112e-06
    207    233   2   0.50000     0.0100000    0.0600000   2.494471e-04  1.671101e-07
    207    240   2   0.50000     0.0100000   -0.1200000   1.015252e-03  1.866303e-06
    231    225   2   0.50000     0.0600000   -0.1400000   3.205360e-04  1.719281e-07
    231    233   2   0.50000     0.0600000    0.0600000   6.128906e-05  1.496315e-08
    231    240   2   0.50000     0.0600000   -0.1200000   2.494471e-04  1.671101e-07
    232    225   2   0.50000     0.0600000   -0.1400000   3.205360e-04  1.719281e-07
    232    233   2   0.50000     0.0600000    0.0600000   6.128906e-05  1.496315e-08
    232    240   2   0.50000     0.0600000   -0.1200000   2.494471e-04  1.671101e-07
    223    226   2   0.50000    -0.1200000   -0.0500000   1.015252e-03  1.866303e-06
    223    229   2   0.50000    -0.1200000    0.5000000   1.575021e-03  3.561100e-06
    233    226   2   0.50000     0.0600000   -0.0500000   2.494471e-04  1.671101e-07
    233    229   2   0.50000     0.0600000    0.5000000   3.869820e-04  3.188634e-07
    240    226   2   0.50000    -0.1200000   -0.0500000   1.015252e-03  1.866303e-06
    240    229   2   0.50000    -0.1200000    0.5000000   1.575021e-03  3.561100e-06
    223    241   2   0.50000    -0.1200000    0.0100000   1.015252e-03  1.866303e-06
    223    248   2   0.50000    -0.1200000    0.0600000   2.494471e-04  1.671101e-07
    223    249   2   0.50000    -0.1200000    0.0600000   2.494471e-04  1.671101e-07
    225    241   2   0.50000    -0.1400000    0.0100000   1.304585e-03  1.920112e-06
    225    248   2   0.50000    -0.1400000    0.0600000   3.205360e-04  1.719281e-07
    225    249   2   0.50000    -0.1400000    0.0600000   3.205360e-04  1.719281e-07
    233    241   2   0.50000     0.0600000    0.0100000   2.494471e-04  1.671101e-07
    233    248   2   0.50000     0.0600000    0.0600000   6.128906e-05  1.496315e-08
    233    249   2   0.50000     0.0600000    0.0600000   6.128906e-05  1.496315e-08
    224    227   2   0.50000     0.0100000   -0.1200000   1.015252e-03  1.866303e-06
    224    234   2   0.50000     0.0100000    0.0600000   2.494471e-04  1.671101e-07
    224    235   2   0.50000     0.0100000    0.0600000   2.494471e-04  1.671101e-07
    229    234   2   0.50000     0.5000000    0.0600000   3.869820e-04  3.188634e-07
    229    235   2   0.50000     0.5000000    0.0600000   3.869820e-04  3.188634e-07
    224    228   2   0.50000     0.0100000   -0.1200000   1.015252e-03  1.866303e-06
    224    230   2   0.50000     0.0100000   -0.5000000   1.095425e-03  1.218041e-06
    226    230   2   0.50000    -0.0500000   -0.5000000   1.095425e-03  1.218041e-06
    225    236   2   0.50000    -0.1400000    0.0600000   3.205360e-04  1.719281e-07
    225    237   2   0.50000    -0.1400000    0.0600000   3.205360e-04  1.719281e-07
    234    228   2   0.50000     0.0600000   -0.1200000   2.494471e-04  1.671101e-07
    234    236   2   0.50000     0.0600000    0.0600000   6.128906e-05  1.496315e-08
    234    237   2   0.50000     0.0600000    0.0600000   6.128906e-05  1.496315e-08
    235    228   2   0.50000     0.0600000   -0.1200000   2.494471e-04  1.671101e-07
    235    236   2   0.50000     0.0600000    0.0600000   6.128906e-05  1.496315e-08
    235    237   2   0.50000     0.0600000    0.0600000   6.128906e-05  1.496315e-08
    226    238   2   0.50000    -0.0500000    0.0600000   2.494471e-04  1.671101e-07
    226    239   2   0.50000    -0.0500000    0.0600000   2.494471e-04  1.671101e-07
    236    229   2   0.50000     0.0600000    0.5000000   3.869820e-04  3.188634e-07
    236    238   2   0.50000     0.0600000    0.0600000   6.128906e-05  1.496315e-08
    236    239   2   0.50000     0.0600000    0.0600000   6.128906e-05  1.496315e-08
    237    229   2   0.50000     0.0600000    0.5000000   3.869820e-04  3.188634e-07
    237    238   2   0.50000     0.0600000    0.0600000   6.128906e-05  1.496315e-08
    237    239   2   0.50000     0.0600000    0.0600000   6.128906e-05  1.496315e-08
    227    230   2   0.50000    -0.1200000   -0.5000000   1.095425e-03  1.218041e-06
    238    225   2   0.50000     0.0600000   -0.1400000   3.205360e-04  1.719281e-07
    238    230   2   0.50000     0.0600000   -0.5000000   2.691455e-04  1.090642e-07
    239    225   2   0.50000     0.0600000   -0.1400000   3.205360e-04  1.719281e-07
    239    230   2   0.50000     0.0600000   -0.5000000   2.691455e-04  1.090642e-07
    224    242   2   0.50000     0.0100000   -0.1400000   1.304585e-03  1.920112e-06
    224    250   2   0.50000     0.0100000    0.0600000   2.494471e-04  1.671101e-07
    224    257   2   0.50000     0.0100000   -0.1200000   1.015252e-03  1.866303e-06
    248    242   2   0.50000     0.0600000   -0.1400000   3.205360e-04  1.719281e-07
    248    250   2   0.50000     0.0600000    0.0600000   6.128906e-05  1.496315e-08
    248    257   2   0.50000     0.0600000   -0.1200000   2.494471e-04  1.671101e-07
    249    242   2   0.50000     0.0600000   -0.1400000   3.205360e-04  1.719281e-07
    249    250   2   0.50000     0.0600000    0.0600000   6.128906e-05  1.496315e-08
    249    257   2   0.50000     0.0600000   -0.1200000   2.494471e-04  1.671101e-07
    240    243   2   0.50000    -0.1200000   -0.0500000   1.015252e-03  1.866303e-06
    240    246   2   0.50000    -0.1200000    0.5000000   1.575021e-03  3.561100e-06
    250    243   2   0.50000     0.0600000   -0.0500000   2.494471e-04  1.671101e-07
    250    246   2   0.50000     0.0600000    0.5000000   3.869820e-04  3.188634e-07
    257    243   2   0.50000    -0.1200000   -0.0500000   1.015252e-03  1.866303e-06
    257    246   2   0.50000    -0.1200000    0.5000000   1.575021e-03  3.561100e-06
    240    258   2   0.50000    -0.1200000    0.0100000   1.015252e-03  1.866303e-06
    240    265   2   0.50000    -0.1200000    0.0600000   2.494471e-04  1.671101e-07
    240    266   2   0.50000    -0.1200000    0.0600000   2.494471e-04  1.671101e-07
    242    258   2   0.50000    -0.1400000    0.0100000   1.304585e-03  1.920112e-06
    242    265   2   0.50000    -0.1400000    0.0600000   3.205360e-04  1.719281e-07
    242    266   2   0.50000    -0.1400000    0.0600000   3.205360e-04  1.719281e-07
    250    258   2   0.50000     0.0600000    0.0100000   2.494471e-04  1.671101e-07
    250    265   2   0.50000     0.0600000    0.0600000   6.128906e-05  1.496315e-08
    250    266   2   0.50000     0.0600000    0.0600000   6.128906e-05  1.496315e-08
    241    244   2   0.50000     0.0100000   -0.1200000   1.015252e-03  1.866303e-06
    241    251   2   0.50000     0.0100000    0.0600000   2.494471e-04  1.671101e-07
    241    252   2   0.50000     0.0100000    0.0600000   2.494471e-04  1.671101e-07
    246    251   2   0.50000     0.5000000    0.0600000   3.869820e-04  3.188634e-07
    246    252   2   0.50000     0.5000000    0.0600000   3.869820e-04  3.188634e-07
    241    245   2   0.50000     0.0100000   -0.1200000   1.015252e-03  1.866303e-06
    241    247   2   0.50000     0.0100000   -0.5000000   1.095425e-03  1.218041e-06
    243    247   2   0.50000    -0.0500000   -0.5000000   1.095425e-03  1.218041e-06
    242    253   2   0.50000    -0.1400000    0.0600000   3.205360e-04  1.719281e-07
    242    254   2   0.50000    -0.1400000    0.0600000   3.205360e-04  1.719281e-07
    251    245   2   0.50000     0.0600000   -0.1200000   2.494471e-04  1.671101e-07
    251    253   2   0.50000     0.0600000    0.0600000   6.128906e-05  1.496315e-08
    251    254   2   0.50000     0.0600000    0.0600000   6.128906e-05  1.496315e-08
    252    245   2   0.50000     0.0600000   -0.1200000   2.494471e-04  1.671101e-07
    252    253   2   0.50000     0.0600000    0.0600000   6.128906e-05  1.496315e-08
    252    254   2   0.50000     0.0600000    0.0600000   6.128906e-05  1.496315e-08
    243    255   2   0.50000    -0.0500000    0.0600000   2.494471e-04  1.671101e-07
    243    256   2   0.50000    -0.0500000    0.0600000   2.494471e-04  1.671101e-07
    253    246   2   0.50000     0.0600000    0.5000000   3.869820e-04  3.188634e-07
    253    255   2   0.50000     0.0600000    0.0600000   6.128906e-05  1.496315e-08
    253    256   2   0.50000     0.0600000    0.0600000   6.128906e-05  1.496315e-08
    254    246   2   0.50000     0.0600000    0.5000000   3.869820e-04  3.188634e-07
    254    255   2   0.50000     0.0600000    0.0600000   6.128906e-05  1.496315e-08
    254    256   2   0.50000     0.0600000    0.0600000   6.128906e-05  1.496315e-08
    244    247   2   0.50000    -0.1200000   -0.5000000   1.095425e-03  1.218041e-06
    255    242   2   0.50000     0.0600000   -0.1400000   3.205360e-04  1.719281e-07
    255    247   2   0.50000     0.0600000   -0.5000000   2.691455e-04  1.090642e-07
    256    242   2   0.50000     0.0600000   -0.1400000   3.205360e-04  1.719281e-07
    256    247   2   0.50000     0.0600000   -0.5000000   2.691455e-04  1.090642e-07
    241    259   2   0.50000     0.0100000   -0.1400000   1.304585e-03  1.920112e-06
    241    267   2   0.50000     0.0100000    0.0600000   2.494471e-04  1.671101e-07
    241    274   2   0.50000     0.0100000   -0.1200000   1.015252e-03  1.866303e-06
    265    259   2   0.50000     0.0600000   -0.1400000   3.205360e-04  1.719281e-07
    265    267   2   0.50000     0.0600000    0.0600000   6.128906e-05  1.496315e-08
    265    274   2   0.50000     0.0600000   -0.1200000   2.494471e-04  1.671101e-07
    266    259   2   0.50000     0.0600000   -0.1400000   3.205360e-04  1.719281e-07
    266    267   2   0.50000     0.0600000    0.0600000   6.128906e-05  1.496315e-08
    266    274   2   0.50000     0.0600000   -0.1200000   2.494471e-04  1.671101e-07
    257    260   2   0.50000    -0.1200000   -0.0500000   1.015252e-03  1.866303e-06
    257    263   2   0.50000    -0.1200000    0.5000000   1.575021e-03  3.561100e-06
    267    260   2   0.50000     0.0600000   -0.0500000   2.494471e-04  1.671101e-07
    267    263   2   0.50000     0.0600000    0.5000000   3.869820e-04  3.188634e-07
    274    260   2   0.50000    -0.1200000   -0.0500000   1.015252e-03  1.866303e-06
    274    263   2   0.50000    -0.1200000    0.5000000   1.575021e-03  3.561100e-06
    257    275   2   0.50000    -0.1200000    0.0100000   1.015252e-03  1.866303e-06
    257    282   2   0.50000    -0.1200000    0.0600000   2.494471e-04  1.671101e-07
    257    283   2   0.50000    -0.1200000    0.0600000   2.494471e-04  1.671101e-07
    259    275   2   0.50000    -0.1400000    0.0100000   1.304585e-03  1.920112e-06
    259    282   2   0.50000    -0.1400000    0.0600000   3.205360e-04  1.719281e-07
    259    283   2   0.50000    -0.1400000    0.0600000   3.205360e-04  1.719281e-07
    267    275   2   0.50000     0.0600000    0.0100000   2.494471e-04  1.671101e-07
    267    282   2   0.50000     0.0600000    0.0600000   6.128906e-05  1.496315e-08
    267    283   2   0.50000     0.0600000    0.0600000   6.128906e-05  1.496315e-08
    258    261   2   0.50000     0.0100000   -0.1200000   1.015252e-03  1.866303e-06
    258    268   2   0.50000     0.0100000    0.0600000   2.494471e-04  1.671101e-07
    258    269   2   0.50000     0.0100000    0.0600000   2.494471e-04  1.671101e-07
    263    268   2   0.50000     0.5000000    0.0600000   3.869820e-04  3.188634e-07
    263    269   2   0.50000     0.5000000    0.0600000   3.869820e-04  3.188634e-07
    258    262   2   0.50000     0.0100000   -0.1200000   1.015252e-03  1.866303e-06
    258    264   2   0.50000     0.0100000   -0.5000000   1.095425e-03  1.218041e-06
    260    264   2   0.50000    -0.0500000   -0.5000000   1.095425e-03  1.218041e-06
    259    270   2   0.50000    -0.1400000    0.0600000   3.205360e-04  1.719281e-07
    259    271   2   0.50000    -0.1400000    0.0600000   3.205360e-04  1.719281e-07
    268    262   2   0.50000     0.0600000   -0.1200000   2.494471e-04  1.671101e-07
    268    270   2   0.50000     0.0600000    0.0600000   6.128906e-05  1.496315e-08
    268    271   2   0.50000     0.0600000    0.0600000   6.128906e-05  1.496315e-08
    269    262   2   0.50000     0.0600000   -0.1200000   2.494471e-04  1.671101e-07
    269    270   2   0.50000     0.0600000    0.0600000   6.128906e-05  1.496315e-08
    269    271   2   0.50000     0.0600000    0.0600000   6.128906e-05  1.496315e-08
    260    272   2   0.50000    -0.0500000    0.0600000   2.494471e-04  1.671101e-07
    260    273   2   0.50000    -0.0500000    0.0600000   2.494471e-04  1.671101e-07
    270    263   2   0.50000     0.0600000    0.5000000   3.869820e-04  3.188634e-07
    270    272   2   0.50000     0.0600000    0.0600000   6.128906e-05  1.496315e-08
    270    273   2   0.50000     0.0600000    0.0600000   6.128906e-05  1.496315e-08
    271    263   2   0.50000     0.0600000    0.5000000   3.869820e-04  3.188634e-07
    271    272   2   0.50000     0.0600000    0.0600000   6.128906e-05  1.496315e-08
    271    273   2   0.50000     0.0600000    0.0600000   6.128906e-05  1.496315e-08
    261    264   2   0.50000    -0.1200000   -0.5000000   1.095425e-03  1.218041e-06
    272    259   2   0.50000     0.0600000   -0.1400000   3.205360e-04  1.719281e-07
    272    264   2   0.50000     0.0600000   -0.5000000   2.691455e-04  1.090642e-07
    273    259   2   0.50000     0.0600000   -0.1400000   3.205360e-04  1.719281e-07
    273    264   2   0.50000     0.0600000   -0.5000000   2.691455e-04  1.090642e-07
    258    276   2   0.50000     0.0100000   -0.1400000   1.304585e-03  1.920112e-06
    258    284   2   0.50000     0.0100000    0.0600000   2.494471e-04  1.671101e-07
    258    291   2   0.50000     0.0100000   -0.1200000   1.015252e-03  1.866303e-06
    282    276   2   0.50000     0.0600000   -0.1400000   3.205360e-04  1.719281e-07
    282    284   2   0.50000     0.0600000    0.0600000   6.128906e-05  1.496315e-08
    282    291   2   0.50000     0.0600000   -0.1200000   2.494471e-04  1.671101e-07
    283    276   2   0.50000     0.0600000   -0.1400000   3.205360e-04  1.719281e-07
    283    284   2   0.50000     0.0600000    0.0600000   6.128906e-05  1.496315e-08
    283    291   2   0.50000     0.0600000   -0.1200000   2.494471e-04  1.671101e-07
    274    277   2   0.50000    -0.1200000   -0.0500000   1.015252e-03  1.866303e-06
    274    280   2   0.50000    -0.1200000    0.5000000   1.575021e-03  3.561100e-06
    284    277   2   0.50000     0.0600000   -0.0500000   2.494471e-04  1.671101e-07
    284    280   2   0.50000     0.0600000    0.5000000   3.869820e-04  3.188634e-07
    291    277   2   0.50000    -0.1200000   -0.0500000   1.015252e-03  1.866303e-06
    291    280   2   0.50000    -0.1200000    0.5000000   1.575021e-03  3.561100e-06
    274    292   2   0.50000    -0.1200000    0.0100000   1.015252e-03  1.866303e-06
    274    299   2   0.50000    -0.1200000    0.0600000   2.494471e-04  1.671101e-07
    274    300   2   0.50000    -0.1200000    0.0600000   2.494471e-04  1.671101e-07
    276    292   2   0.50000    -0.1400000    0.0100000   1.304585e-03  1.920112e-06
    276    299   2   0.50000    -0.1400000    0.0600000   3.205360e-04  1.719281e-07
    276    300   2   0.50000    -0.1400000    0.0600000   3.205360e-04  1.719281e-07
    284    292   2   0.50000     0.0600000    0.0100000   2.494471e-04  1.671101e-07
    284    299   2   0.50000     0.0600000    0.0600000   6.128906e-05  1.496315e-08
    284    300   2   0.50000     0.0600000    0.0600000   6.128906e-05  1.496315e-08
    275    278   2   0.50000     0.0100000   -0.1200000   1.015252e-03  1.866303e-06
    275    285   2   0.50000     0.0100000    0.0600000   2.494471e-04  1.671101e-07
    275    286   2   0.50000     0.0100000    0.0600000   2.494471e-04  1.671101e-07
    280    285   2   0.50000     0.5000000    0.0600000   3.869820e-04  3.188634e-07
    280    286   2   0.50000     0.5000000    0.0600000   3.869820e-04  3.188634e-07
    275    279   2   0.50000     0.0100000   -0.1200000   1.015252e-03  1.866303e-06
    275    281   2   0.50000     0.0100000   -0.5000000   1.095425e-03  1.218041e-06
    277    281   2   0.50000    -0.0500000   -0.5000000   1.095425e-03  1.218041e-06
    276    287   2   0.50000    -0.1400000    0.0600000   3.205360e-04  1.719281e-07
    276    288   2   0.50000    -0.1400000    0.0600000   3.205360e-04  1.719281e-07
    285    279   2   0.50000     0.0600000   -0.1200000   2.494471e-04  1.671101e-07
    285    287   2   0.50000     0.0600000    0.0600000   6.128906e-05  1.496315e-08
    285    288   2   0.50000     0.0600000    0.0600000   6.128906e-05  1.496315e-08
    286    279   2   0.50000     0.0600000   -0.1200000   2.494471e-04  1.671101e-07
    286    287   2   0.50000     0.0600000    0.0600000   6.128906e-05  1.496315e-08
    286    288   2   0.50000     0.0600000    0.0600000   6.128906e-05  1.496315e-08
    277    289   2   0.50000    -0.0500000    0.0600000   2.494471e-04  1.671101e-07
    277    290   2   0.50000    -0.0500000    0.0600000   2.494471e-04  1.671101e-07
    287    280   2   0.50000     0.0600000    0.5000000   3.869820e-04  3.188634e-07
    287    289   2   0.50000     0.0600000    0.0600000   6.128906e-05  1.496315e-08
    287    290   2   0.50000     0.0600000    0.0600000   6.128906e-05  1.496315e-08
    288    280   2   0.50000     0.0600000    0.5000000   3.869820e-04  3.188634e-07
    288    289   2   0.50000     0.0600000    0.0600000   6.128906e-05  1.496315e-08
    288    290   2   0.50000     0.0600000    0.0600000   6.128906e-05  1.496315e-08
    278    281   2   0.50000    -0.1200000   -0.5000000   1.095425e-03  1.218041e-06
    289    276   2   0.50000     0.0600000   -0.1400000   3.205360e-04  1.719281e-07
    289    281   2   0.50000     0.0600000   -0.5000000   2.691455e-04  1.090642e-07
    290    276   2   0.50000     0.0600000   -0.1400000   3.205360e-04  1.719281e-07
    290    281   2   0.50000     0.0600000   -0.5000000   2.691455e-04  1.090642e-07
    275    293   2   0.50000     0.0100000   -0.1400000   1.304585e-03  1.920112e-06
    275    301   2   0.50000     0.0100000    0.0600000   2.494471e-04  1.671101e-07
    275    308   2   0.50000     0.0100000   -0.1200000   1.015252e-03  1.866303e-06
    299    293   2   0.50000     0.0600000   -0.1400000   3.205360e-04  1.719281e-07
    299    301   2   0.50000     0.0600000    0.0600000   6.128906e-05  1.496315e-08
    299    308   2   0.50000     0.0600000   -0.1200000   2.494471e-04  1.671101e-07
    300    293   2   0.50000     0.0600000   -0.1400000   3.205360e-04  1.719281e-07
    300    301   2   0.50000     0.0600000    0.0600000   6.128906e-05  1.496315e-08
    300    308   2   0.50000     0.0600000   -0.1200000   2.494471e-04  1.671101e-07
    291    294   2   0.50000    -0.1200000   -0.0500000   1.015252e-03  1.866303e-06
    291    297   2   0.50000    -0.1200000    0.5000000   1.575021e-03  3.561100e-06
    301    294   2   0.50000     0.0600000   -0.0500000   2.494471e-04  1.671101e-07
    301    297   2   0.50000     0.0600000    0.5000000   3.869820e-04  3.188634e-07
    308    294   2   0.50000    -0.1200000   -0.0500000   1.015252e-03  1.866303e-06
    308    297   2   0.50000    -0.1200000    0.5000000   1.575021e-03  3.561100e-06
    291    309   2   0.50000    -0.1200000    0.0100000   1.015252e-03  1.866303e-06
    291    316   2   0.50000    -0.1200000    0.0600000   2.494471e-04  1.671101e-07
    291    317   2   0.50000    -0.1200000    0.0600000   2.494471e-04  1.671101e-07
    293    309   2   0.50000    -0.1400000    0.0100000   1.304585e-03  1.920112e-06
    293    316   2   0.50000    -0.1400000    0.0600000   3.205360e-04  1.719281e-07
    293    317   2   0.50000    -0.1400000    0.0600000   3.205360e-04  1.719281e-07
    301    309   2   0.50000     0.0600000    0.0100000   2.494471e-04  1.671101e-07
    301    316   2   0.50000     0.0600000    0.0600000   6.128906e-05  1.496315e-08
    301    317   2   0.50000     0.0600000    0.0600000   6.128906e-05  1.496315e-08
    292    295   2   0.50000     0.0100000   -0.1200000   1.015252e-03  1.866303e-06
    292    302   2   0.50000     0.0100000    0.0600000   2.494471e-04  1.671101e-07
    292    303   2   0.50000     0.0100000    0.0600000   2.494471e-04  1.671101e-07
    297    302   2   0.50000     0.5000000    0.0600000   3.869820e-04  3.188634e-07
    297    303   2   0.50000     0.5000000    0.0600000   3.869820e-04  3.188634e-07
    292    296   2   0.50000     0.0100000   -0.1200000   1.015252e-03  1.866303e-06
    292    298   2   0.50000     0.0100000   -0.5000000   1.095425e-03  1.218041e-06
    294    298   2   0.50000    -0.0500000   -0.5000000   1.095425e-03  1.218041e-06
    293    304   2   0.50000    -0.1400000    0.0600000   3.205360e-04  1.719281e-07
    293    305   2   0.50000    -0.1400000    0.0600000   3.205360e-04  1.719281e-07
    302    296   2   0.50000     0.0600000   -0.1200000   2.494471e-04  1.671101e-07
    302    304   2   0.50000     0.0600000    0.0600000   6.128906e-05  1.496315e-08
    302    305   2   0.50000     0.0600000    0.0600000   6.128906e-05  1.496315e-08
    303    296   2   0.50000     0.0600000   -0.1200000   2.494471e-04  1.671101e-07
    303    304   2   0.50000     0.0600000    0.0600000   6.128906e-05  1.496315e-08
    303    305   2   0.50000     0.0600000    0.0600000   6.128906e-05  1.496315e-08
    294    306   2   0.50000    -0.0500000    0.0600000   2.494471e-04  1.671101e-07
    294    307   2   0.50000    -0.0500000    0.0600000   2.494471e-04  1.671101e-07
    304    297   2   0.50000     0.0600000    0.5000000   3.869820e-04  3.188634e-07
    304    306   2   0.50000     0.0600000    0.0600000   6.128906e-05  1.496315e-08
    304    307   2   0.50000     0.0600000    0.0600000   6.128906e-05  1.496315e-08
    305    297   2   0.50000     0.0600000    0.5000000   3.869820e-04  3.188634e-07
    305    306   2   0.50000     0.0600000    0.0600000   6.128906e-05  1.496315e-08
    305    307   2   0.50000     0.0600000    0.0600000   6.128906e-05  1.496315e-08
    295    298   2   0.50000    -0.1200000   -0.5000000   1.095425e-03  1.218041e-06
    306    293   2   0.50000     0.0600000   -0.1400000   3.205360e-04  1.719281e-07
    306    298   2   0.50000     0.0600000   -0.5000000   2.691455e-04  1.090642e-07
    307    293   2   0.50000     0.0600000   -0.1400000   3.205360e-04  1.719281e-07
    307    298   2   0.50000     0.0600000   -0.5000000   2.691455e-04  1.090642e-07
    292    310   2   0.50000     0.0100000   -0.1400000   1.304585e-03  1.920112e-06
    292    318   2   0.50000     0.0100000    0.0600000   2.494471e-04  1.671101e-07
    292    325   2   0.50000     0.0100000   -0.1200000   1.015252e-03  1.866303e-06
    316    310   2   0.50000     0.0600000   -0.1400000   3.205360e-04  1.719281e-07
    316    318   2   0.50000     0.0600000    0.0600000   6.128906e-05  1.496315e-08
    316    325   2   0.50000     0.0600000   -0.1200000   2.494471e-04  1.671101e-07
    317    310   2   0.50000     0.0600000   -0.1400000   3.205360e-04  1.719281e-07
    317    318   2   0.50000     0.0600000    0.0600000   6.128906e-05  1.496315e-08
    317    325   2   0.50000     0.0600000   -0.1200000   2.494471e-04  1.671101e-07
    308    311   2   0.50000    -0.1200000   -0.0500000   1.015252e-03  1.866303e-06
    308    314   2   0.50000    -0.1200000    0.5000000   1.575021e-03  3.561100e-06
    318    311   2   0.50000     0.0600000   -0.0500000   2.494471e-04  1.671101e-07
    318    314   2   0.50000     0.0600000    0.5000000   3.869820e-04  3.188634e-07
    325    311   2   0.50000    -0.1200000   -0.0500000   1.015252e-03  1.866303e-06
    325    314   2   0.50000    -0.1200000    0.5000000   1.575021e-03  3.561100e-06
    308    326   2   0.50000    -0.1200000   -0.0500000   1.015252e-03  1.866303e-06
    308    333   2   0.50000    -0.1200000    0.0600000   2.494471e-04  1.671101e-07
    308    334   2   0.50000    -0.1200000    0.0600000   2.494471e-04  1.671101e-07
    310    326   2   0.50000    -0.1400000   -0.0500000   1.304585e-03  1.920112e-06
    310    333   2   0.50000    -0.1400000    0.0600000   3.205360e-04  1.719281e-07
    310    334   2   0.50000    -0.1400000    0.0600000   3.205360e-04  1.719281e-07
    318    326   2   0.50000     0.0600000   -0.0500000   2.494471e-04  1.671101e-07
    318    333   2   0.50000     0.0600000    0.0600000   6.128906e-05  1.496315e-08
    318    334   2   0.50000     0.0600000    0.0600000   6.128906e-05  1.496315e-08
    309    312   2   0.50000     0.0100000   -0.1200000   1.015252e-03  1.866303e-06
    309    319   2   0.50000     0.0100000    0.0600000   2.494471e-04  1.671101e-07
    309    320   2   0.50000     0.0100000    0.0600000   2.494471e-04  1.671101e-07
    314    319   2   0.50000     0.5000000    0.0600000   3.869820e-04  3.188634e-07
    314    320   2   0.50000     0.5000000    0.0600000   3.869820e-04  3.188634e-07
    309    313   2   0.50000     0.0100000   -0.1200000   1.015252e-03  1.866303e-06
    309    315   2   0.50000     0.0100000   -0.5000000   1.095425e-03  1.218041e-06
    311    315   2   0.50000    -0.0500000   -0.5000000   1.095425e-03  1.218041e-06
    310    321   2   0.50000    -0.1400000    0.0600000   3.205360e-04  1.719281e-07
    310    322   2   0.50000    -0.1400000    0.0600000   3.205360e-04  1.719281e-07
    319    313   2   0.50000     0.0600000   -0.1200000   2.494471e-04  1.671101e-07
    319    321   2   0.50000     0.0600000    0.0600000   6.128906e-05  1.496315e-08
    319    322   2   0.50000     0.0600000    0.0600000   6.128906e-05  1.496315e-08
    320    313   2   0.50000     0.0600000   -0.1200000   2.494471e-04  1.671101e-07
    320    321   2   0.50000     0.0600000    0.0600000   6.128906e-05  1.496315e-08
    320    322   2   0.50000     0.0600000    0.0600000   6.128906e-05  1.496315e-08
    311    323   2   0.50000    -0.0500000    0.0600000   2.494471e-04  1.671101e-07
    311    324   2   0.50000    -0.0500000    0.0600000   2.494471e-04  1.671101e-07
    321    314   2   0.50000     0.0600000    0.5000000   3.869820e-04  3.188634e-07
    321    323   2   0.50000     0.0600000    0.0600000   6.128906e-05  1.496315e-08
    321    324   2   0.50000     0.0600000    0.0600000   6.128906e-05  1.496315e-08
    322    314   2   0.50000     0.0600000    0.5000000   3.869820e-04  3.188634e-07
    322    323   2   0.50000     0.0600000    0.0600000   6.128906e-05  1.496315e-08
    322    324   2   0.50000     0.0600000    0.0600000   6.128906e-05  1.496315e-08
    312    315   2   0.50000    -0.1200000   -0.5000000   1.095425e-03  1.218041e-06
    323    310   2   0.50000     0.0600000   -0.1400000   3.205360e-04  1.719281e-07
    323    315   2   0.50000     0.0600000   -0.5000000   2.691455e-04  1.090642e-07
    324    310   2   0.50000     0.0600000   -0.1400000   3.205360e-04  1.719281e-07
    324    315   2   0.50000     0.0600000   -0.5000000   2.691455e-04  1.090642e-07
    309    327   2   0.50000     0.0100000   -0.1400000   1.304585e-03  1.920112e-06
    309    335   2   0.50000     0.0100000    0.0600000   2.494471e-04  1.671101e-07
    309    342   2   0.50000     0.0100000    0.0600000   2.494471e-04  1.671101e-07
    333    327   2   0.50000     0.0600000   -0.1400000   3.205360e-04  1.719281e-07
    333    335   2   0.50000     0.0600000    0.0600000   6.128906e-05  1.496315e-08
    333    342   2   0.50000     0.0600000    0.0600000   6.128906e-05  1.496315e-08
    334    327   2   0.50000     0.0600000   -0.1400000   3.205360e-04  1.719281e-07
    334    335   2   0.50000     0.0600000    0.0600000   6.128906e-05  1.496315e-08
    334    342   2   0.50000     0.0600000    0.0600000   6.128906e-05  1.496315e-08
    325    328   2   0.50000    -0.1200000   -0.0500000   1.015252e-03  1.866303e-06
    325    331   2   0.50000    -0.1200000    0.5000000   1.575021e-03  3.561100e-06
    335    328   2   0.50000     0.0600000   -0.0500000   2.494471e-04  1.671101e-07
    335    331   2   0.50000     0.0600000    0.5000000   3.869820e-04  3.188634e-07
    342    328   2   0.50000     0.0600000   -0.0500000   2.494471e-04  1.671101e-07
    342    331   2   0.50000     0.0600000    0.5000000   3.869820e-04  3.188634e-07
    326    329   2   0.50000    -0.0500000   -0.1200000   1.015252e-03  1.866303e-06
    326    336   2   0.50000    -0.0500000    0.0600000   2.494471e-04  1.671101e-07
    326    337   2   0.50000    -0.0500000    0.0600000   2.494471e-04  1.671101e-07
    331    336   2   0.50000     0.5000000    0.0600000   3.869820e-04  3.188634e-07
    331    337   2   0.50000     0.5000000    0.0600000   3.869820e-04  3.188634e-07
    326    330   2   0.50000    -0.0500000   -0.1200000   1.015252e-03  1.866303e-06
    326    332   2   0.50000    -0.0500000   -0.5000000   1.095425e-03  1.218041e-06
    328    332   2   0.50000    -0.0500000   -0.5000000   1.095425e-03  1.218041e-06
    327    338   2   0.50000    -0.1400000    0.0600000   3.205360e-04  1.719281e-07
    327    339   2   0.50000    -0.1400000    0.0600000   3.205360e-04  1.719281e-07
    336    330   2   0.50000     0.0600000   -0.1200000   2.494471e-04  1.671101e-07
    336    338   2   0.50000     0.0600000    0.0600000   6.128906e-05  1.496315e-08
    336    339   2   0.50000     0.0600000    0.0600000   6.128906e-05  1.496315e-08
    337    330   2   0.50000     0.0600000   -0.1200000   2.494471e-04  1.671101e-07
    337    338   2   0.50000     0.0600000    0.0600000   6.128906e-05  1.496315e-08
    337    339   2   0.50000     0.0600000    0.0600000   6.128906e-05  1.496315e-08
    328    340   2   0.50000    -0.0500000    0.0600000   2.494471e-04  1.671101e-07
    328    341   2   0.50000    -0.0500000    0.0600000   2.494471e-04  1.671101e-07
    338    331   2   0.50000     0.0600000    0.5000000   3.869820e-04  3.188634e-07
    338    340   2   0.50000     0.0600000    0.0600000   6.128906e-05  1.496315e-08
    338    341   2   0.50000     0.0600000    0.0600000   6.128906e-05  1.496315e-08
    339    331   2   0.50000     0.0600000    0.5000000   3.869820e-04  3.188634e-07
    339    340   2   0.50000     0.0600000    0.0600000   6.128906e-05  1.496315e-08
    339    341   2   0.50000     0.0600000    0.0600000   6.128906e-05  1.496315e-08
    329    332   2   0.50000    -0.1200000   -0.5000000   1.095425e-03  1.218041e-06
    340    327   2   0.50000     0.0600000   -0.1400000   3.205360e-04  1.719281e-07
    340    332   2   0.50000     0.0600000   -0.5000000   2.691455e-04  1.090642e-07
    341    327   2   0.50000     0.0600000   -0.1400000   3.205360e-04  1.719281e-07
    341    332   2   0.50000     0.0600000   -0.5000000   2.691455e-04  1.090642e-07

[ angles ]
; ai  aj  ak
      2      1      9   1    110.7000    313.8000
      2      1     10   1    110.7000    313.8000
      2      1     18   1    110.7000    313.8000
      9      1     10   1    107.8000    276.1440
      9      1     18   1    107.8000    276.1440
     10      1     18   1    107.8000    276.1440
      1      2      3   1    110.7230    585.7600
      1      2     11   1    110.7000    313.8000
      1      2     19   1    112.7000    488.2728
      3      2     11   1    109.5000    292.8800
      3      2     19   1    110.7230    585.7600
     11      2     19   1    110.7000    313.8000
      2      3      4   1    118.0000    418.4000
      2      3      7   1    121.9000    418.4000
      4      3      7   1    121.9000    418.4000
      3      4      5   1    110.7230    585.7600
      3      4     12   1    109.5000    292.8800
      3      4     13   1    109.5000    292.8800
      5      4     12   1    110.7000    313.8000
      5      4     13   1    110.7000    313.8000
     12      4     13   1    107.8000    276.1440
      4      5      6   1    112.7000    488.2728
      4      5     14   1    110.7000    313.8000
      4      5     15   1    110.7000    313.8000
      6      5     14   1    110.7000    313.8000
      6      5     15   1    110.7000    313.8000
     14      5     15   1    107.8000    276.1440
      5      6      7   1    111.1000    527.1840
      5      6     16   1    110.7000    313.8000
      5      6     17   1    110.7000    313.8000
      7      6     16   1    109.5000    292.8800
      7      6     17   1    109.5000    292.8800
     16      6     17   1    107.8000    276.1440
      3      7      6   1    116.6000    585.7600
      3      7      8   1    122.9000    669.4400
      6      7      8   1    120.4000    669.4400
      2     19     20   1    112.7000    488.2728
      2     19     27   1    110.7000    313.8000
      2     19     28   1    110.7000    313.8000
     20     19     27   1    110.7000    313.8000
     20     19     28   1    110.7000    313.8000
     27     19     28   1    107.8000    276.1440
     19     20     21   1    110.7230    585.7600
     19     20     29   1    110.7000    313.8000
     19     20     36   1    112.7000    488.2728
     21     20     29   1    109.5000    292.8800
     21     20     36   1    110.7230    585.7600
     29     20     36   1    110.7000    313.8000
     20     21     22   1    118.0000    418.4000
     20     21     25   1    121.9000    418.4000
     22     21     25   1    121.9000    418.4000
     21     22     23   1    110.7230    585.7600
     21     22     30   1    109.5000    292.8800
     21     22     31   1    109.5000    292.8800
     23     22     30   1    110.7000    313.8000
     23     22     31   1    110.7000    313.8000
     30     22     31   1    107.8000    276.1440
     22     23     24   1    112.7000    488.2728
     22     23     32   1    110.7000    313.8000
     22     23     33   1    110.7000    313.8000
     24     23     32   1    110.7000    313.8000
     24     23     33   1    110.7000    313.8000
     32     23     33   1    107.8000    276.1440
     23     24     25   1    111.1000    527.1840
     23     24     34   1    110.7000    313.8000
     23     24     35   1    110.7000    313.8000
     25     24     34   1    109.5000    292.8800
     25     24     35   1    109.5000    292.8800
     34     24     35   1    107.8000    276.1440
     21     25     24   1    116.6000    585.7600
     21     25     26   1    122.9000    669.4400
     24     25     26   1    120.4000    669.4400
     20     36     37   1    112.7000    488.2728
     20     36     44   1    110.7000    313.8000
     20     36     45   1    110.7000    313.8000
     37     36     44   1    110.7000    313.8000
     37     36     45   1    110.7000    313.8000
     44     36     45   1    107.8000    276.1440
     36     37     38   1    110.7230    585.7600
     36     37     46   1    110.7000    313.8000
     36     37     53   1    112.7000    488.2728
     38     37     46   1    109.5000    292.8800
     38     37     53   1    110.7230    585.7600
     46     37     53   1    110.7000    313.8000
     37     38     39   1    118.0000    418.4000
     37     38     42   1    121.9000    418.4000
     39     38     42   1    121.9000    418.4000
     38     39     40   1    110.7230    585.7600
     38     39     47   1    109.5000    292.8800
     38     39     48   1    109.5000    292.8800
     40     39     47   1    110.7000    313.8000
     40     39     48   1    110.7000    313.8000
     47     39     48   1    107.8000    276.1440
     39     40     41   1    112.7000    488.2728
     39     40     49   1    110.7000    313.8000
     39     40     50   1    110.7000    313.8000
     41     40     49   1    110.7000    313.8000
     41     40     50   1    110.7000    313.8000
     49     40     50   1    107.8000    276.1440
     40     41     42   1    111.1000    527.1840
     40     41     51   1    110.7000    313.8000
     40     41     52   1    110.7000    313.8000
     42     41     51   1    109.5000    292.8800
     42     41     52   1    109.5000    292.8800
     51     41     52   1    107.8000    276.1440
     38     42     41   1    116.6000    585.7600
     38     42     43   1    122.9000    669.4400
     41     42     43   1    120.4000    669.4400
     37     53     54   1    112.7000    488.2728
     37     53     61   1    110.7000    313.8000
     37     53     62   1    110.7000    313.8000
     54     53     61   1    110.7000    313.8000
     54     53     62   1    110.7000    313.8000
     61     53     62   1    107.8000    276.1440
     53     54     55   1    110.7230    585.7600
     53     54     63   1    110.7000    313.8000
     53     54     70   1    112.7000    488.2728
     55     54     63   1    109.5000    292.8800
     55     54     70   1    110.7230    585.7600
     63     54     70   1    110.7000    313.8000
     54     55     56   1    118.0000    418.4000
     54     55     59   1    121.9000    418.4000
     56     55     59   1    121.9000    418.4000
     55     56     57   1    110.7230    585.7600
     55     56     64   1    109.5000    292.8800
     55     56     65   1    109.5000    292.8800
     57     56     64   1    110.7000    313.8000
     57     56     65   1    110.7000    313.8000
     64     56     65   1    107.8000    276.1440
     56     57     58   1    112.7000    488.2728
     56     57     66   1    110.7000    313.8000
     56     57     67   1    110.7000    313.8000
     58     57     66   1    110.7000    313.8000
     58     57     67   1    110.7000    313.8000
     66     57     67   1    107.8000    276.1440
     57     58     59   1    111.1000    527.1840
     57     58     68   1    110.7000    313.8000
     57     58     69   1    110.7000    313.8000
     59     58     68   1    109.5000    292.8800
     59     58     69   1    109.5000    292.8800
     68     58     69   1    107.8000    276.1440
     55     59     58   1    116.6000    585.7600
     55     59     60   1    122.9000    669.4400
     58     59     60   1    120.4000    669.4400
     54     70     71   1    112.7000    488.2728
     54     70     78   1    110.7000    313.8000
     54     70     79   1    110.7000    313.8000
     71     70     78   1    110.7000    313.8000
     71     70     79   1    110.7000    313.8000
     78     70     79   1    107.8000    276.1440
     70     71     72   1    110.7230    585.7600
     70     71     80   1    110.7000    313.8000
     70     71     87   1    112.7000    488.2728
     72     71     80   1    109.5000    292.8800
     72     71     87   1    110.7230    585.7600
     80     71     87   1    110.7000    313.8000
     71     72     73   1    118.0000    418.4000
     71     72     76   1    121.9000    418.4000
     73     72     76   1    121.9000    418.4000
     72     73     74   1    110.7230    585.7600
     72     73     81   1    109.5000    292.8800
     72     73     82   1    109.5000    292.8800
     74     73     81   1    110.7000    313.8000
     74     73     82   1    110.7000    313.8000
     81     73     82   1    107.8000    276.1440
     73     74     75   1    112.7000    488.2728
     73     74     83   1    110.7000    313.8000
     73     74     84   1    110.7000    313.8000
     75     74     83   1    110.7000    313.8000
     75     74     84   1    110.7000    313.8000
     83     74     84   1    107.8000    276.1440
     74     75     76   1    111.1000    527.1840
     74     75     85   1    110.7000    313.8000
     74     75     86   1    110.7000    313.8000
     76     75     85   1    109.5000    292.8800
     76     75     86   1    109.5000    292.8800
     85     75     86   1    107.8000    276.1440
     72     76     75   1    116.6000    585.7600
     72     76     77   1    122.9000    669.4400
     75     76     77   1    120.4000    669.4400
     71     87     88   1    112.7000    488.2728
     71     87     95   1    110.7000    313.8000
     71     87     96   1    110.7000    313.8000
     88     87     95   1    110.7000    313.8000
     88     87     96   1    110.7000    313.8000
     95     87     96   1    107.8000    276.1440
     87     88     89   1    110.7230    585.7600
     87     88     97   1    110.7000    313.8000
     87     88    104   1    112.7000    488.2728
     89     88     97   1    109.5000    292.8800
     89     88    104   1    110.7230    585.7600
     97     88    104   1    110.7000    313.8000
     88     89     90   1    118.0000    418.4000
     88     89     93   1    121.9000    418.4000
     90     89     93   1    121.9000    418.4000
     89     90     91   1    110.7230    585.7600
     89     90     98   1    109.5000    292.8800
     89     90     99   1    109.5000    292.8800
     91     90     98   1    110.7000    313.8000
     91     90     99   1    110.7000    313.8000
     98     90     99   1    107.8000    276.1440
     90     91     92   1    112.7000    488.2728
     90     91    100   1    110.7000    313.8000
     90     91    101   1    110.7000    313.8000
     92     91    100   1    110.7000    313.8000
     92     91    101   1    110.7000    313.8000
    100     91    101   1    107.8000    276.1440
     91     92     93   1    111.1000    527.1840
     91     92    102   1    110.7000    313.8000
     91     92    103   1    110.7000    313.8000
     93     92    102   1    109.5000    292.8800
     93     92    103   1    109.5000    292.8800
    102     92    103   1    107.8000    276.1440
     89     93     92   1    116.6000    585.7600
     89     93     94   1    122.9000    669.4400
     92     93     94   1    120.4000    669.4400
     88    104    105   1    112.7000    488.2728
     88    104    112   1    110.7000    313.8000
     88    104    113   1    110.7000    313.8000
    105    104    112   1    110.7000    313.8000
    105    104    113   1    110.7000    313.8000
    112    104    113   1    107.8000    276.1440
    104    105    106   1    110.7230    585.7600
    104    105    114   1    110.7000    313.8000
    104    105    121   1    112.7000    488.2728
    106    105    114   1    109.5000    292.8800
    106    105    121   1    110.7230    585.7600
    114    105    121   1    110.7000    313.8000
    105    106    107   1    118.0000    418.4000
    105    106    110   1    121.9000    418.4000
    107    106    110   1    121.9000    418.4000
    106    107    108   1    110.7230    585.7600
    106    107    115   1    109.5000    292.8800
    106    107    116   1    109.5000    292.8800
    108    107    115   1    110.7000    313.8000
    108    107    116   1    110.7000    313.8000
    115    107    116   1    107.8000    276.1440
    107    108    109   1    112.7000    488.2728
    107    108    117   1    110.7000    313.8000
    107    108    118   1    110.7000    313.8000
    109    108    117   1    110.7000    313.8000
    109    108    118   1    110.7000    313.8000
    117    108    118   1    107.8000    276.1440
    108    109    110   1    111.1000    527.1840
    108    109    119   1    110.7000    313.8000
    108    109    120   1    110.7000    313.8000
    110    109    119   1    109.5000    292.8800
    110    109    120   1    109.5000    292.8800
    119    109    120   1    107.8000    276.1440
    106    110    109   1    116.6000    585.7600
    106    110    111   1    122.9000    669.4400
    109    110    111   1    120.4000    669.4400
    105    121    122   1    112.7000    488.2728
    105    121    129   1    110.7000    313.8000
    105    121    130   1    110.7000    313.8000
    122    121    129   1    110.7000    313.8000
    122    121    130   1    110.7000    313.8000
    129    121    130   1    107.8000    276.1440
    121    122    123   1    110.7230    585.7600
    121    122    131   1    110.7000    313.8000
    121    122    138   1    112.7000    488.2728
    123    122    131   1    109.5000    292.8800
    123    122    138   1    110.7230    585.7600
    131    122    138   1    110.7000    313.8000
    122    123    124   1    118.0000    418.4000
    122    123    127   1    121.9000    418.4000
    124    123    127   1    121.9000    418.4000
    123    124    125   1    110.7230    585.7600
    123    124    132   1    109.5000    292.8800
    123    124    133   1    109.5000    292.8800
    125    124    132   1    110.7000    313.8000
    125    124    133   1    110.7000    313.8000
    132    124    133   1    107.8000    276.1440
    124    125    126   1    112.7000    488.2728
    124    125    134   1    110.7000    313.8000
    124    125    135   1    110.7000    313.8000
    126    125    134   1    110.7000    313.8000
    126    125    135   1    110.7000    313.8000
    134    125    135   1    107.8000    276.1440
    125    126    127   1    111.1000    527.1840
    125    126    136   1    110.7000    313.8000
    125    126    137   1    110.7000    313.8000
    127    126    136   1    109.5000    292.8800
    127    126    137   1    109.5000    292.8800
    136    126    137   1    107.8000    276.1440
    123    127    126   1    116.6000    585.7600
    123    127    128   1    122.9000    669.4400
    126    127    128   1    120.4000    669.4400
    122    138    139   1    112.7000    488.2728
    122    138    146   1    110.7000    313.8000
    122    138    147   1    110.7000    313.8000
    139    138    146   1    110.7000    313.8000
    139    138    147   1    110.7000    313.8000
    146    138    147   1    107.8000    276.1440
    138    139    140   1    110.7230    585.7600
    138    139    148   1    110.7000    313.8000
    138    139    155   1    112.7000    488.2728
    140    139    148   1    109.5000    292.8800
    140    139    155   1    110.7230    585.7600
    148    139    155   1    110.7000    313.8000
    139    140    141   1    118.0000    418.4000
    139    140    144   1    121.9000    418.4000
    141    140    144   1    121.9000    418.4000
    140    141    142   1    110.7230    585.7600
    140    141    149   1    109.5000    292.8800
    140    141    150   1    109.5000    292.8800
    142    141    149   1    110.7000    313.8000
    142    141    150   1    110.7000    313.8000
    149    141    150   1    107.8000    276.1440
    141    142    143   1    112.7000    488.2728
    141    142    151   1    110.7000    313.8000
    141    142    152   1    110.7000    313.8000
    143    142    151   1    110.7000    313.8000
    143    142    152   1    110.7000    313.8000
    151    142    152   1    107.8000    276.1440
    142    143    144   1    111.1000    527.1840
    142    143    153   1    110.7000    313.8000
    142    143    154   1    110.7000    313.8000
    144    143    153   1    109.5000    292.8800
    144    143    154   1    109.5000    292.8800
    153    143    154   1    107.8000    276.1440
    140    144    143   1    116.6000    585.7600
    140    144    145   1    122.9000    669.4400
    143    144    145   1    120.4000    669.4400
    139    155    156   1    112.7000    488.2728
    139    155    163   1    110.7000    313.8000
    139    155    164   1    110.7000    313.8000
    156    155    163   1    110.7000    313.8000
    156    155    164   1    110.7000    313.8000
    163    155    164   1    107.8000    276.1440
    155    156    157   1    110.7230    585.7600
    155    156    165   1    110.7000    313.8000
    155    156    172   1    112.7000    488.2728
    157    156    165   1    109.5000    292.8800
    157    156    172   1    110.7230    585.7600
    165    156    172   1    110.7000    313.8000
    156    157    158   1    118.0000    418.4000
    156    157    161   1    121.9000    418.4000
    158    157    161   1    121.9000    418.4000
    157    158    159   1    110.7230    585.7600
    157    158    166   1    109.5000    292.8800
    157    158    167   1    109.5000    292.8800
    159    158    166   1    110.7000    313.8000
    159    158    167   1    110.7000    313.8000
    166    158    167   1    107.8000    276.1440
    158    159    160   1    112.7000    488.2728
    158    159    168   1    110.7000    313.8000
    158    159    169   1    110.7000    313.8000
    160    159    168   1    110.7000    313.8000
    160    159    169   1    110.7000    313.8000
    168    159    169   1    107.8000    276.1440
    159    160    161   1    111.1000    527.1840
    159    160    170   1    110.7000    313.8000
    159    160    171   1    110.7000    313.8000
    161    160    170   1    109.5000    292.8800
    161    160    171   1    109.5000    292.8800
    170    160    171   1    107.8000    276.1440
    157    161    160   1    116.6000    585.7600
    157    161    162   1    122.9000    669.4400
    160    161    162   1    120.4000    669.4400
    156    172    173   1    112.7000    488.2728
    156    172    180   1    110.7000    313.8000
    156    172    181   1    110.7000    313.8000
    173    172    180   1    110.7000    313.8000
    173    172    181   1    110.7000    313.8000
    180    172    181   1    107.8000    276.1440
    172    173    174   1    110.7230    585.7600
    172    173    182   1    110.7000    313.8000
    172    173    189   1    112.7000    488.2728
    174    173    182   1    109.5000    292.8800
    174    173    189   1    110.7230    585.7600
    182    173    189   1    110.7000    313.8000
    173    174    175   1    118.0000    418.4000
    173    174    178   1    121.9000    418.4000
    175    174    178   1    121.9000    418.4000
    174    175    176   1    110.7230    585.7600
    174    175    183   1    109.5000    292.8800
    174    175    184   1    109.5000    292.8800
    176    175    183   1    110.7000    313.8000
    176    175    184   1    110.7000    313.8000
    183    175    184   1    107.8000    276.1440
    175    176    177   1    112.7000    488.2728
    175    176    185   1    110.7000    313.8000
    175    176    186   1    110.7000    313.8000
    177    176    185   1    110.7000    313.8000
    177    176    186   1    110.7000    313.8000
    185    176    186   1    107.8000    276.1440
    176    177    178   1    111.1000    527.1840
    176    177    187   1    110.7000    313.8000
    176    177    188   1    110.7000    313.8000
    178    177    187   1    109.5000    292.8800
    178    177    188   1    109.5000    292.8800
    187    177    188   1    107.8000    276.1440
    174    178    177   1    116.6000    585.7600
    174    178    179   1    122.9000    669.4400
    177    178    179   1    120.4000    669.4400
    173    189    190   1    112.7000    488.2728
    173    189    197   1    110.7000    313.8000
    173    189    198   1    110.7000    313.8000
    190    189    197   1    110.7000    313.8000
    190    189    198   1    110.7000    313.8000
    197    189    198   1    107.8000    276.1440
    189    190    191   1    110.7230    585.7600
    189    190    199   1    110.7000    313.8000
    189    190    206   1    112.7000    488.2728
    191    190    199   1    109.5000    292.8800
    191    190    206   1    110.7230    585.7600
    199    190    206   1    110.7000    313.8000
    190    191    192   1    118.0000    418.4000
    190    191    195   1    121.9000    418.4000
    192    191    195   1    121.9000    418.4000
    191    192    193   1    110.7230    585.7600
    191    192    200   1    109.5000    292.8800
    191    192    201   1    109.5000    292.8800
    193    192    200   1    110.7000    313.8000
    193    192    201   1    110.7000    313.8000
    200    192    201   1    107.8000    276.1440
    192    193    194   1    112.7000    488.2728
    192    193    202   1    110.7000    313.8000
    192    193    203   1    110.7000    313.8000
    194    193    202   1    110.7000    313.8000
    194    193    203   1    110.7000    313.8000
    202    193    203   1    107.8000    276.1440
    193    194    195   1    111.1000    527.1840
    193    194    204   1    110.7000    313.8000
    193    194    205   1    110.7000    313.8000
    195    194    204   1    109.5000    292.8800
    195    194    205   1    109.5000    292.8800
    204    194    205   1    107.8000    276.1440
    191    195    194   1    116.6000    585.7600
    191    195    196   1    122.9000    669.4400
    194    195    196   1    120.4000    669.4400
    190    206    207   1    112.7000    488.2728
    190    206    214   1    110.7000    313.8000
    190    206    215   1    110.7000    313.8000
    207    206    214   1    110.7000    313.8000
    207    206    215   1    110.7000    313.8000
    214    206    215   1    107.8000    276.1440
    206    207    208   1    110.7230    585.7600
    206    207    216   1    110.7000    313.8000
    206    207    223   1    112.7000    488.2728
    208    207    216   1    109.5000    292.8800
    208    207    223   1    110.7230    585.7600
    216    207    223   1    110.7000    313.8000
    207    208    209   1    118.0000    418.4000
    207    208    212   1    121.9000    418.4000
    209    208    212   1    121.9000    418.4000
    208    209    210   1    110.7230    585.7600
    208    209    217   1    109.5000    292.8800
    208    209    218   1    109.5000    292.8800
    210    209    217   1    110.7000    313.8000
    210    209    218   1    110.7000    313.8000
    217    209    218   1    107.8000    276.1440
    209    210    211   1    112.7000    488.2728
    209    210    219   1    110.7000    313.8000
    209    210    220   1    110.7000    313.8000
    211    210    219   1    110.7000    313.8000
    211    210    220   1    110.7000    313.8000
    219    210    220   1    107.8000    276.1440
    210    211    212   1    111.1000    527.1840
    210    211    221   1    110.7000    313.8000
    210    211    222   1    110.7000    313.8000
    212    211    221   1    109.5000    292.8800
    212    211    222   1    109.5000    292.8800
    221    211    222   1    107.8000    276.1440
    208    212    211   1    116.6000    585.7600
    208    212    213   1    122.9000    669.4400
    211    212    213   1    120.4000    669.4400
    207    223    224   1    112.7000    488.2728
    207    223    231   1    110.7000    313.8000
    207    223    232   1    110.7000    313.8000
    224    223    231   1    110.7000    313.8000
    224    223    232   1    110.7000    313.8000
    231    223    232   1    107.8000    276.1440
    223    224    225   1    110.7230    585.7600
    223    224    233   1    110.7000    313.8000
    223    224    240   1    112.7000    488.2728
    225    224    233   1    109.5000    292.8800
    225    224    240   1    110.7230    585.7600
    233    224    240   1    110.7000    313.8000
    224    225    226   1    118.0000    418.4000
    224    225    229   1    121.9000    418.4000
    226    225    229   1    121.9000    418.4000
    225    226    227   1    110.7230    585.7600
    225    226    234   1    109.5000    292.8800
    225    226    235   1    109.5000    292.8800
    227    226    234   1    110.7000    313.8000
    227    226    235   1    110.7000    313.8000
    234    226    235   1    107.8000    276.1440
    226    227    228   1    112.7000    488.2728
    226    227    236   1    110.7000    313.8000
    226    227    237   1    110.7000    313.8000
    228    227    236   1    110.7000    313.8000
    228    227    237   1    110.7000    313.8000
    236    227    237   1    107.8000    276.1440
    227    228    229   1    111.1000    527.1840
    227    228    238   1    110.7000    313.8000
    227    228    239   1    110.7000    313.8000
    229    228    238   1    109.5000    292.8800
    229    228    239   1    109.5000    292.8800
    238    228    239   1    107.8000    276.1440
    225    229    228   1    116.6000    585.7600
    225    229    230   1    122.9000    669.4400
    228    229    230   1    120.4000    669.4400
    224    240    241   1    112.7000    488.2728
    224    240    248   1    110.7000    313.8000
    224    240    249   1    110.7000    313.8000
    241    240    248   1    110.7000    313.8000
    241    240    249   1    110.7000    313.8000
    248    240    249   1    107.8000    276.1440
    240    241    242   1    110.7230    585.7600
    240    241    250   1    110.7000    313.8000
    240    241    257   1    112.7000    488.2728
    242    241    250   1    109.5000    292.8800
    242    241    257   1    110.7230    585.7600
    250    241    257   1    110.7000    313.8000
    241    242    243   1    118.0000    418.4000
    241    242    246   1    121.9000    418.4000
    243    242    246   1    121.9000    418.4000
    242    243    244   1    110.7230    585.7600
    242    243    251   1    109.5000    292.8800
    242    243    252   1    109.5000    292.8800
    244    243    251   1    110.7000    313.8000
    244    243    252   1    110.7000    313.8000
    251    243    252   1    107.8000    276.1440
    243    244    245   1    112.7000    488.2728
    243    244    253   1    110.7000    313.8000
    243    244    254   1    110.7000    313.8000
    245    244    253   1    110.7000    313.8000
    245    244    254   1    110.7000    313.8000
    253    244    254   1    107.8000    276.1440
    244    245    246   1    111.1000    527.1840
    244    245    255   1    110.7000    313.8000
    244    245    256   1    110.7000    313.8000
    246    245    255   1    109.5000    292.8800
    246    245    256   1    109.5000    292.8800
    255    245    256   1    107.8000    276.1440
    242    246    245   1    116.6000    585.7600
    242    246    247   1    122.9000    669.4400
    245    246    247   1    120.4000    669.4400
    241    257    258   1    112.7000    488.2728
    241    257    265   1    110.7000    313.8000
    241    257    266   1    110.7000    313.8000
    258    257    265   1    110.7000    313.8000
    258    257    266   1    110.7000    313.8000
    265    257    266   1    107.8000    276.1440
    257    258    259   1    110.7230    585.7600
    257    258    267   1    110.7000    313.8000
    257    258    274   1    112.7000    488.2728
    259    258    267   1    109.5000    292.8800
    259    258    274   1    110.7230    585.7600
    267    258    274   1    110.7000    313.8000
    258    259    260   1    118.0000    418.4000
    258    259    263   1    121.9000    418.4000
    260    259    263   1    121.9000    418.4000
    259    260    261   1    110.7230    585.7600
    259    260    268   1    109.5000    292.8800
    259    260    269   1    109.5000    292.8800
    261    260    268   1    110.7000    313.8000
    261    260    269   1    110.7000    313.8000
    268    260    269   1    107.8000    276.1440
    260    261    262   1    112.7000    488.2728
    260    261    270   1    110.7000    313.8000
    260    261    271   1    110.7000    313.8000
    262    261    270   1    110.7000    313.8000
    262    261    271   1    110.7000    313.8000
    270    261    271   1    107.8000    276.1440
    261    262    263   1    111.1000    527.1840
    261    262    272   1    110.7000    313.8000
    261    262    273   1    110.7000    313.8000
    263    262    272   1    109.5000    292.8800
    263    262    273   1    109.5000    292.8800
    272    262    273   1    107.8000    276.1440
    259    263    262   1    116.6000    585.7600
    259    263    264   1    122.9000    669.4400
    262    263    264   1    120.4000    669.4400
    258    274    275   1    112.7000    488.2728
    258    274    282   1    110.7000    313.8000
    258    274    283   1    110.7000    313.8000
    275    274    282   1    110.7000    313.8000
    275    274    283   1    110.7000    313.8000
    282    274    283   1    107.8000    276.1440
    274    275    276   1    110.7230    585.7600
    274    275    284   1    110.7000    313.8000
    274    275    291   1    112.7000    488.2728
    276    275    284   1    109.5000    292.8800
    276    275    291   1    110.7230    585.7600
    284    275    291   1    110.7000    313.8000
    275    276    277   1    118.0000    418.4000
    275    276    280   1    121.9000    418.4000
    277    276    280   1    121.9000    418.4000
    276    277    278   1    110.7230    585.7600
    276    277    285   1    109.5000    292.8800
    276    277    286   1    109.5000    292.8800
    278    277    285   1    110.7000    313.8000
    278    277    286   1    110.7000    313.8000
    285    277    286   1    107.8000    276.1440
    277    278    279   1    112.7000    488.2728
    277    278    287   1    110.7000    313.8000
    277    278    288   1    110.7000    313.8000
    279    278    287   1    110.7000    313.8000
    279    278    288   1    110.7000    313.8000
    287    278    288   1    107.8000    276.1440
    278    279    280   1    111.1000    527.1840
    278    279    289   1    110.7000    313.8000
    278    279    290   1    110.7000    313.8000
    280    279    289   1    109.5000    292.8800
    280    279    290   1    109.5000    292.8800
    289    279    290   1    107.8000    276.1440
    276    280    279   1    116.6000    585.7600
    276    280    281   1    122.9000    669.4400
    279    280    281   1    120.4000    669.4400
    275    291    292   1    112.7000    488.2728
    275    291    299   1    110.7000    313.8000
    275    291    300   1    110.7000    313.8000
    292    291    299   1    110.7000    313.8000
    292    291    300   1    110.7000    313.8000
    299    291    300   1    107.8000    276.1440
    291    292    293   1    110.7230    585.7600
    291    292    301   1    110.7000    313.8000
    291    292    308   1    112.7000    488.2728
    293    292    301   1    109.5000    292.8800
    293    292    308   1    110.7230    585.7600
    301    292    308   1    110.7000    313.8000
    292    293    294   1    118.0000    418.4000
    292    293    297   1    121.9000    418.4000
    294    293    297   1    121.9000    418.4000
    293    294    295   1    110.7230    585.7600
    293    294    302   1    109.5000    292.8800
    293    294    303   1    109.5000    292.8800
    295    294    302   1    110.7000    313.8000
    295    294    303   1    110.7000    313.8000
    302    294    303   1    107.8000    276.1440
    294    295    296   1    112.7000    488.2728
    294    295    304   1    110.7000    313.8000
    294    295    305   1    110.7000    313.8000
    296    295    304   1    110.7000    313.8000
    296    295    305   1    110.7000    313.8000
    304    295    305   1    107.8000    276.1440
    295    296    297   1    111.1000    527.1840
    295    296    306   1    110.7000    313.8000
    295    296    307   1    110.7000    313.8000
    297    296    306   1    109.5000    292.8800
    297    296    307   1    109.5000    292.8800
    306    296    307   1    107.8000    276.1440
    293    297    296   1    116.6000    585.7600
    293    297    298   1    122.9000    669.4400
    296    297    298   1    120.4000    669.4400
    292    308    309   1    112.7000    488.2728
    292    308    316   1    110.7000    313.8000
    292    308    317   1    110.7000    313.8000
    309    308    316   1    110.7000    313.8000
    309    308    317   1    110.7000    313.8000
    316    308    317   1    107.8000    276.1440
    308    309    310   1    110.7230    585.7600
    308    309    318   1    110.7000    313.8000
    308    309    325   1    112.7000    488.2728
    310    309    318   1    109.5000    292.8800
    310    309    325   1    110.7230    585.7600
    318    309    325   1    110.7000    313.8000
    309    310    311   1    118.0000    418.4000
    309    310    314   1    121.9000    418.4000
    311    310    314   1    121.9000    418.4000
    310    311    312   1    110.7230    585.7600
    310    311    319   1    109.5000    292.8800
    310    311    320   1    109.5000    292.8800
    312    311    319   1    110.7000    313.8000
    312    311    320   1    110.7000    313.8000
    319    311    320   1    107.8000    276.1440
    311    312    313   1    112.7000    488.2728
    311    312    321   1    110.7000    313.8000
    311    312    322   1    110.7000    313.8000
    313    312    321   1    110.7000    313.8000
    313    312    322   1    110.7000    313.8000
    321    312    322   1    107.8000    276.1440
    312    313    314   1    111.1000    527.1840
    312    313    323   1    110.7000    313.8000
    312    313    324   1    110.7000    313.8000
    314    313    323   1    109.5000    292.8800
    314    313    324   1    109.5000    292.8800
    323    313    324   1    107.8000    276.1440
    310    314    313   1    116.6000    585.7600
    310    314    315   1    122.9000    669.4400
    313    314    315   1    120.4000    669.4400
    309    325    326   1    112.7000    488.2728
    309    325    333   1    110.7000    313.8000
    309    325    334   1    110.7000    313.8000
    326    325    333   1    110.7000    313.8000
    326    325    334   1    110.7000    313.8000
    333    325    334   1    107.8000    276.1440
    325    326    327   1    110.7230    585.7600
    325    326    335   1    110.7000    313.8000
    325    326    342   1    110.7000    313.8000
    327    326    335   1    109.5000    292.8800
    327    326    342   1    109.5000    292.8800
    335    326    342   1    107.8000    276.1440
    326    327    328   1    118.0000    418.4000
    326    327    331   1    121.9000    418.4000
    328    327    331   1    121.9000    418.4000
    327    328    329   1    110.7230    585.7600
    327    328    336   1    109.5000    292.8800
    327    328    337   1    109.5000    292.8800
    329    328    336   1    110.7000    313.8000
    329    328    337   1    110.7000    313.8000
    336    328    337   1    107.8000    276.1440
    328    329    330   1    112.7000    488.2728
    328    329    338   1    110.7000    313.8000
    328    329    339   1    110.7000    313.8000
    330    329    338   1    110.7000    313.8000
    330    329    339   1    110.7000    313.8000
    338    329    339   1    107.8000    276.1440
    329    330    331   1    111.1000    527.1840
    329    330    340   1    110.7000    313.8000
    329    330    341   1    110.7000    313.8000
    331    330    340   1    109.5000    292.8800
    331    330    341   1    109.5000    292.8800
    340    330    341   1    107.8000    276.1440
    327    331    330   1    116.6000    585.7600
    327    331    332   1    122.9000    669.4400
    330    331    332   1    120.4000    669.4400

[ dihedrals ]
; Proper dihedrals
      9      1      2      3   5     0.00000     0.00000     1.25520  0.0
      9      1      2     11   5     0.00000     0.00000     1.25520  0.0
      9      1      2     19   5     0.00000     0.00000     1.25520  0.0
     10      1      2      3   5     0.00000     0.00000     1.25520  0.0
     10      1      2     11   5     0.00000     0.00000     1.25520  0.0
     10      1      2     19   5     0.00000     0.00000     1.25520  0.0
     18      1      2      3   5     0.00000     0.00000     1.25520  0.0
     18      1      2     11   5     0.00000     0.00000     1.25520  0.0
     18      1      2     19   5     0.00000     0.00000     1.25520  0.0
      1      2      3      4   5    16.31760     1.32214     0.47279  0.0
      1      2      3      7   5    -3.67774    -0.67781     0.28033  0.0
     11      2      3      4   5     0.00000     0.00000     0.00000  0.0
     11      2      3      7   5     0.00000     0.00000     0.00000  0.0
     19      2      3      4   5    16.31760     1.32214     0.47279  0.0
     19      2      3      7   5    -3.67774    -0.67781     0.28033  0.0
      1      2     19     20   5     4.74884    -0.63178     1.67360  0.0
      1      2     19     27   5     0.00000     0.00000     1.25520  0.0
      1      2     19     28   5     0.00000     0.00000     1.25520  0.0
      3      2     19     20   5     3.67355     4.10869     2.37651  0.0
      3      2     19     27   5     0.00000     0.00000     1.25520  0.0
      3      2     19     28   5     0.00000     0.00000     1.25520  0.0
     11      2     19     20   5     0.00000     0.00000     1.25520  0.0
     11      2     19     27   5     0.00000     0.00000     1.25520  0.0
     11      2     19     28   5     0.00000     0.00000     1.25520  0.0
      2      3      4      5   5    16.31760     1.32214     0.47279  0.0
      2      3      4     12   5     0.00000     0.00000     0.00000  0.0
      2      3      4     13   5     0.00000     0.00000     0.00000  0.0
      7      3      4      5   5    -3.67774    -0.67781     0.28033  0.0
      7      3      4     12   5     0.00000     0.00000     0.00000  0.0
      7      3      4     13   5     0.00000     0.00000     0.00000  0.0
      2      3      7      6   5    12.53945    12.88254     0.00000  0.0
      2      3      7      8   5     0.00000    25.47638     0.00000  0.0
      4      3      7      6   5    12.53945    12.88254     0.00000  0.0
      4      3      7      8   5     0.00000    25.47638     0.00000  0.0
      3      4      5      6   5    -2.26773    -0.14226    -4.06685  0.0
      3      4      5     14   5     0.00000     0.00000     1.25520  0.0
      3      4      5     15   5     0.00000     0.00000     1.25520  0.0
     12      4      5      6   5     0.00000     0.00000     1.25520  0.0
     12      4      5     14   5     0.00000     0.00000     1.25520  0.0
     12      4      5     15   5     0.00000     0.00000     1.25520  0.0
     13      4      5      6   5     0.00000     0.00000     1.25520  0.0
     13      4      5     14   5     0.00000     0.00000     1.25520  0.0
     13      4      5     15   5     0.00000     0.00000     1.25520  0.0
      4      5      6      7   5    -8.00818    -1.52298     2.46438  0.0
      4      5      6     16   5     0.00000     0.00000     1.25520  0.0
      4      5      6     17   5     0.00000     0.00000     1.25520  0.0
     14      5      6      7   5     0.00000     0.00000    -0.94140  0.0
     14      5      6     16   5     0.00000     0.00000     1.25520  0.0
     14      5      6     17   5     0.00000     0.00000     1.25520  0.0
     15      5      6      7   5     0.00000     0.00000    -0.94140  0.0
     15      5      6     16   5     0.00000     0.00000     1.25520  0.0
     15      5      6     17   5     0.00000     0.00000     1.25520  0.0
      5      6      7      3   5    11.69428    -0.66526    -1.56900  0.0
      5      6      7      8   5     0.00000     2.52295     0.00000  0.0
     16      6      7      3   5     0.00000     0.00000     0.00000  0.0
     16      6      7      8   5     0.00000     0.00000     0.00000  0.0
     17      6      7      3   5     0.00000     0.00000     0.00000  0.0
     17      6      7      8   5     0.00000     0.00000     0.00000  0.0
      2     19     20     21   5     3.67355     4.10869     2.37651  0.0
      2     19     20     29   5     0.00000     0.00000     1.25520  0.0
      2     19     20     36   5     4.74884    -0.63178     1.67360  0.0
     27     19     20     21   5     0.00000     0.00000     1.25520  0.0
     27     19     20     29   5     0.00000     0.00000     1.25520  0.0
     27     19     20     36   5     0.00000     0.00000     1.25520  0.0
     28     19     20     21   5     0.00000     0.00000     1.25520  0.0
     28     19     20     29   5     0.00000     0.00000     1.25520  0.0
     28     19     20     36   5     0.00000     0.00000     1.25520  0.0
     19     20     21     22   5    16.31760     1.32214     0.47279  0.0
     19     20     21     25   5    -3.67774    -0.67781     0.28033  0.0
     29     20     21     22   5     0.00000     0.00000     0.00000  0.0
     29     20     21     25   5     0.00000     0.00000     0.00000  0.0
     36     20     21     22   5    16.31760     1.32214     0.47279  0.0
     36     20     21     25   5    -3.67774    -0.67781     0.28033  0.0
     19     20     36     37   5     4.74884    -0.63178     1.67360  0.0
     19     20     36     44   5     0.00000     0.00000     1.25520  0.0
     19     20     36     45   5     0.00000     0.00000     1.25520  0.0
     21     20     36     37   5     3.67355     4.10869     2.37651  0.0
     21     20     36     44   5     0.00000     0.00000     1.25520  0.0
     21     20     36     45   5     0.00000     0.00000     1.25520  0.0
     29     20     36     37   5     0.00000     0.00000     1.25520  0.0
     29     20     36     44   5     0.00000     0.00000     1.25520  0.0
     29     20     36     45   5     0.00000     0.00000     1.25520  0.0
     20     21     22     23   5    16.31760     1.32214     0.47279  0.0
     20     21     22     30   5     0.00000     0.00000     0.00000  0.0
     20     21     22     31   5     0.00000     0.00000     0.00000  0.0
     25     21     22     23   5    -3.67774    -0.67781     0.28033  0.0
     25     21     22     30   5     0.00000     0.00000     0.00000  0.0
     25     21     22     31   5     0.00000     0.00000     0.00000  0.0
     20     21     25     24   5    12.53945    12.88254     0.00000  0.0
     20     21     25     26   5     0.00000    25.47638     0.00000  0.0
     22     21     25     24   5    12.53945    12.88254     0.00000  0.0
     22     21     25     26   5     0.00000    25.47638     0.00000  0.0
     21     22     23     24   5    -2.26773    -0.14226    -4.06685  0.0
     21     22     23     32   5     0.00000     0.00000     1.25520  0.0
     21     22     23     33   5     0.00000     0.00000     1.25520  0.0
     30     22     23     24   5     0.00000     0.00000     1.25520  0.0
     30     22     23     32   5     0.00000     0.00000     1.25520  0.0
     30     22     23     33   5     0.00000     0.00000     1.25520  0.0
     31     22     23     24   5     0.00000     0.00000     1.25520  0.0
     31     22     23     32   5     0.00000     0.00000     1.25520  0.0
     31     22     23     33   5     0.00000     0.00000     1.25520  0.0
     22     23     24     25   5    -8.00818    -1.52298     2.46438  0.0
     22     23     24     34   5     0.00000     0.00000     1.25520  0.0
     22     23     24     35   5     0.00000     0.00000     1.25520  0.0
     32     23     24     25   5     0.00000     0.00000    -0.94140  0.0
     32     23     24     34   5     0.00000     0.00000     1.25520  0.0
     32     23     24     35   5     0.00000     0.00000     1.25520  0.0
     33     23     24     25   5     0.00000     0.00000    -0.94140  0.0
     33     23     24     34   5     0.00000     0.00000     1.25520  0.0
     33     23     24     35   5     0.00000     0.00000     1.25520  0.0
     23     24     25     21   5    11.69428    -0.66526    -1.56900  0.0
     23     24     25     26   5     0.00000     2.52295     0.00000  0.0
     34     24     25     21   5     0.00000     0.00000     0.00000  0.0
     34     24     25     26   5     0.00000     0.00000     0.00000  0.0
     35     24     25     21   5     0.00000     0.00000     0.00000  0.0
     35     24     25     26   5     0.00000     0.00000     0.00000  0.0
     20     36     37     38   5     3.67355     4.10869     2.37651  0.0
     20     36     37     46   5     0.00000     0.00000     1.25520  0.0
     20     36     37     53   5     4.74884    -0.63178     1.67360  0.0
     44     36     37     38   5     0.00000     0.00000     1.25520  0.0
     44     36     37     46   5     0.00000     0.00000     1.25520  0.0
     44     36     37     53   5     0.00000     0.00000     1.25520  0.0
     45     36     37     38   5     0.00000     0.00000     1.25520  0.0
     45     36     37     46   5     0.00000     0.00000     1.25520  0.0
     45     36     37     53   5     0.00000     0.00000     1.25520  0.0
     36     37     38     39   5    16.31760     1.32214     0.47279  0.0
     36     37     38     42   5    -3.67774    -0.67781     0.28033  0.0
     46     37     38     39   5     0.00000     0.00000     0.00000  0.0
     46     37     38     42   5     0.00000     0.00000     0.00000  0.0
     53     37     38     39   5    16.31760     1.32214     0.47279  0.0
     53     37     38     42   5    -3.67774    -0.67781     0.28033  0.0
     36     37     53     54   5     4.74884    -0.63178     1.67360  0.0
     36     37     53     61   5     0.00000     0.00000     1.25520  0.0
     36     37     53     62   5     0.00000     0.00000     1.25520  0.0
     38     37     53     54   5     3.67355     4.10869     2.37651  0.0
     38     37     53     61   5     0.00000     0.00000     1.25520  0.0
     38     37     53     62   5     0.00000     0.00000     1.25520  0.0
     46     37     53     54   5     0.00000     0.00000     1.25520  0.0
     46     37     53     61   5     0.00000     0.00000     1.25520  0.0
     46     37     53     62   5     0.00000     0.00000     1.25520  0.0
     37     38     39     40   5    16.31760     1.32214     0.47279  0.0
     37     38     39     47   5     0.00000     0.00000     0.00000  0.0
     37     38     39     48   5     0.00000     0.00000     0.00000  0.0
     42     38     39     40   5    -3.67774    -0.67781     0.28033  0.0
     42     38     39     47   5     0.00000     0.00000     0.00000  0.0
     42     38     39     48   5     0.00000     0.00000     0.00000  0.0
     37     38     42     41   5    12.53945    12.88254     0.00000  0.0
     37     38     42     43   5     0.00000    25.47638     0.00000  0.0
     39     38     42     41   5    12.53945    12.88254     0.00000  0.0
     39     38     42     43   5     0.00000    25.47638     0.00000  0.0
     38     39     40     41   5    -2.26773    -0.14226    -4.06685  0.0
     38     39     40     49   5     0.00000     0.00000     1.25520  0.0
     38     39     40     50   5     0.00000     0.00000     1.25520  0.0
     47     39     40     41   5     0.00000     0.00000     1.25520  0.0
     47     39     40     49   5     0.00000     0.00000     1.25520  0.0
     47     39     40     50   5     0.00000     0.00000     1.25520  0.0
     48     39     40     41   5     0.00000     0.00000     1.25520  0.0
     48     39     40     49   5     0.00000     0.00000     1.25520  0.0
     48     39     40     50   5     0.00000     0.00000     1.25520  0.0
     39     40     41     42   5    -8.00818    -1.52298     2.46438  0.0
     39     40     41     51   5     0.00000     0.00000     1.25520  0.0
     39     40     41     52   5     0.00000     0.00000     1.25520  0.0
     49     40     41     42   5     0.00000     0.00000    -0.94140  0.0
     49     40     41     51   5     0.00000     0.00000     1.25520  0.0
     49     40     41     52   5     0.00000     0.00000     1.25520  0.0
     50     40     41     42   5     0.00000     0.00000    -0.94140  0.0
     50     40     41     51   5     0.00000     0.00000     1.25520  0.0
     50     40     41     52   5     0.00000     0.00000     1.25520  0.0
     40     41     42     38   5    11.69428    -0.66526    -1.56900  0.0
     40     41     42     43   5     0.00000     2.52295     0.00000  0.0
     51     41     42     38   5     0.00000     0.00000     0.00000  0.0
     51     41     42     43   5     0.00000     0.00000     0.00000  0.0
     52     41     42     38   5     0.00000     0.00000     0.00000  0.0
     52     41     42     43   5     0.00000     0.00000     0.00000  0.0
     37     53     54     55   5     3.67355     4.10869     2.37651  0.0
     37     53     54     63   5     0.00000     0.00000     1.25520  0.0
     37     53     54     70   5     4.74884    -0.63178     1.67360  0.0
     61     53     54     55   5     0.00000     0.00000     1.25520  0.0
     61     53     54     63   5     0.00000     0.00000     1.25520  0.0
     61     53     54     70   5     0.00000     0.00000     1.25520  0.0
     62     53     54     55   5     0.00000     0.00000     1.25520  0.0
     62     53     54     63   5     0.00000     0.00000     1.25520  0.0
     62     53     54     70   5     0.00000     0.00000     1.25520  0.0
     53     54     55     56   5    16.31760     1.32214     0.47279  0.0
     53     54     55     59   5    -3.67774    -0.67781     0.28033  0.0
     63     54     55     56   5     0.00000     0.00000     0.00000  0.0
     63     54     55     59   5     0.00000     0.00000     0.00000  0.0
     70     54     55     56   5    16.31760     1.32214     0.47279  0.0
     70     54     55     59   5    -3.67774    -0.67781     0.28033  0.0
     53     54     70     71   5     4.74884    -0.63178     1.67360  0.0
     53     54     70     78   5     0.00000     0.00000     1.25520  0.0
     53     54     70     79   5     0.00000     0.00000     1.25520  0.0
     55     54     70     71   5     3.67355     4.10869     2.37651  0.0
     55     54     70     78   5     0.00000     0.00000     1.25520  0.0
     55     54     70     79   5     0.00000     0.00000     1.25520  0.0
     63     54     70     71   5     0.00000     0.00000     1.25520  0.0
     63     54     70     78   5     0.00000     0.00000     1.25520  0.0
     63     54     70     79   5     0.00000     0.00000     1.25520  0.0
     54     55     56     57   5    16.31760     1.32214     0.47279  0.0
     54     55     56     64   5     0.00000     0.00000     0.00000  0.0
     54     55     56     65   5     0.00000     0.00000     0.00000  0.0
     59     55     56     57   5    -3.67774    -0.67781     0.28033  0.0
     59     55     56     64   5     0.00000     0.00000     0.00000  0.0
     59     55     56     65   5     0.00000     0.00000     0.00000  0.0
     54     55     59     58   5    12.53945    12.88254     0.00000  0.0
     54     55     59     60   5     0.00000    25.47638     0.00000  0.0
     56     55     59     58   5    12.53945    12.88254     0.00000  0.0
     56     55     59     60   5     0.00000    25.47638     0.00000  0.0
     55     56     57     58   5    -2.26773    -0.14226    -4.06685  0.0
     55     56     57     66   5     0.00000     0.00000     1.25520  0.0
     55     56     57     67   5     0.00000     0.00000     1.25520  0.0
     64     56     57     58   5     0.00000     0.00000     1.25520  0.0
     64     56     57     66   5     0.00000     0.00000     1.25520  0.0
     64     56     57     67   5     0.00000     0.00000     1.25520  0.0
     65     56     57     58   5     0.00000     0.00000     1.25520  0.0
     65     56     57     66   5     0.00000     0.00000     1.25520  0.0
     65     56     57     67   5     0.00000     0.00000     1.25520  0.0
     56     57     58     59   5    -8.00818    -1.52298     2.46438  0.0
     56     57     58     68   5     0.00000     0.00000     1.25520  0.0
     56     57     58     69   5     0.00000     0.00000     1.25520  0.0
     66     57     58     59   5     0.00000     0.00000    -0.94140  0.0
     66     57     58     68   5     0.00000     0.00000     1.25520  0.0
     66     57     58     69   5     0.00000     0.00000     1.25520  0.0
     67     57     58     59   5     0.00000     0.00000    -0.94140  0.0
     67     57     58     68   5     0.00000     0.00000     1.25520  0.0
     67     57     58     69   5     0.00000     0.00000     1.25520  0.0
     57     58     59     55   5    11.69428    -0.66526    -1.56900  0.0
     57     58     59     60   5     0.00000     2.52295     0.00000  0.0
     68     58     59     55   5     0.00000     0.00000     0.00000  0.0
     68     58     59     60   5     0.00000     0.00000     0.00000  0.0
     69     58     59     55   5     0.00000     0.00000     0.00000  0.0
     69     58     59     60   5     0.00000     0.00000     0.00000  0.0
     54     70     71     72   5     3.67355     4.10869     2.37651  0.0
     54     70     71     80   5     0.00000     0.00000     1.25520  0.0
     54     70     71     87   5     4.74884    -0.63178     1.67360  0.0
     78     70     71     72   5     0.00000     0.00000     1.25520  0.0
     78     70     71     80   5     0.00000     0.00000     1.25520  0.0
     78     70     71     87   5     0.00000     0.00000     1.25520  0.0
     79     70     71     72   5     0.00000     0.00000     1.25520  0.0
     79     70     71     80   5     0.00000     0.00000     1.25520  0.0
     79     70     71     87   5     0.00000     0.00000     1.25520  0.0
     70     71     72     73   5    16.31760     1.32214     0.47279  0.0
     70     71     72     76   5    -3.67774    -0.67781     0.28033  0.0
     80     71     72     73   5     0.00000     0.00000     0.00000  0.0
     80     71     72     76   5     0.00000     0.00000     0.00000  0.0
     87     71     72     73   5    16.31760     1.32214     0.47279  0.0
     87     71     72     76   5    -3.67774    -0.67781     0.28033  0.0
     70     71     87     88   5     4.74884    -0.63178     1.67360  0.0
     70     71     87     95   5     0.00000     0.00000     1.25520  0.0
     70     71     87     96   5     0.00000     0.00000     1.25520  0.0
     72     71     87     88   5     3.67355     4.10869     2.37651  0.0
     72     71     87     95   5     0.00000     0.00000     1.25520  0.0
     72     71     87     96   5     0.00000     0.00000     1.25520  0.0
     80     71     87     88   5     0.00000     0.00000     1.25520  0.0
     80     71     87     95   5     0.00000     0.00000     1.25520  0.0
     80     71     87     96   5     0.00000     0.00000     1.25520  0.0
     71     72     73     74   5    16.31760     1.32214     0.47279  0.0
     71     72     73     81   5     0.00000     0.00000     0.00000  0.0
     71     72     73     82   5     0.00000     0.00000     0.00000  0.0
     76     72     73     74   5    -3.67774    -0.67781     0.28033  0.0
     76     72     73     81   5     0.00000     0.00000     0.00000  0.0
     76     72     73     82   5     0.00000     0.00000     0.00000  0.0
     71     72     76     75   5    12.53945    12.88254     0.00000  0.0
     71     72     76     77   5     0.00000    25.47638     0.00000  0.0
     73     72     76     75   5    12.53945    12.88254     0.00000  0.0
     73     72     76     77   5     0.00000    25.47638     0.00000  0.0
     72     73     74     75   5    -2.26773    -0.14226    -4.06685  0.0
     72     73     74     83   5     0.00000     0.00000     1.25520  0.0
     72     73     74     84   5     0.00000     0.00000     1.25520  0.0
     81     73     74     75   5     0.00000     0.00000     1.25520  0.0
     81     73     74     83   5     0.00000     0.00000     1.25520  0.0
     81     73     74     84   5     0.00000     0.00000     1.25520  0.0
     82     73     74     75   5     0.00000     0.00000     1.25520  0.0
     82     73     74     83   5     0.00000     0.00000     1.25520  0.0
     82     73     74     84   5     0.00000     0.00000     1.25520  0.0
     73     74     75     76   5    -8.00818    -1.52298     2.46438  0.0
     73     74     75     85   5     0.00000     0.00000     1.25520  0.0
     73     74     75     86   5     0.00000     0.00000     1.25520  0.0
     83     74     75     76   5     0.00000     0.00000    -0.94140  0.0
     83     74     75     85   5     0.00000     0.00000     1.25520  0.0
     83     74     75     86   5     0.00000     0.00000     1.25520  0.0
     84     74     75     76   5     0.00000     0.00000    -0.94140  0.0
     84     74     75     85   5     0.00000     0.00000     1.25520  0.0
     84     74     75     86   5     0.00000     0.00000     1.25520  0.0
     74     75     76     72   5    11.69428    -0.66526    -1.56900  0.0
     74     75     76     77   5     0.00000     2.52295     0.00000  0.0
     85     75     76     72   5     0.00000     0.00000     0.00000  0.0
     85     75     76     77   5     0.00000     0.00000     0.00000  0.0
     86     75     76     72   5     0.00000     0.00000     0.00000  0.0
     86     75     76     77   5     0.00000     0.00000     0.00000  0.0
     71     87     88     89   5     3.67355     4.10869     2.37651  0.0
     71     87     88     97   5     0.00000     0.00000     1.25520  0.0
     71     87     88    104   5     4.74884    -0.63178     1.67360  0.0
     95     87     88     89   5     0.00000     0.00000     1.25520  0.0
     95     87     88     97   5     0.00000     0.00000     1.25520  0.0
     95     87     88    104   5     0.00000     0.00000     1.25520  0.0
     96     87     88     89   5     0.00000     0.00000     1.25520  0.0
     96     87     88     97   5     0.00000     0.00000     1.25520  0.0
     96     87     88    104   5     0.00000     0.00000     1.25520  0.0
     87     88     89     90   5    16.31760     1.32214     0.47279  0.0
     87     88     89     93   5    -3.67774    -0.67781     0.28033  0.0
     97     88     89     90   5     0.00000     0.00000     0.00000  0.0
     97     88     89     93   5     0.00000     0.00000     0.00000  0.0
    104     88     89     90   5    16.31760     1.32214     0.47279  0.0
    104     88     89     93   5    -3.67774    -0.67781     0.28033  0.0
     87     88    104    105   5     4.74884    -0.63178     1.67360  0.0
     87     88    104    112   5     0.00000     0.00000     1.25520  0.0
     87     88    104    113   5     0.00000     0.00000     1.25520  0.0
     89     88    104    105   5     3.67355     4.10869     2.37651  0.0
     89     88    104    112   5     0.00000     0.00000     1.25520  0.0
     89     88    104    113   5     0.00000     0.00000     1.25520  0.0
     97     88    104    105   5     0.00000     0.00000     1.25520  0.0
     97     88    104    112   5     0.00000     0.00000     1.25520  0.0
     97     88    104    113   5     0.00000     0.00000     1.25520  0.0
     88     89     90     91   5    16.31760     1.32214     0.47279  0.0
     88     89     90     98   5     0.00000     0.00000     0.00000  0.0
     88     89     90     99   5     0.00000     0.00000     0.00000  0.0
     93     89     90     91   5    -3.67774    -0.67781     0.28033  0.0
     93     89     90     98   5     0.00000     0.00000     0.00000  0.0
     93     89     90     99   5     0.00000     0.00000     0.00000  0.0
     88     89     93     92   5    12.53945    12.88254     0.00000  0.0
     88     89     93     94   5     0.00000    25.47638     0.00000  0.0
     90     89     93     92   5    12.53945    12.88254     0.00000  0.0
     90     89     93     94   5     0.00000    25.47638     0.00000  0.0
     89     90     91     92   5    -2.26773    -0.14226    -4.06685  0.0
     89     90     91    100   5     0.00000     0.00000     1.25520  0.0
     89     90     91    101   5     0.00000     0.00000     1.25520  0.0
     98     90     91     92   5     0.00000     0.00000     1.25520  0.0
     98     90     91    100   5     0.00000     0.00000     1.25520  0.0
     98     90     91    101   5     0.00000     0.00000     1.25520  0.0
     99     90     91     92   5     0.00000     0.00000     1.25520  0.0
     99     90     91    100   5     0.00000     0.00000     1.25520  0.0
     99     90     91    101   5     0.00000     0.00000     1.25520  0.0
     90     91     92     93   5    -8.00818    -1.52298     2.46438  0.0
     90     91     92    102   5     0.00000     0.00000     1.25520  0.0
     90     91     92    103   5     0.00000     0.00000     1.25520  0.0
    100     91     92     93   5     0.00000     0.00000    -0.94140  0.0
    100     91     92    102   5     0.00000     0.00000     1.25520  0.0
    100     91     92    103   5     0.00000     0.00000     1.25520  0.0
    101     91     92     93   5     0.00000     0.00000    -0.94140  0.0
    101     91     92    102   5     0.00000     0.00000     1.25520  0.0
    101     91     92    103   5     0.00000     0.00000     1.25520  0.0
     91     92     93     89   5    11.69428    -0.66526    -1.56900  0.0
     91     92     93     94   5     0.00000     2.52295     0.00000  0.0
    102     92     93     89   5     0.00000     0.00000     0.00000  0.0
    102     92     93     94   5     0.00000     0.00000     0.00000  0.0
    103     92     93     89   5     0.00000     0.00000     0.00000  0.0
    103     92     93     94   5     0.00000     0.00000     0.00000  0.0
     88    104    105    106   5     3.67355     4.10869     2.37651  0.0
     88    104    105    114   5     0.00000     0.00000     1.25520  0.0
     88    104    105    121   5     4.74884    -0.63178     1.67360  0.0
    112    104    105    106   5     0.00000     0.00000     1.25520  0.0
    112    104    105    114   5     0.00000     0.00000     1.25520  0.0
    112    104    105    121   5     0.00000     0.00000     1.25520  0.0
    113    104    105    106   5     0.00000     0.00000     1.25520  0.0
    113    104    105    114   5     0.00000     0.00000     1.25520  0.0
    113    104    105    121   5     0.00000     0.00000     1.25520  0.0
    104    105    106    107   5    16.31760     1.32214     0.47279  0.0
    104    105    106    110   5    -3.67774    -0.67781     0.28033  0.0
    114    105    106    107   5     0.00000     0.00000     0.00000  0.0
    114    105    106    110   5     0.00000     0.00000     0.00000  0.0
    121    105    106    107   5    16.31760     1.32214     0.47279  0.0
    121    105    106    110   5    -3.67774    -0.67781     0.28033  0.0
    104    105    121    122   5     4.74884    -0.63178     1.67360  0.0
    104    105    121    129   5     0.00000     0.00000     1.25520  0.0
    104    105    121    130   5     0.00000     0.00000     1.25520  0.0
    106    105    121    122   5     3.67355     4.10869     2.37651  0.0
    106    105    121    129   5     0.00000     0.00000     1.25520  0.0
    106    105    121    130   5     0.00000     0.00000     1.25520  0.0
    114    105    121    122   5     0.00000     0.00000     1.25520  0.0
    114    105    121    129   5     0.00000     0.00000     1.25520  0.0
    114    105    121    130   5     0.00000     0.00000     1.25520  0.0
    105    106    107    108   5    16.31760     1.32214     0.47279  0.0
    105    106    107    115   5     0.00000     0.00000     0.00000  0.0
    105    106    107    116   5     0.00000     0.00000     0.00000  0.0
    110    106    107    108   5    -3.67774    -0.67781     0.28033  0.0
    110    106    107    115   5     0.00000     0.00000     0.00000  0.0
    110    106    107    116   5     0.00000     0.00000     0.00000  0.0
    105    106    110    109   5    12.53945    12.88254     0.00000  0.0
    105    106    110    111   5     0.00000    25.47638     0.00000  0.0
    107    106    110    109   5    12.53945    12.88254     0.00000  0.0
    107    106    110    111   5     0.00000    25.47638     0.00000  0.0
    106    107    108    109   5    -2.26773    -0.14226    -4.06685  0.0
    106    107    108    117   5     0.00000     0.00000     1.25520  0.0
    106    107    108    118   5     0.00000     0.00000     1.25520  0.0
    115    107    108    109   5     0.00000     0.00000     1.25520  0.0
    115    107    108    117   5     0.00000     0.00000     1.25520  0.0
    115    107    108    118   5     0.00000     0.00000     1.25520  0.0
    116    107    108    109   5     0.00000     0.00000     1.25520  0.0
    116    107    108    117   5     0.00000     0.00000     1.25520  0.0
    116    107    108    118   5     0.00000     0.00000     1.25520  0.0
    107    108    109    110   5    -8.00818    -1.52298     2.46438  0.0
    107    108    109    119   5     0.00000     0.00000     1.25520  0.0
    107    108    109    120   5     0.00000     0.00000     1.25520  0.0
    117    108    109    110   5     0.00000     0.00000    -0.94140  0.0
    117    108    109    119   5     0.00000     0.00000     1.25520  0.0
    117    108    109    120   5     0.00000     0.00000     1.25520  0.0
    118    108    109    110   5     0.00000     0.00000    -0.94140  0.0
    118    108    109    119   5     0.00000     0.00000     1.25520  0.0
    118    108    109    120   5     0.00000     0.00000     1.25520  0.0
    108    109    110    106   5    11.69428    -0.66526    -1.56900  0.0
    108    109    110    111   5     0.00000     2.52295     0.00000  0.0
    119    109    110    106   5     0.00000     0.00000     0.00000  0.0
    119    109    110    111   5     0.00000     0.00000     0.00000  0.0
    120    109    110    106   5     0.00000     0.00000     0.00000  0.0
    120    109    110    111   5     0.00000     0.00000     0.00000  0.0
    105    121    122    123   5     3.67355     4.10869     2.37651  0.0
    105    121    122    131   5     0.00000     0.00000     1.25520  0.0
    105    121    122    138   5     4.74884    -0.63178     1.67360  0.0
    129    121    122    123   5     0.00000     0.00000     1.25520  0.0
    129    121    122    131   5     0.00000     0.00000     1.25520  0.0
    129    121    122    138   5     0.00000     0.00000     1.25520  0.0
    130    121    122    123   5     0.00000     0.00000     1.25520  0.0
    130    121    122    131   5     0.00000     0.00000     1.25520  0.0
    130    121    122    138   5     0.00000     0.00000     1.25520  0.0
    121    122    123    124   5    16.31760     1.32214     0.47279  0.0
    121    122    123    127   5    -3.67774    -0.67781     0.28033  0.0
    131    122    123    124   5     0.00000     0.00000     0.00000  0.0
    131    122    123    127   5     0.00000     0.00000     0.00000  0.0
    138    122    123    124   5    16.31760     1.32214     0.47279  0.0
    138    122    123    127   5    -3.67774    -0.67781     0.28033  0.0
    121    122    138    139   5     4.74884    -0.63178     1.67360  0.0
    121    122    138    146   5     0.00000     0.00000     1.25520  0.0
    121    122    138    147   5     0.00000     0.00000     1.25520  0.0
    123    122    138    139   5     3.67355     4.10869     2.37651  0.0
    123    122    138    146   5     0.00000     0.00000     1.25520  0.0
    123    122    138    147   5     0.00000     0.00000     1.25520  0.0
    131    122    138    139   5     0.00000     0.00000     1.25520  0.0
    131    122    138    146   5     0.00000     0.00000     1.25520  0.0
    131    122    138    147   5     0.00000     0.00000     1.25520  0.0
    122    123    124    125   5    16.31760     1.32214     0.47279  0.0
    122    123    124    132   5     0.00000     0.00000     0.00000  0.0
    122    123    124    133   5     0.00000     0.00000     0.00000  0.0
    127    123    124    125   5    -3.67774    -0.67781     0.28033  0.0
    127    123    124    132   5     0.00000     0.00000     0.00000  0.0
    127    123    124    133   5     0.00000     0.00000     0.00000  0.0
    122    123    127    126   5    12.53945    12.88254     0.00000  0.0
    122    123    127    128   5     0.00000    25.47638     0.00000  0.0
    124    123    127    126   5    12.53945    12.88254     0.00000  0.0
    124    123    127    128   5     0.00000    25.47638     0.00000  0.0
    123    124    125    126   5    -2.26773    -0.14226    -4.06685  0.0
    123    124    125    134   5     0.00000     0.00000     1.25520  0.0
    123    124    125    135   5     0.00000     0.00000     1.25520  0.0
    132    124    125    126   5     0.00000     0.00000     1.25520  0.0
    132    124    125    134   5     0.00000     0.00000     1.25520  0.0
    132    124    125    135   5     0.00000     0.00000     1.25520  0.0
    133    124    125    126   5     0.00000     0.00000     1.25520  0.0
    133    124    125    134   5     0.00000     0.00000     1.25520  0.0
    133    124    125    135   5     0.00000     0.00000     1.25520  0.0
    124    125    126    127   5    -8.00818    -1.52298     2.46438  0.0
    124    125    126    136   5     0.00000     0.00000     1.25520  0.0
    124    125    126    137   5     0.00000     0.00000     1.25520  0.0
    134    125    126    127   5     0.00000     0.00000    -0.94140  0.0
    134    125    126    136   5     0.00000     0.00000     1.25520  0.0
    134    125    126    137   5     0.00000     0.00000     1.25520  0.0
    135    125    126    127   5     0.00000     0.00000    -0.94140  0.0
    135    125    126    136   5     0.00000     0.00000     1.25520  0.0
    135    125    126    137   5     0.00000     0.00000     1.25520  0.0
    125    126    127    123   5    11.69428    -0.66526    -1.56900  0.0
    125    126    127    128   5     0.00000     2.52295     0.00000  0.0
    136    126    127    123   5     0.00000     0.00000     0.00000  0.0
    136    126    127    128   5     0.00000     0.00000     0.00000  0.0
    137    126    127    123   5     0.00000     0.00000     0.00000  0.0
    137    126    127    128   5     0.00000     0.00000     0.00000  0.0
    122    138    139    140   5     3.67355     4.10869     2.37651  0.0
    122    138    139    148   5     0.00000     0.00000     1.25520  0.0
    122    138    139    155   5     4.74884    -0.63178     1.67360  0.0
    146    138    139    140   5     0.00000     0.00000     1.25520  0.0
    146    138    139    148   5     0.00000     0.00000     1.25520  0.0
    146    138    139    155   5     0.00000     0.00000     1.25520  0.0
    147    138    139    140   5     0.00000     0.00000     1.25520  0.0
    147    138    139    148   5     0.00000     0.00000     1.25520  0.0
    147    138    139    155   5     0.00000     0.00000     1.25520  0.0
    138    139    140    141   5    16.31760     1.32214     0.47279  0.0
    138    139    140    144   5    -3.67774    -0.67781     0.28033  0.0
    148    139    140    141   5     0.00000     0.00000     0.00000  0.0
    148    139    140    144   5     0.00000     0.00000     0.00000  0.0
    155    139    140    141   5    16.31760     1.32214     0.47279  0.0
    155    139    140    144   5    -3.67774    -0.67781     0.28033  0.0
    138    139    155    156   5     4.74884    -0.63178     1.67360  0.0
    138    139    155    163   5     0.00000     0.00000     1.25520  0.0
    138    139    155    164   5     0.00000     0.00000     1.25520  0.0
    140    139    155    156   5     3.67355     4.10869     2.37651  0.0
    140    139    155    163   5     0.00000     0.00000     1.25520  0.0
    140    139    155    164   5     0.00000     0.00000     1.25520  0.0
    148    139    155    156   5     0.00000     0.00000     1.25520  0.0
    148    139    155    163   5     0.00000     0.00000     1.25520  0.0
    148    139    155    164   5     0.00000     0.00000     1.25520  0.0
    139    140    141    142   5    16.31760     1.32214     0.47279  0.0
    139    140    141    149   5     0.00000     0.00000     0.00000  0.0
    139    140    141    150   5     0.00000     0.00000     0.00000  0.0
    144    140    141    142   5    -3.67774    -0.67781     0.28033  0.0
    144    140    141    149   5     0.00000     0.00000     0.00000  0.0
    144    140    141    150   5     0.00000     0.00000     0.00000  0.0
    139    140    144    143   5    12.53945    12.88254     0.00000  0.0
    139    140    144    145   5     0.00000    25.47638     0.00000  0.0
    141    140    144    143   5    12.53945    12.88254     0.00000  0.0
    141    140    144    145   5     0.00000    25.47638     0.00000  0.0
    140    141    142    143   5    -2.26773    -0.14226    -4.06685  0.0
    140    141    142    151   5     0.00000     0.00000     1.25520  0.0
    140    141    142    152   5     0.00000     0.00000     1.25520  0.0
    149    141    142    143   5     0.00000     0.00000     1.25520  0.0
    149    141    142    151   5     0.00000     0.00000     1.25520  0.0
    149    141    142    152   5     0.00000     0.00000     1.25520  0.0
    150    141    142    143   5     0.00000     0.00000     1.25520  0.0
    150    141    142    151   5     0.00000     0.00000     1.25520  0.0
    150    141    142    152   5     0.00000     0.00000     1.25520  0.0
    141    142    143    144   5    -8.00818    -1.52298     2.46438  0.0
    141    142    143    153   5     0.00000     0.00000     1.25520  0.0
    141    142    143    154   5     0.00000     0.00000     1.25520  0.0
    151    142    143    144   5     0.00000     0.00000    -0.94140  0.0
    151    142    143    153   5     0.00000     0.00000     1.25520  0.0
    151    142    143    154   5     0.00000     0.00000     1.25520  0.0
    152    142    143    144   5     0.00000     0.00000    -0.94140  0.0
    152    142    143    153   5     0.00000     0.00000     1.25520  0.0
    152    142    143    154   5     0.00000     0.00000     1.25520  0.0
    142    143    144    140   5    11.69428    -0.66526    -1.56900  0.0
    142    143    144    145   5     0.00000     2.52295     0.00000  0.0
    153    143    144    140   5     0.00000     0.00000     0.00000  0.0
    153    143    144    145   5     0.00000     0.00000     0.00000  0.0
    154    143    144    140   5     0.00000     0.00000     0.00000  0.0
    154    143    144    145   5     0.00000     0.00000     0.00000  0.0
    139    155    156    157   5     3.67355     4.10869     2.37651  0.0
    139    155    156    165   5     0.00000     0.00000     1.25520  0.0
    139    155    156    172   5     4.74884    -0.63178     1.67360  0.0
    163    155    156    157   5     0.00000     0.00000     1.25520  0.0
    163    155    156    165   5     0.00000     0.00000     1.25520  0.0
    163    155    156    172   5     0.00000     0.00000     1.25520  0.0
    164    155    156    157   5     0.00000     0.00000     1.25520  0.0
    164    155    156    165   5     0.00000     0.00000     1.25520  0.0
    164    155    156    172   5     0.00000     0.00000     1.25520  0.0
    155    156    157    158   5    16.31760     1.32214     0.47279  0.0
    155    156    157    161   5    -3.67774    -0.67781     0.28033  0.0
    165    156    157    158   5     0.00000     0.00000     0.00000  0.0
    165    156    157    161   5     0.00000     0.00000     0.00000  0.0
    172    156    157    158   5    16.31760     1.32214     0.47279  0.0
    172    156    157    161   5    -3.67774    -0.67781     0.28033  0.0
    155    156    172    173   5     4.74884    -0.63178     1.67360  0.0
    155    156    172    180   5     0.00000     0.00000     1.25520  0.0
    155    156    172    181   5     0.00000     0.00000     1.25520  0.0
    157    156    172    173   5     3.67355     4.10869     2.37651  0.0
    157    156    172    180   5     0.00000     0.00000     1.25520  0.0
    157    156    172    181   5     0.00000     0.00000     1.25520  0.0
    165    156    172    173   5     0.00000     0.00000     1.25520  0.0
    165    156    172    180   5     0.00000     0.00000     1.25520  0.0
    165    156    172    181   5     0.00000     0.00000     1.25520  0.0
    156    157    158    159   5    16.31760     1.32214     0.47279  0.0
    156    157    158    166   5     0.00000     0.00000     0.00000  0.0
    156    157    158    167   5     0.00000     0.00000     0.00000  0.0
    161    157    158    159   5    -3.67774    -0.67781     0.28033  0.0
    161    157    158    166   5     0.00000     0.00000     0.00000  0.0
    161    157    158    167   5     0.00000     0.00000     0.00000  0.0
    156    157    161    160   5    12.53945    12.88254     0.00000  0.0
    156    157    161    162   5     0.00000    25.47638     0.00000  0.0
    158    157    161    160   5    12.53945    12.88254     0.00000  0.0
    158    157    161    162   5     0.00000    25.47638     0.00000  0.0
    157    158    159    160   5    -2.26773    -0.14226    -4.06685  0.0
    157    158    159    168   5     0.00000     0.00000     1.25520  0.0
    157    158    159    169   5     0.00000     0.00000     1.25520  0.0
    166    158    159    160   5     0.00000     0.00000     1.25520  0.0
    166    158    159    168   5     0.00000     0.00000     1.25520  0.0
    166    158    159    169   5     0.00000     0.00000     1.25520  0.0
    167    158    159    160   5     0.00000     0.00000     1.25520  0.0
    167    158    159    168   5     0.00000     0.00000     1.25520  0.0
    167    158    159    169   5     0.00000     0.00000     1.25520  0.0
    158    159    160    161   5    -8.00818    -1.52298     2.46438  0.0
    158    159    160    170   5     0.00000     0.00000     1.25520  0.0
    158    159    160    171   5     0.00000     0.00000     1.25520  0.0
    168    159    160    161   5     0.00000     0.00000    -0.94140  0.0
    168    159    160    170   5     0.00000     0.00000     1.25520  0.0
    168    159    160    171   5     0.00000     0.00000     1.25520  0.0
    169    159    160    161   5     0.00000     0.00000    -0.94140  0.0
    169    159    160    170   5     0.00000     0.00000     1.25520  0.0
    169    159    160    171   5     0.00000     0.00000     1.25520  0.0
    159    160    161    157   5    11.69428    -0.66526    -1.56900  0.0
    159    160    161    162   5     0.00000     2.52295     0.00000  0.0
    170    160    161    157   5     0.00000     0.00000     0.00000  0.0
    170    160    161    162   5     0.00000     0.00000     0.00000  0.0
    171    160    161    157   5     0.00000     0.00000     0.00000  0.0
    171    160    161    162   5     0.00000     0.00000     0.00000  0.0
    156    172    173    174   5     3.67355     4.10869     2.37651  0.0
    156    172    173    182   5     0.00000     0.00000     1.25520  0.0
    156    172    173    189   5     4.74884    -0.63178     1.67360  0.0
    180    172    173    174   5     0.00000     0.00000     1.25520  0.0
    180    172    173    182   5     0.00000     0.00000     1.25520  0.0
    180    172    173    189   5     0.00000     0.00000     1.25520  0.0
    181    172    173    174   5     0.00000     0.00000     1.25520  0.0
    181    172    173    182   5     0.00000     0.00000     1.25520  0.0
    181    172    173    189   5     0.00000     0.00000     1.25520  0.0
    172    173    174    175   5    16.31760     1.32214     0.47279  0.0
    172    173    174    178   5    -3.67774    -0.67781     0.28033  0.0
    182    173    174    175   5     0.00000     0.00000     0.00000  0.0
    182    173    174    178   5     0.00000     0.00000     0.00000  0.0
    189    173    174    175   5    16.31760     1.32214     0.47279  0.0
    189    173    174    178   5    -3.67774    -0.67781     0.28033  0.0
    172    173    189    190   5     4.74884    -0.63178     1.67360  0.0
    172    173    189    197   5     0.00000     0.00000     1.25520  0.0
    172    173    189    198   5     0.00000     0.00000     1.25520  0.0
    174    173    189    190   5     3.67355     4.10869     2.37651  0.0
    174    173    189    197   5     0.00000     0.00000     1.25520  0.0
    174    173    189    198   5     0.00000     0.00000     1.25520  0.0
    182    173    189    190   5     0.00000     0.00000     1.25520  0.0
    182    173    189    197   5     0.00000     0.00000     1.25520  0.0
    182    173    189    198   5     0.00000     0.00000     1.25520  0.0
    173    174    175    176   5    16.31760     1.32214     0.47279  0.0
    173    174    175    183   5     0.00000     0.00000     0.00000  0.0
    173    174    175    184   5     0.00000     0.00000     0.00000  0.0
    178    174    175    176   5    -3.67774    -0.67781     0.28033  0.0
    178    174    175    183   5     0.00000     0.00000     0.00000  0.0
    178    174    175    184   5     0.00000     0.00000     0.00000  0.0
    173    174    178    177   5    12.53945    12.88254     0.00000  0.0
    173    174    178    179   5     0.00000    25.47638     0.00000  0.0
    175    174    178    177   5    12.53945    12.88254     0.00000  0.0
    175    174    178    179   5     0.00000    25.47638     0.00000  0.0
    174    175    176    177   5    -2.26773    -0.14226    -4.06685  0.0
    174    175    176    185   5     0.00000     0.00000     1.25520  0.0
    174    175    176    186   5     0.00000     0.00000     1.25520  0.0
    183    175    176    177   5     0.00000     0.00000     1.25520  0.0
    183    175    176    185   5     0.00000     0.00000     1.25520  0.0
    183    175    176    186   5     0.00000     0.00000     1.25520  0.0
    184    175    176    177   5     0.00000     0.00000     1.25520  0.0
    184    175    176    185   5     0.00000     0.00000     1.25520  0.0
    184    175    176    186   5     0.00000     0.00000     1.25520  0.0
    175    176    177    178   5    -8.00818    -1.52298     2.46438  0.0
    175    176    177    187   5     0.00000     0.00000     1.25520  0.0
    175    176    177    188   5     0.00000     0.00000     1.25520  0.0
    185    176    177    178   5     0.00000     0.00000    -0.94140  0.0
    185    176    177    187   5     0.00000     0.00000     1.25520  0.0
    185    176    177    188   5     0.00000     0.00000     1.25520  0.0
    186    176    177    178   5     0.00000     0.00000    -0.94140  0.0
    186    176    177    187   5     0.00000     0.00000     1.25520  0.0
    186    176    177    188   5     0.00000     0.00000     1.25520  0.0
    176    177    178    174   5    11.69428    -0.66526    -1.56900  0.0
    176    177    178    179   5     0.00000     2.52295     0.00000  0.0
    187    177    178    174   5     0.00000     0.00000     0.00000  0.0
    187    177    178    179   5     0.00000     0.00000     0.00000  0.0
    188    177    178    174   5     0.00000     0.00000     0.00000  0.0
    188    177    178    179   5     0.00000     0.00000     0.00000  0.0
    173    189    190    191   5     3.67355     4.10869     2.37651  0.0
    173    189    190    199   5     0.00000     0.00000     1.25520  0.0
    173    189    190    206   5     4.74884    -0.63178     1.67360  0.0
    197    189    190    191   5     0.00000     0.00000     1.25520  0.0
    197    189    190    199   5     0.00000     0.00000     1.25520  0.0
    197    189    190    206   5     0.00000     0.00000     1.25520  0.0
    198    189    190    191   5     0.00000     0.00000     1.25520  0.0
    198    189    190    199   5     0.00000     0.00000     1.25520  0.0
    198    189    190    206   5     0.00000     0.00000     1.25520  0.0
    189    190    191    192   5    16.31760     1.32214     0.47279  0.0
    189    190    191    195   5    -3.67774    -0.67781     0.28033  0.0
    199    190    191    192   5     0.00000     0.00000     0.00000  0.0
    199    190    191    195   5     0.00000     0.00000     0.00000  0.0
    206    190    191    192   5    16.31760     1.32214     0.47279  0.0
    206    190    191    195   5    -3.67774    -0.67781     0.28033  0.0
    189    190    206    207   5     4.74884    -0.63178     1.67360  0.0
    189    190    206    214   5     0.00000     0.00000     1.25520  0.0
    189    190    206    215   5     0.00000     0.00000     1.25520  0.0
    191    190    206    207   5     3.67355     4.10869     2.37651  0.0
    191    190    206    214   5     0.00000     0.00000     1.25520  0.0
    191    190    206    215   5     0.00000     0.00000     1.25520  0.0
    199    190    206    207   5     0.00000     0.00000     1.25520  0.0
    199    190    206    214   5     0.00000     0.00000     1.25520  0.0
    199    190    206    215   5     0.00000     0.00000     1.25520  0.0
    190    191    192    193   5    16.31760     1.32214     0.47279  0.0
    190    191    192    200   5     0.00000     0.00000     0.00000  0.0
    190    191    192    201   5     0.00000     0.00000     0.00000  0.0
    195    191    192    193   5    -3.67774    -0.67781     0.28033  0.0
    195    191    192    200   5     0.00000     0.00000     0.00000  0.0
    195    191    192    201   5     0.00000     0.00000     0.00000  0.0
    190    191    195    194   5    12.53945    12.88254     0.00000  0.0
    190    191    195    196   5     0.00000    25.47638     0.00000  0.0
    192    191    195    194   5    12.53945    12.88254     0.00000  0.0
    192    191    195    196   5     0.00000    25.47638     0.00000  0.0
    191    192    193    194   5    -2.26773    -0.14226    -4.06685  0.0
    191    192    193    202   5     0.00000     0.00000     1.25520  0.0
    191    192    193    203   5     0.00000     0.00000     1.25520  0.0
    200    192    193    194   5     0.00000     0.00000     1.25520  0.0
    200    192    193    202   5     0.00000     0.00000     1.25520  0.0
    200    192    193    203   5     0.00000     0.00000     1.25520  0.0
    201    192    193    194   5     0.00000     0.00000     1.25520  0.0
    201    192    193    202   5     0.00000     0.00000     1.25520  0.0
    201    192    193    203   5     0.00000     0.00000     1.25520  0.0
    192    193    194    195   5    -8.00818    -1.52298     2.46438  0.0
    192    193    194    204   5     0.00000     0.00000     1.25520  0.0
    192    193    194    205   5     0.00000     0.00000     1.25520  0.0
    202    193    194    195   5     0.00000     0.00000    -0.94140  0.0
    202    193    194    204   5     0.00000     0.00000     1.25520  0.0
    202    193    194    205   5     0.00000     0.00000     1.25520  0.0
    203    193    194    195   5     0.00000     0.00000    -0.94140  0.0
    203    193    194    204   5     0.00000     0.00000     1.25520  0.0
    203    193    194    205   5     0.00000     0.00000     1.25520  0.0
    193    194    195    191   5    11.69428    -0.66526    -1.56900  0.0
    193    194    195    196   5     0.00000     2.52295     0.00000  0.0
    204    194    195    191   5     0.00000     0.00000     0.00000  0.0
    204    194    195    196   5     0.00000     0.00000     0.00000  0.0
    205    194    195    191   5     0.00000     0.00000     0.00000  0.0
    205    194    195    196   5     0.00000     0.00000     0.00000  0.0
    190    206    207    208   5     3.67355     4.10869     2.37651  0.0
    190    206    207    216   5     0.00000     0.00000     1.25520  0.0
    190    206    207    223   5     4.74884    -0.63178     1.67360  0.0
    214    206    207    208   5     0.00000     0.00000     1.25520  0.0
    214    206    207    216   5     0.00000     0.00000     1.25520  0.0
    214    206    207    223   5     0.00000     0.00000     1.25520  0.0
    215    206    207    208   5     0.00000     0.00000     1.25520  0.0
    215    206    207    216   5     0.00000     0.00000     1.25520  0.0
    215    206    207    223   5     0.00000     0.00000     1.25520  0.0
    206    207    208    209   5    16.31760     1.32214     0.47279  0.0
    206    207    208    212   5    -3.67774    -0.67781     0.28033  0.0
    216    207    208    209   5     0.00000     0.00000     0.00000  0.0
    216    207    208    212   5     0.00000     0.00000     0.00000  0.0
    223    207    208    209   5    16.31760     1.32214     0.47279  0.0
    223    207    208    212   5    -3.67774    -0.67781     0.28033  0.0
    206    207    223    224   5     4.74884    -0.63178     1.67360  0.0
    206    207    223    231   5     0.00000     0.00000     1.25520  0.0
    206    207    223    232   5     0.00000     0.00000     1.25520  0.0
    208    207    223    224   5     3.67355     4.10869     2.37651  0.0
    208    207    223    231   5     0.00000     0.00000     1.25520  0.0
    208    207    223    232   5     0.00000     0.00000     1.25520  0.0
    216    207    223    224   5     0.00000     0.00000     1.25520  0.0
    216    207    223    231   5     0.00000     0.00000     1.25520  0.0
    216    207    223    232   5     0.00000     0.00000     1.25520  0.0
    207    208    209    210   5    16.31760     1.32214     0.47279  0.0
    207    208    209    217   5     0.00000     0.00000     0.00000  0.0
    207    208    209    218   5     0.00000     0.00000     0.00000  0.0
    212    208    209    210   5    -3.67774    -0.67781     0.28033  0.0
    212    208    209    217   5     0.00000     0.00000     0.00000  0.0
    212    208    209    218   5     0.00000     0.00000     0.00000  0.0
    207    208    212    211   5    12.53945    12.88254     0.00000  0.0
    207    208    212    213   5     0.00000    25.47638     0.00000  0.0
    209    208    212    211   5    12.53945    12.88254     0.00000  0.0
    209    208    212    213   5     0.00000    25.47638     0.00000  0.0
    208    209    210    211   5    -2.26773    -0.14226    -4.06685  0.0
    208    209    210    219   5     0.00000     0.00000     1.25520  0.0
    208    209    210    220   5     0.00000     0.00000     1.25520  0.0
    217    209    210    211   5     0.00000     0.00000     1.25520  0.0
    217    209    210    219   5     0.00000     0.00000     1.25520  0.0
    217    209    210    220   5     0.00000     0.00000     1.25520  0.0
    218    209    210    211   5     0.00000     0.00000     1.25520  0.0
    218    209    210    219   5     0.00000     0.00000     1.25520  0.0
    218    209    210    220   5     0.00000     0.00000     1.25520  0.0
    209    210    211    212   5    -8.00818    -1.52298     2.46438  0.0
    209    210    211    221   5     0.00000     0.00000     1.25520  0.0
    209    210    211    222   5     0.00000     0.00000     1.25520  0.0
    219    210    211    212   5     0.00000     0.00000    -0.94140  0.0
    219    210    211    221   5     0.00000     0.00000     1.25520  0.0
    219    210    211    222   5     0.00000     0.00000     1.25520  0.0
    220    210    211    212   5     0.00000     0.00000    -0.94140  0.0
    220    210    211    221   5     0.00000     0.00000     1.25520  0.0
    220    210    211    222   5     0.00000     0.00000     1.25520  0.0
    210    211    212    208   5    11.69428    -0.66526    -1.56900  0.0
    210    211    212    213   5     0.00000     2.52295     0.00000  0.0
    221    211    212    208   5     0.00000     0.00000     0.00000  0.0
    221    211    212    213   5     0.00000     0.00000     0.00000  0.0
    222    211    212    208   5     0.00000     0.00000     0.00000  0.0
    222    211    212    213   5     0.00000     0.00000     0.00000  0.0
    207    223    224    225   5     3.67355     4.10869     2.37651  0.0
    207    223    224    233   5     0.00000     0.00000     1.25520  0.0
    207    223    224    240   5     4.74884    -0.63178     1.67360  0.0
    231    223    224    225   5     0.00000     0.00000     1.25520  0.0
    231    223    224    233   5     0.00000     0.00000     1.25520  0.0
    231    223    224    240   5     0.00000     0.00000     1.25520  0.0
    232    223    224    225   5     0.00000     0.00000     1.25520  0.0
    232    223    224    233   5     0.00000     0.00000     1.25520  0.0
    232    223    224    240   5     0.00000     0.00000     1.25520  0.0
    223    224    225    226   5    16.31760     1.32214     0.47279  0.0
    223    224    225    229   5    -3.67774    -0.67781     0.28033  0.0
    233    224    225    226   5     0.00000     0.00000     0.00000  0.0
    233    224    225    229   5     0.00000     0.00000     0.00000  0.0
    240    224    225    226   5    16.31760     1.32214     0.47279  0.0
    240    224    225    229   5    -3.67774    -0.67781     0.28033  0.0
    223    224    240    241   5     4.74884    -0.63178     1.67360  0.0
    223    224    240    248   5     0.00000     0.00000     1.25520  0.0
    223    224    240    249   5     0.00000     0.00000     1.25520  0.0
    225    224    240    241   5     3.67355     4.10869     2.37651  0.0
    225    224    240    248   5     0.00000     0.00000     1.25520  0.0
    225    224    240    249   5     0.00000     0.00000     1.25520  0.0
    233    224    240    241   5     0.00000     0.00000     1.25520  0.0
    233    224    240    248   5     0.00000     0.00000     1.25520  0.0
    233    224    240    249   5     0.00000     0.00000     1.25520  0.0
    224    225    226    227   5    16.31760     1.32214     0.47279  0.0
    224    225    226    234   5     0.00000     0.00000     0.00000  0.0
    224    225    226    235   5     0.00000     0.00000     0.00000  0.0
    229    225    226    227   5    -3.67774    -0.67781     0.28033  0.0
    229    225    226    234   5     0.00000     0.00000     0.00000  0.0
    229    225    226    235   5     0.00000     0.00000     0.00000  0.0
    224    225    229    228   5    12.53945    12.88254     0.00000  0.0
    224    225    229    230   5     0.00000    25.47638     0.00000  0.0
    226    225    229    228   5    12.53945    12.88254     0.00000  0.0
    226    225    229    230   5     0.00000    25.47638     0.00000  0.0
    225    226    227    228   5    -2.26773    -0.14226    -4.06685  0.0
    225    226    227    236   5     0.00000     0.00000     1.25520  0.0
    225    226    227    237   5     0.00000     0.00000     1.25520  0.0
    234    226    227    228   5     0.00000     0.00000     1.25520  0.0
    234    226    227    236   5     0.00000     0.00000     1.25520  0.0
    234    226    227    237   5     0.00000     0.00000     1.25520  0.0
    235    226    227    228   5     0.00000     0.00000     1.25520  0.0
    235    226    227    236   5     0.00000     0.00000     1.25520  0.0
    235    226    227    237   5     0.00000     0.00000     1.25520  0.0
    226    227    228    229   5    -8.00818    -1.52298     2.46438  0.0
    226    227    228    238   5     0.00000     0.00000     1.25520  0.0
    226    227    228    239   5     0.00000     0.00000     1.25520  0.0
    236    227    228    229   5     0.00000     0.00000    -0.94140  0.0
    236    227    228    238   5     0.00000     0.00000     1.25520  0.0
    236    227    228    239   5     0.00000     0.00000     1.25520  0.0
    237    227    228    229   5     0.00000     0.00000    -0.94140  0.0
    237    227    228    238   5     0.00000     0.00000     1.25520  0.0
    237    227    228    239   5     0.00000     0.00000     1.25520  0.0
    227    228    229    225   5    11.69428    -0.66526    -1.56900  0.0
    227    228    229    230   5     0.00000     2.52295     0.00000  0.0
    238    228    229    225   5     0.00000     0.00000     0.00000  0.0
    238    228    229    230   5     0.00000     0.00000     0.00000  0.0
    239    228    229    225   5     0.00000     0.00000     0.00000  0.0
    239    228    229    230   5     0.00000     0.00000     0.00000  0.0
    224    240    241    242   5     3.67355     4.10869     2.37651  0.0
    224    240    241    250   5     0.00000     0.00000     1.25520  0.0
    224    240    241    257   5     4.74884    -0.63178     1.67360  0.0
    248    240    241    242   5     0.00000     0.00000     1.25520  0.0
    248    240    241    250   5     0.00000     0.00000     1.25520  0.0
    248    240    241    257   5     0.00000     0.00000     1.25520  0.0
    249    240    241    242   5     0.00000     0.00000     1.25520  0.0
    249    240    241    250   5     0.00000     0.00000     1.25520  0.0
    249    240    241    257   5     0.00000     0.00000     1.25520  0.0
    240    241    242    243   5    16.31760     1.32214     0.47279  0.0
    240    241    242    246   5    -3.67774    -0.67781     0.28033  0.0
    250    241    242    243   5     0.00000     0.00000     0.00000  0.0
    250    241    242    246   5     0.00000     0.00000     0.00000  0.0
    257    241    242    243   5    16.31760     1.32214     0.47279  0.0
    257    241    242    246   5    -3.67774    -0.67781     0.28033  0.0
    240    241    257    258   5     4.74884    -0.63178     1.67360  0.0
    240    241    257    265   5     0.00000     0.00000     1.25520  0.0
    240    241    257    266   5     0.00000     0.00000     1.25520  0.0
    242    241    257    258   5     3.67355     4.10869     2.37651  0.0
    242    241    257    265   5     0.00000     0.00000     1.25520  0.0
    242    241    257    266   5     0.00000     0.00000     1.25520  0.0
    250    241    257    258   5     0.00000     0.00000     1.25520  0.0
    250    241    257    265   5     0.00000     0.00000     1.25520  0.0
    250    241    257    266   5     0.00000     0.00000     1.25520  0.0
    241    242    243    244   5    16.31760     1.32214     0.47279  0.0
    241    242    243    251   5     0.00000     0.00000     0.00000  0.0
    241    242    243    252   5     0.00000     0.00000     0.00000  0.0
    246    242    243    244   5    -3.67774    -0.67781     0.28033  0.0
    246    242    243    251   5     0.00000     0.00000     0.00000  0.0
    246    242    243    252   5     0.00000     0.00000     0.00000  0.0
    241    242    246    245   5    12.53945    12.88254     0.00000  0.0
    241    242    246    247   5     0.00000    25.47638     0.00000  0.0
    243    242    246    245   5    12.53945    12.88254     0.00000  0.0
    243    242    246    247   5     0.00000    25.47638     0.00000  0.0
    242    243    244    245   5    -2.26773    -0.14226    -4.06685  0.0
    242    243    244    253   5     0.00000     0.00000     1.25520  0.0
    242    243    244    254   5     0.00000     0.00000     1.25520  0.0
    251    243    244    245   5     0.00000     0.00000     1.25520  0.0
    251    243    244    253   5     0.00000     0.00000     1.25520  0.0
    251    243    244    254   5     0.00000     0.00000     1.25520  0.0
    252    243    244    245   5     0.00000     0.00000     1.25520  0.0
    252    243    244    253   5     0.00000     0.00000     1.25520  0.0
    252    243    244    254   5     0.00000     0.00000     1.25520  0.0
    243    244    245    246   5    -8.00818    -1.52298     2.46438  0.0
    243    244    245    255   5     0.00000     0.00000     1.25520  0.0
    243    244    245    256   5     0.00000     0.00000     1.25520  0.0
    253    244    245    246   5     0.00000     0.00000    -0.94140  0.0
    253    244    245    255   5     0.00000     0.00000     1.25520  0.0
    253    244    245    256   5     0.00000     0.00000     1.25520  0.0
    254    244    245    246   5     0.00000     0.00000    -0.94140  0.0
    254    244    245    255   5     0.00000     0.00000     1.25520  0.0
    254    244    245    256   5     0.00000     0.00000     1.25520  0.0
    244    245    246    242   5    11.69428    -0.66526    -1.56900  0.0
    244    245    246    247   5     0.00000     2.52295     0.00000  0.0
    255    245    246    242   5     0.00000     0.00000     0.00000  0.0
    255    245    246    247   5     0.00000     0.00000     0.00000  0.0
    256    245    246    242   5     0.00000     0.00000     0.00000  0.0
    256    245    246    247   5     0.00000     0.00000     0.00000  0.0
    241    257    258    259   5     3.67355     4.10869     2.37651  0.0
    241    257    258    267   5     0.00000     0.00000     1.25520  0.0
    241    257    258    274   5     4.74884    -0.63178     1.67360  0.0
    265    257    258    259   5     0.00000     0.00000     1.25520  0.0
    265    257    258    267   5     0.00000     0.00000     1.25520  0.0
    265    257    258    274   5     0.00000     0.00000     1.25520  0.0
    266    257    258    259   5     0.00000     0.00000     1.25520  0.0
    266    257    258    267   5     0.00000     0.00000     1.25520  0.0
    266    257    258    274   5     0.00000     0.00000     1.25520  0.0
    257    258    259    260   5    16.31760     1.32214     0.47279  0.0
    257    258    259    263   5    -3.67774    -0.67781     0.28033  0.0
    267    258    259    260   5     0.00000     0.00000     0.00000  0.0
    267    258    259    263   5     0.00000     0.00000     0.00000  0.0
    274    258    259    260   5    16.31760     1.32214     0.47279  0.0
    274    258    259    263   5    -3.67774    -0.67781     0.28033  0.0
    257    258    274    275   5     4.74884    -0.63178     1.67360  0.0
    257    258    274    282   5     0.00000     0.00000     1.25520  0.0
    257    258    274    283   5     0.00000     0.00000     1.25520  0.0
    259    258    274    275   5     3.67355     4.10869     2.37651  0.0
    259    258    274    282   5     0.00000     0.00000     1.25520  0.0
    259    258    274    283   5     0.00000     0.00000     1.25520  0.0
    267    258    274    275   5     0.00000     0.00000     1.25520  0.0
    267    258    274    282   5     0.00000     0.00000     1.25520  0.0
    267    258    274    283   5     0.00000     0.00000     1.25520  0.0
    258    259    260    261   5    16.31760     1.32214     0.47279  0.0
    258    259    260    268   5     0.00000     0.00000     0.00000  0.0
    258    259    260    269   5     0.00000     0.00000     0.00000  0.0
    263    259    260    261   5    -3.67774    -0.67781     0.28033  0.0
    263    259    260    268   5     0.00000     0.00000     0.00000  0.0
    263    259    260    269   5     0.00000     0.00000     0.00000  0.0
    258    259    263    262   5    12.53945    12.88254     0.00000  0.0
    258    259    263    264   5     0.00000    25.47638     0.00000  0.0
    260    259    263    262   5    12.53945    12.88254     0.00000  0.0
    260    259    263    264   5     0.00000    25.47638     0.00000  0.0
    259    260    261    262   5    -2.26773    -0.14226    -4.06685  0.0
    259    260    261    270   5     0.00000     0.00000     1.25520  0.0
    259    260    261    271   5     0.00000     0.00000     1.25520  0.0
    268    260    261    262   5     0.00000     0.00000     1.25520  0.0
    268    260    261    270   5     0.00000     0.00000     1.25520  0.0
    268    260    261    271   5     0.00000     0.00000     1.25520  0.0
    269    260    261    262   5     0.00000     0.00000     1.25520  0.0
    269    260    261    270   5     0.00000     0.00000     1.25520  0.0
    269    260    261    271   5     0.00000     0.00000     1.25520  0.0
    260    261    262    263   5    -8.00818    -1.52298     2.46438  0.0
    260    261    262    272   5     0.00000     0.00000     1.25520  0.0
    260    261    262    273   5     0.00000     0.00000     1.25520  0.0
    270    261    262    263   5     0.00000     0.00000    -0.94140  0.0
    270    261    262    272   5     0.00000     0.00000     1.25520  0.0
    270    261    262    273   5     0.00000     0.00000     1.25520  0.0
    271    261    262    263   5     0.00000     0.00000    -0.94140  0.0
    271    261    262    272   5     0.00000     0.00000     1.25520  0.0
    271    261    262    273   5     0.00000     0.00000     1.25520  0.0
    261    262    263    259   5    11.69428    -0.66526    -1.56900  0.0
    261    262    263    264   5     0.00000     2.52295     0.00000  0.0
    272    262    263    259   5     0.00000     0.00000     0.00000  0.0
    272    262    263    264   5     0.00000     0.00000     0.00000  0.0
    273    262    263    259   5     0.00000     0.00000     0.00000  0.0
    273    262    263    264   5     0.00000     0.00000     0.00000  0.0
    258    274    275    276   5     3.67355     4.10869     2.37651  0.0
    258    274    275    284   5     0.00000     0.00000     1.25520  0.0
    258    274    275    291   5     4.74884    -0.63178     1.67360  0.0
    282    274    275    276   5     0.00000     0.00000     1.25520  0.0
    282    274    275    284   5     0.00000     0.00000     1.25520  0.0
    282    274    275    291   5     0.00000     0.00000     1.25520  0.0
    283    274    275    276   5     0.00000     0.00000     1.25520  0.0
    283    274    275    284   5     0.00000     0.00000     1.25520  0.0
    283    274    275    291   5     0.00000     0.00000     1.25520  0.0
    274    275    276    277   5    16.31760     1.32214     0.47279  0.0
    274    275    276    280   5    -3.67774    -0.67781     0.28033  0.0
    284    275    276    277   5     0.00000     0.00000     0.00000  0.0
    284    275    276    280   5     0.00000     0.00000     0.00000  0.0
    291    275    276    277   5    16.31760     1.32214     0.47279  0.0
    291    275    276    280   5    -3.67774    -0.67781     0.28033  0.0
    274    275    291    292   5     4.74884    -0.63178     1.67360  0.0
    274    275    291    299   5     0.00000     0.00000     1.25520  0.0
    274    275    291    300   5     0.00000     0.00000     1.25520  0.0
    276    275    291    292   5     3.67355     4.10869     2.37651  0.0
    276    275    291    299   5     0.00000     0.00000     1.25520  0.0
    276    275    291    300   5     0.00000     0.00000     1.25520  0.0
    284    275    291    292   5     0.00000     0.00000     1.25520  0.0
    284    275    291    299   5     0.00000     0.00000     1.25520  0.0
    284    275    291    300   5     0.00000     0.00000     1.25520  0.0
    275    276    277    278   5    16.31760     1.32214     0.47279  0.0
    275    276    277    285   5     0.00000     0.00000     0.00000  0.0
    275    276    277    286   5     0.00000     0.00000     0.00000  0.0
    280    276    277    278   5    -3.67774    -0.67781     0.28033  0.0
    280    276    277    285   5     0.00000     0.00000     0.00000  0.0
    280    276    277    286   5     0.00000     0.00000     0.00000  0.0
    275    276    280    279   5    12.53945    12.88254     0.00000  0.0
    275    276    280    281   5     0.00000    25.47638     0.00000  0.0
    277    276    280    279   5    12.53945    12.88254     0.00000  0.0
    277    276    280    281   5     0.00000    25.47638     0.00000  0.0
    276    277    278    279   5    -2.26773    -0.14226    -4.06685  0.0
    276    277    278    287   5     0.00000     0.00000     1.25520  0.0
    276    277    278    288   5     0.00000     0.00000     1.25520  0.0
    285    277    278    279   5     0.00000     0.00000     1.25520  0.0
    285    277    278    287   5     0.00000     0.00000     1.25520  0.0
    285    277    278    288   5     0.00000     0.00000     1.25520  0.0
    286    277    278    279   5     0.00000     0.00000     1.25520  0.0
    286    277    278    287   5     0.00000     0.00000     1.25520  0.0
    286    277    278    288   5     0.00000     0.00000     1.25520  0.0
    277    278    279    280   5    -8.00818    -1.52298     2.46438  0.0
    277    278    279    289   5     0.00000     0.00000     1.25520  0.0
    277    278    279    290   5     0.00000     0.00000     1.25520  0.0
    287    278    279    280   5     0.00000     0.00000    -0.94140  0.0
    287    278    279    289   5     0.00000     0.00000     1.25520  0.0
    287    278    279    290   5     0.00000     0.00000     1.25520  0.0
    288    278    279    280   5     0.00000     0.00000    -0.94140  0.0
    288    278    279    289   5     0.00000     0.00000     1.25520  0.0
    288    278    279    290   5     0.00000     0.00000     1.25520  0.0
    278    279    280    276   5    11.69428    -0.66526    -1.56900  0.0
    278    279    280    281   5     0.00000     2.52295     0.00000  0.0
    289    279    280    276   5     0.00000     0.00000     0.00000  0.0
    289    279    280    281   5     0.00000     0.00000     0.00000  0.0
    290    279    280    276   5     0.00000     0.00000     0.00000  0.0
    290    279    280    281   5     0.00000     0.00000     0.00000  0.0
    275    291    292    293   5     3.67355     4.10869     2.37651  0.0
    275    291    292    301   5     0.00000     0.00000     1.25520  0.0
    275    291    292    308   5     4.74884    -0.63178     1.67360  0.0
    299    291    292    293   5     0.00000     0.00000     1.25520  0.0
    299    291    292    301   5     0.00000     0.00000     1.25520  0.0
    299    291    292    308   5     0.00000     0.00000     1.25520  0.0
    300    291    292    293   5     0.00000     0.00000     1.25520  0.0
    300    291    292    301   5     0.00000     0.00000     1.25520  0.0
    300    291    292    308   5     0.00000     0.00000     1.25520  0.0
    291    292    293    294   5    16.31760     1.32214     0.47279  0.0
    291    292    293    297   5    -3.67774    -0.67781     0.28033  0.0
    301    292    293    294   5     0.00000     0.00000     0.00000  0.0
    301    292    293    297   5     0.00000     0.00000     0.00000  0.0
    308    292    293    294   5    16.31760     1.32214     0.47279  0.0
    308    292    293    297   5    -3.67774    -0.67781     0.28033  0.0
    291    292    308    309   5     4.74884    -0.63178     1.67360  0.0
    291    292    308    316   5     0.00000     0.00000     1.25520  0.0
    291    292    308    317   5     0.00000     0.00000     1.25520  0.0
    293    292    308    309   5     3.67355     4.10869     2.37651  0.0
    293    292    308    316   5     0.00000     0.00000     1.25520  0.0
    293    292    308    317   5     0.00000     0.00000     1.25520  0.0
    301    292    308    309   5     0.00000     0.00000     1.25520  0.0
    301    292    308    316   5     0.00000     0.00000     1.25520  0.0
    301    292    308    317   5     0.00000     0.00000     1.25520  0.0
    292    293    294    295   5    16.31760     1.32214     0.47279  0.0
    292    293    294    302   5     0.00000     0.00000     0.00000  0.0
    292    293    294    303   5     0.00000     0.00000     0.00000  0.0
    297    293    294    295   5    -3.67774    -0.67781     0.28033  0.0
    297    293    294    302   5     0.00000     0.00000     0.00000  0.0
    297    293    294    303   5     0.00000     0.00000     0.00000  0.0
    292    293    297    296   5    12.53945    12.88254     0.00000  0.0
    292    293    297    298   5     0.00000    25.47638     0.00000  0.0
    294    293    297    296   5    12.53945    12.88254     0.00000  0.0
    294    293    297    298   5     0.00000    25.47638     0.00000  0.0
    293    294    295    296   5    -2.26773    -0.14226    -4.06685  0.0
    293    294    295    304   5     0.00000     0.00000     1.25520  0.0
    293    294    295    305   5     0.00000     0.00000     1.25520  0.0
    302    294    295    296   5     0.00000     0.00000     1.25520  0.0
    302    294    295    304   5     0.00000     0.00000     1.25520  0.0
    302    294    295    305   5     0.00000     0.00000     1.25520  0.0
    303    294    295    296   5     0.00000     0.00000     1.25520  0.0
    303    294    295    304   5     0.00000     0.00000     1.25520  0.0
    303    294    295    305   5     0.00000     0.00000     1.25520  0.0
    294    295    296    297   5    -8.00818    -1.52298     2.46438  0.0
    294    295    296    306   5     0.00000     0.00000     1.25520  0.0
    294    295    296    307   5     0.00000     0.00000     1.25520  0.0
    304    295    296    297   5     0.00000     0.00000    -0.94140  0.0
    304    295    296    306   5     0.00000     0.00000     1.25520  0.0
    304    295    296    307   5     0.00000     0.00000     1.25520  0.0
    305    295    296    297   5     0.00000     0.00000    -0.94140  0.0
    305    295    296    306   5     0.00000     0.00000     1.25520  0.0
    305    295    296    307   5     0.00000     0.00000     1.25520  0.0
    295    296    297    293   5    11.69428    -0.66526    -1.56900  0.0
    295    296    297    298   5     0.00000     2.52295     0.00000  0.0
    306    296    297    293   5     0.00000     0.00000     0.00000  0.0
    306    296    297    298   5     0.00000     0.00000     0.00000  0.0
    307    296    297    293   5     0.00000     0.00000     0.00000  0.0
    307    296    297    298   5     0.00000     0.00000     0.00000  0.0
    292    308    309    310   5     3.67355     4.10869     2.37651  0.0
    292    308    309    318   5     0.00000     0.00000     1.25520  0.0
    292    308    309    325   5     4.74884    -0.63178     1.67360  0.0
    316    308    309    310   5     0.00000     0.00000     1.25520  0.0
    316    308    309    318   5     0.00000     0.00000     1.25520  0.0
    316    308    309    325   5     0.00000     0.00000     1.25520  0.0
    317    308    309    310   5     0.00000     0.00000     1.25520  0.0
    317    308    309    318   5     0.00000     0.00000     1.25520  0.0
    317    308    309    325   5     0.00000     0.00000     1.25520  0.0
    308    309    310    311   5    16.31760     1.32214     0.47279  0.0
    308    309    310    314   5    -3.67774    -0.67781     0.28033  0.0
    318    309    310    311   5     0.00000     0.00000     0.00000  0.0
    318    309    310    314   5     0.00000     0.00000     0.00000  0.0
    325    309    310    311   5    16.31760     1.32214     0.47279  0.0
    325    309    310    314   5    -3.67774    -0.67781     0.28033  0.0
    308    309    325    326   5     4.74884    -0.63178     1.67360  0.0
    308    309    325    333   5     0.00000     0.00000     1.25520  0.0
    308    309    325    334   5     0.00000     0.00000     1.25520  0.0
    310    309    325    326   5     3.67355     4.10869     2.37651  0.0
    310    309    325    333   5     0.00000     0.00000     1.25520  0.0
    310    309    325    334   5     0.00000     0.00000     1.25520  0.0
    318    309    325    326   5     0.00000     0.00000     1.25520  0.0
    318    309    325    333   5     0.00000     0.00000     1.25520  0.0
    318    309    325    334   5     0.00000     0.00000     1.25520  0.0
    309    310    311    312   5    16.31760     1.32214     0.47279  0.0
    309    310    311    319   5     0.00000     0.00000     0.00000  0.0
    309    310    311    320   5     0.00000     0.00000     0.00000  0.0
    314    310    311    312   5    -3.67774    -0.67781     0.28033  0.0
    314    310    311    319   5     0.00000     0.00000     0.00000  0.0
    314    310    311    320   5     0.00000     0.00000     0.00000  0.0
    309    310    314    313   5    12.53945    12.88254     0.00000  0.0
    309    310    314    315   5     0.00000    25.47638     0.00000  0.0
    311    310    314    313   5    12.53945    12.88254     0.00000  0.0
    311    310    314    315   5     0.00000    25.47638     0.00000  0.0
    310    311    312    313   5    -2.26773    -0.14226    -4.06685  0.0
    310    311    312    321   5     0.00000     0.00000     1.25520  0.0
    310    311    312    322   5     0.00000     0.00000     1.25520  0.0
    319    311    312    313   5     0.00000     0.00000     1.25520  0.0
    319    311    312    321   5     0.00000     0.00000     1.25520  0.0
    319    311    312    322   5     0.00000     0.00000     1.25520  0.0
    320    311    312    313   5     0.00000     0.00000     1.25520  0.0
    320    311    312    321   5     0.00000     0.00000     1.25520  0.0
    320    311    312    322   5     0.00000     0.00000     1.25520  0.0
    311    312    313    314   5    -8.00818    -1.52298     2.46438  0.0
    311    312    313    323   5     0.00000     0.00000     1.25520  0.0
    311    312    313    324   5     0.00000     0.00000     1.25520  0.0
    321    312    313    314   5     0.00000     0.00000    -0.94140  0.0
    321    312    313    323   5     0.00000     0.00000     1.25520  0.0
    321    312    313    324   5     0.00000     0.00000     1.25520  0.0
    322    312    313    314   5     0.00000     0.00000    -0.94140  0.0
    322    312    313    323   5     0.00000     0.00000     1.25520  0.0
    322    312    313    324   5     0.00000     0.00000     1.25520  0.0
    312    313    314    310   5    11.69428    -0.66526    -1.56900  0.0
    312    313    314    315   5     0.00000     2.52295     0.00000  0.0
    323    313    314    310   5     0.00000     0.00000     0.00000  0.0
    323    313    314    315   5     0.00000     0.00000     0.00000  0.0
    324    313    314    310   5     0.00000     0.00000     0.00000  0.0
    324    313    314    315   5     0.00000     0.00000     0.00000  0.0
    309    325    326    327   5     3.67355     4.10869     2.37651  0.0
    309    325    326    335   5     0.00000     0.00000     1.25520  0.0
    309    325    326    342   5     0.00000     0.00000     1.25520  0.0
    333    325    326    327   5     0.00000     0.00000     1.25520  0.0
    333    325    326    335   5     0.00000     0.00000     1.25520  0.0
    333    325    326    342   5     0.00000     0.00000     1.25520  0.0
    334    325    326    327   5     0.00000     0.00000     1.25520  0.0
    334    325    326    335   5     0.00000     0.00000     1.25520  0.0
    334    325    326    342   5     0.00000     0.00000     1.25520  0.0
    325    326    327    328   5    16.31760     1.32214     0.47279  0.0
    325    326    327    331   5    -3.67774    -0.67781     0.28033  0.0
    335    326    327    328   5     0.00000     0.00000     0.00000  0.0
    335    326    327    331   5     0.00000     0.00000     0.00000  0.0
    342    326    327    328   5     0.00000     0.00000     0.00000  0.0
    342    326    327    331   5     0.00000     0.00000     0.00000  0.0
    326    327    328    329   5    16.31760     1.32214     0.47279  0.0
    326    327    328    336   5     0.00000     0.00000     0.00000  0.0
    326    327    328    337   5     0.00000     0.00000     0.00000  0.0
    331    327    328    329   5    -3.67774    -0.67781     0.28033  0.0
    331    327    328    336   5     0.00000     0.00000     0.00000  0.0
    331    327    328    337   5     0.00000     0.00000     0.00000  0.0
    326    327    331    330   5    12.53945    12.88254     0.00000  0.0
    326    327    331    332   5     0.00000    25.47638     0.00000  0.0
    328    327    331    330   5    12.53945    12.88254     0.00000  0.0
    328    327    331    332   5     0.00000    25.47638     0.00000  0.0
    327    328    329    330   5    -2.26773    -0.14226    -4.06685  0.0
    327    328    329    338   5     0.00000     0.00000     1.25520  0.0
    327    328    329    339   5     0.00000     0.00000     1.25520  0.0
    336    328    329    330   5     0.00000     0.00000     1.25520  0.0
    336    328    329    338   5     0.00000     0.00000     1.25520  0.0
    336    328    329    339   5     0.00000     0.00000     1.25520  0.0
    337    328    329    330   5     0.00000     0.00000     1.25520  0.0
    337    328    329    338   5     0.00000     0.00000     1.25520  0.0
    337    328    329    339   5     0.00000     0.00000     1.25520  0.0
    328    329    330    331   5    -8.00818    -1.52298     2.46438  0.0
    328    329    330    340   5     0.00000     0.00000     1.25520  0.0
    328    329    330    341   5     0.00000     0.00000     1.25520  0.0
    338    329    330    331   5     0.00000     0.00000    -0.94140  0.0
    338    329    330    340   5     0.00000     0.00000     1.25520  0.0
    338    329    330    341   5     0.00000     0.00000     1.25520  0.0
    339    329    330    331   5     0.00000     0.00000    -0.94140  0.0
    339    329    330    340   5     0.00000     0.00000     1.25520  0.0
    339    329    330    341   5     0.00000     0.00000     1.25520  0.0
    329    330    331    327   5    11.69428    -0.66526    -1.56900  0.0
    329    330    331    332   5     0.00000     2.52295     0.00000  0.0
    340    330    331    327   5     0.00000     0.00000     0.00000  0.0
    340    330    331    332   5     0.00000     0.00000     0.00000  0.0
    341    330    331    327   5     0.00000     0.00000     0.00000  0.0
    341    330    331    332   5     0.00000     0.00000     0.00000  0.0

[ dihedrals ]
; Improper dihedrals
; h   i   j   k   funct
      2      4      3      7   5     0.00000     8.36800     0.00000  0.0
      3      6      7      8   5     0.00000    87.86400     0.00000  0.0
     20     22     21     25   5     0.00000     8.36800     0.00000  0.0
     21     24     25     26   5     0.00000    87.86400     0.00000  0.0
     37     39     38     42   5     0.00000     8.36800     0.00000  0.0
     38     41     42     43   5     0.00000    87.86400     0.00000  0.0
     54     56     55     59   5     0.00000     8.36800     0.00000  0.0
     55     58     59     60   5     0.00000    87.86400     0.00000  0.0
     71     73     72     76   5     0.00000     8.36800     0.00000  0.0
     72     75     76     77   5     0.00000    87.86400     0.00000  0.0
     88     90     89     93   5     0.00000     8.36800     0.00000  0.0
     89     92     93     94   5     0.00000    87.86400     0.00000  0.0
    105    107    106    110   5     0.00000     8.36800     0.00000  0.0
    106    109    110    111   5     0.00000    87.86400     0.00000  0.0
    122    124    123    127   5     0.00000     8.36800     0.00000  0.0
    123    126    127    128   5     0.00000    87.86400     0.00000  0.0
    139    141    140    144   5     0.00000     8.36800     0.00000  0.0
    140    143    144    145   5     0.00000    87.86400     0.00000  0.0
    156    158    157    161   5     0.00000     8.36800     0.00000  0.0
    157    160    161    162   5     0.00000    87.86400     0.00000  0.0
    173    175    174    178   5     0.00000     8.36800     0.00000  0.0
    174    177    178    179   5     0.00000    87.86400     0.00000  0.0
    190    192    191    195   5     0.00000     8.36800     0.00000  0.0
    191    194    195    196   5     0.00000    87.86400     0.00000  0.0
    207    209    208    212   5     0.00000     8.36800     0.00000  0.0
    208    211    212    213   5     0.00000    87.86400     0.00000  0.0
    224    226    225    229   5     0.00000     8.36800     0.00000  0.0
    225    228    229    230   5     0.00000    87.86400     0.00000  0.0
    241    243    242    246   5     0.00000     8.36800     0.00000  0.0
    242    245    246    247   5     0.00000    87.86400     0.00000  0.0
    258    260    259    263   5     0.00000     8.36800     0.00000  0.0
    259    262    263    264   5     0.00000    87.86400     0.00000  0.0
    275    277    276    280   5     0.00000     8.36800     0.00000  0.0
    276    279    280    281   5     0.00000    87.86400     0.00000  0.0
    292    294    293    297   5     0.00000     8.36800     0.00000  0.0
    293    296    297    298   5     0.00000    87.86400     0.00000  0.0
    309    311    310    314   5     0.00000     8.36800     0.00000  0.0
    310    313    314    315   5     0.00000    87.86400     0.00000  0.0
    326    328    327    331   5     0.00000     8.36800     0.00000  0.0
    327    330    331    332   5     0.00000    87.86400     0.00000  0.0
