Control file title. For DL_FIELD 4.10
49932
    1MOL     C1    1   3.618   5.529   4.805 -0.5097  0.1166  0.4188
    1MOL     C2    2   3.540   5.410   4.862 -0.4492 -0.0004 -0.0579
    1MOL     N3    3   3.409   5.443   4.917  0.1262  0.1120  0.4652
    1MOL     C4    4   3.397   5.462   5.063 -0.0869 -0.3504 -0.2590
    1MOL     C5    5   3.278   5.552   5.087  0.7105  0.2852 -0.4881
    1MOL     C6    6   3.202   5.566   4.953  0.4256  0.0587 -0.1055
    1MOL     C7    7   3.299   5.497   4.854  0.3602  0.0882  0.5441
    1MOL     O8    8   3.289   5.517   4.733  0.4398 -0.2383 -0.4058
    1MOL     H9    9   3.620   5.614   4.873  0.2121 -0.1142  0.6836
    1MOL    H10   10   3.724   5.510   4.793 -0.9196 -0.8763 -2.0104
    1MOL    H11   11   3.606   5.391   4.946  2.5717  0.5265 -2.2366
    1MOL    H12   12   3.397   5.366   5.115  1.5950 -0.3638 -0.2672
    1MOL    H13   13   3.485   5.511   5.106 -1.4602  1.3631  0.6600
    1MOL    H14   14   3.226   5.524   5.178 -2.2144 -0.7740 -2.3912
    1MOL    H15   15   3.329   5.645   5.114  1.0105  0.5979 -2.0290
    1MOL    H16   16   3.106   5.515   4.943  0.3204  0.0615  0.8220
    1MOL    H17   17   3.184   5.672   4.935 -0.3758 -0.1397 -0.5106
    1MOL    H18   18   3.566   5.551   4.712  0.7820  0.9318 -0.1119
    1MOL    C19   19   3.540   5.294   4.765  0.6123 -0.4093 -0.9110
    1MOL    C20   20   3.672   5.225   4.725  0.5127 -0.8652 -0.6701
    1MOL    N21   21   3.745   5.164   4.846  0.7237 -0.2196  0.5399
    1MOL    C22   22   3.881   5.203   4.868  0.4841  0.2731 -1.4397
    1MOL    C23   23   3.915   5.115   4.983 -0.2348  0.1779 -0.1823
    1MOL    C24   24   3.800   5.020   5.015  0.1429  0.1670  0.0221
    1MOL    C25   25   3.694   5.086   4.941 -0.7004  0.9444 -0.3311
    1MOL    O26   26   3.579   5.064   4.961  0.4379  0.4382 -0.1385
    1MOL    H27   27   3.490   5.329   4.675  0.1975  3.1066  0.6145
    1MOL    H28   28   3.467   5.221   4.800 -1.4092  1.7926 -0.3980
    1MOL    H29   29   3.725   5.314   4.691  1.2216 -0.9185  0.2765
    1MOL    H30   30   3.950   5.201   4.783  2.1854  1.4476 -0.1172
    1MOL    H31   31   3.882   5.305   4.904 -1.1151  0.0265 -0.6305
    1MOL    H32   32   3.989   5.039   4.958  0.5320  1.2052 -1.0917
    1MOL    H33   33   3.933   5.182   5.067  2.6177  0.5153 -0.9983
    1MOL    H34   34   3.795   4.920   4.972  1.8702  0.0052  0.1603
    1MOL    H35   35   3.783   5.008   5.122 -1.0109  0.4329 -0.1251
    1MOL    C36   36   3.668   5.126   4.607 -0.9145 -0.7337 -0.1754
    1MOL    C37   37   3.607   5.173   4.470 -0.5417  0.5359 -0.7682
    1MOL    N38   38   3.687   5.272   4.400  0.1778  0.4829 -0.4503
    1MOL    C39   39   3.650   5.413   4.405  0.4619  0.5893  0.3591
    1MOL    C40   40   3.762   5.489   4.320 -0.0970 -0.5256 -0.1248
    1MOL    C41   41   3.867   5.377   4.289  0.5897 -0.1201  0.0142
    1MOL    C42   42   3.802   5.246   4.338 -0.7378  0.3285 -0.0473
    1MOL    O43   43   3.856   5.140   4.318  0.4514  0.0681  0.3178
    1MOL    H44   44   3.640   5.023   4.632  1.4422 -1.5414 -0.7248
    1MOL    H45   45   3.776   5.114   4.594 -0.7479  0.6260 -0.1551
    1MOL    H46   46   3.512   5.225   4.482 -0.9373  0.6687 -3.9978
    1MOL    H47   47   3.554   5.436   4.360  0.4938  0.9162  0.4577
    1MOL    H48   48   3.643   5.458   4.504 -0.1448  2.0201 -0.3339
    1MOL    H49   49   3.720   5.532   4.229  1.3729  0.8426 -0.1933
    1MOL    H50   50   3.805   5.566   4.385 -1.6353 -0.0289  0.3184
    1MOL    H51   51   3.864   5.359   4.181 -0.1543 -1.1504  0.2018
    1MOL    H52   52   3.973   5.392   4.311  0.5963 -1.7102  1.1209
    1MOL    C53   53   3.579   5.054   4.375  0.1585 -0.3367 -0.5111
    1MOL    C54   54   3.507   5.083   4.233 -1.1267  0.7559  0.0282
    1MOL    N55   55   3.482   4.961   4.158  0.3761  0.2252  0.1213
    1MOL    C56   56   3.552   4.941   4.035 -0.1662 -0.3162  0.1264
    1MOL    C57   57   3.519   4.798   3.984  0.4400 -0.4122 -0.4313
    1MOL    C58   58   3.418   4.742   4.081 -0.4792 -0.3221 -0.2123
    1MOL    C59   59   3.420   4.842   4.194  0.0453 -0.6378 -0.1413
    1MOL    O60   60   3.369   4.823   4.299  0.7647  0.7671 -0.6721
    1MOL    H61   61   3.519   4.980   4.429  2.0564 -0.7343  1.0917
    1MOL    H62   62   3.675   5.004   4.367 -0.8846 -2.4111 -0.4629
    1MOL    H63   63   3.583   5.136   4.175 -0.6685  0.4667  0.3627
    1MOL    H64   64   3.521   5.016   3.961  0.6320  1.4515  1.5573
    1MOL    H65   65   3.658   4.935   4.057  0.0417  0.4837 -0.6356
    1MOL    H66   66   3.491   4.800   3.879 -0.6450 -1.4371 -0.1764
    1MOL    H67   67   3.605   4.732   3.979 -0.0101 -0.8505 -3.4524
    1MOL    H68   68   3.322   4.741   4.029 -0.0035 -2.1692 -1.0625
    1MOL    H69   69   3.433   4.641   4.119 -3.1888 -1.3768 -1.8026
    1MOL    C70   70   3.377   5.172   4.248  0.8278  0.0436 -0.3421
    1MOL    C71   71   3.292   5.190   4.125  0.7776 -0.2920  0.4564
    1MOL    N72   72   3.195   5.080   4.100  0.3771 -0.2689 -0.1557
    1MOL    C73   73   3.179   5.013   3.969 -0.2418 -0.1186  0.1316
    1MOL    C74   74   3.085   4.896   3.990 -0.9534  0.1285  0.2724
    1MOL    C75   75   3.019   4.927   4.129 -0.3790 -0.3654  0.4099
    1MOL    C76   76   3.096   5.044   4.182  0.1934  0.1534  0.5560
    1MOL    O77   77   3.068   5.087   4.295 -0.1226 -0.0126 -0.3353
    1MOL    H78   78   3.418   5.271   4.269 -0.5452  0.6371 -0.3975
    1MOL    H79   79   3.313   5.150   4.334 -0.8674  0.0486 -1.5738
    1MOL    H80   80   3.361   5.181   4.040 -0.3213  2.4434 -0.7586
    1MOL    H81   81   3.151   5.087   3.894 -1.2636 -1.2486 -0.6259
    1MOL    H82   82   3.272   4.964   3.943  0.1455  1.6212 -1.8818
    1MOL    H83   83   3.015   4.894   3.907  2.6113 -1.4185 -2.8409
    1MOL    H84   84   3.136   4.800   3.997  0.3832  0.8398  0.3674
    1MOL    H85   85   2.915   4.959   4.122 -0.0615  0.9850  1.4539
    1MOL    H86   86   3.040   4.837   4.186 -0.4737 -0.9423 -0.4644
    1MOL    C87   87   3.226   5.328   4.124  0.2596  0.1949 -0.7024
    1MOL    C88   88   3.314   5.457   4.106 -0.4249  0.3994  0.1993
    1MOL    N89   89   3.407   5.440   3.985  0.1958 -0.3657  0.3642
    1MOL    C90   90   3.553   5.431   4.010 -0.4304 -0.9260  0.1198
    1MOL    C91   91   3.623   5.411   3.879 -0.1946 -0.3758  0.5746
    1MOL    C92   92   3.514   5.417   3.771 -0.1075  0.3711 -0.4012
    1MOL    C93   93   3.384   5.435   3.852 -0.3056 -0.1360 -0.4004
    1MOL    O94   94   3.276   5.448   3.791  0.6699 -0.3839 -0.9582
    1MOL    H95   95   3.159   5.336   4.211 -0.2487  0.8130 -1.1417
    1MOL    H96   96   3.156   5.326   4.040 -0.9955  1.6365  0.2724
    1MOL    H97   97   3.375   5.466   4.195 -1.0751  0.0643  0.6866
    1MOL    H98   98   3.593   5.526   4.046  1.6202 -1.8779  0.4216
    1MOL    H99   99   3.576   5.369   4.097 -0.0155 -1.0283 -0.0642
    1MOL   H100  100   3.689   5.497   3.867 -1.4236  0.4575 -0.3411
    1MOL   H101  101   3.692   5.327   3.878  0.7543  0.3424  2.5018
    1MOL   H102  102   3.532   5.496   3.697  0.3542 -0.9545 -1.7206
    1MOL   H103  103   3.505   5.319   3.725  1.3567  0.0988 -0.1528
    1MOL   C104  104   3.225   5.584   4.091 -0.3190 -0.5705  0.0036
    1MOL   C105  105   3.169   5.621   4.236  0.4205  0.0961 -0.2316
    1MOL   N106  106   3.276   5.688   4.313 -0.3051  0.0850 -0.2685
    1MOL   C107  107   3.296   5.655   4.448  0.4036  0.5664  0.1820
    1MOL   C108  108   3.388   5.757   4.520  0.8171  0.0765 -0.3676
    1MOL   C109  109   3.413   5.863   4.415  0.3694  0.1930  0.6058
    1MOL   C110  110   3.340   5.806   4.287  0.1323 -0.5763 -0.1416
    1MOL   O111  111   3.338   5.867   4.179 -0.4576 -0.0328  0.0150
    1MOL   H112  112   3.145   5.560   4.020  0.2432 -0.7078 -0.5849
    1MOL   H113  113   3.290   5.666   4.061 -0.2884 -1.3280 -2.0878
    1MOL   H114  114   3.134   5.532   4.287 -0.8650 -0.0363 -1.3376
    1MOL   H115  115   3.210   5.637   4.514  0.5265  2.6159  0.9747
    1MOL   H116  116   3.337   5.555   4.441  0.6957  0.7152 -0.2338
    1MOL   H117  117   3.343   5.807   4.606 -0.4400 -1.7381  0.0503
    1MOL   H118  118   3.483   5.714   4.554 -0.1688  0.2214  2.6793
    1MOL   H119  119   3.522   5.859   4.410  0.4138 -1.6967  2.2913
    1MOL   H120  120   3.382   5.962   4.450 -1.5292 -0.0455 -0.3523
    1MOL   C121  121   3.041   5.718   4.229 -0.6338 -0.1010  0.3839
    1MOL   C122  122   2.929   5.678   4.131  0.1885  0.1511 -0.7523
    1MOL   N123  123   2.858   5.554   4.174 -0.7274 -0.0001  0.1360
    1MOL   C124  124   2.847   5.446   4.078  0.2216  0.0476  0.3742
    1MOL   C125  125   2.743   5.352   4.133 -0.2027 -0.6645  0.1046
    1MOL   C126  126   2.731   5.386   4.284 -0.0671  0.2252 -0.1871
    1MOL   C127  127   2.799   5.521   4.287  0.6729  0.0569  0.2156
    1MOL   O128  128   2.795   5.600   4.384 -0.4642  0.4513 -0.0694
    1MOL   H129  129   3.065   5.818   4.194 -0.8231 -0.1270  0.1823
    1MOL   H130  130   3.008   5.717   4.333 -0.4201 -3.1074  0.4808
    1MOL   H131  131   2.969   5.664   4.031  0.5639 -1.5329 -0.3933
    1MOL   H132  132   2.944   5.396   4.070 -0.0141 -0.2207 -0.9832
    1MOL   H133  133   2.824   5.485   3.979 -0.5684 -0.1624  0.4780
    1MOL   H134  134   2.648   5.368   4.082 -0.0122  1.8704  0.4809
    1MOL   H135  135   2.767   5.247   4.116  0.1106 -0.6736  0.5870
    1MOL   H136  136   2.629   5.386   4.323 -0.1799  0.4637 -0.4774
    1MOL   H137  137   2.786   5.323   4.353 -0.0994  2.6538  2.1487
    1MOL   C138  138   2.836   5.803   4.108  1.1250  0.1669 -0.7021
    1MOL   C139  139   2.896   5.928   4.040  0.1821 -0.0928  0.2111
    1MOL   N140  140   2.968   5.887   3.911  0.4292  0.5651  0.2754
    1MOL   C141  141   3.110   5.909   3.903 -0.1550 -0.5636 -0.3174
    1MOL   C142  142   3.147   5.866   3.761 -0.4145 -0.3254  0.7826
    1MOL   C143  143   3.022   5.808   3.695 -0.1047 -0.7357 -0.5354
    1MOL   C144  144   2.918   5.831   3.804 -0.1605  0.6465 -0.1577
    1MOL   O145  145   2.798   5.796   3.786 -0.0117  0.1282 -0.1995
    1MOL   H146  146   2.801   5.837   4.205  0.3178  0.7245 -1.1847
    1MOL   H147  147   2.742   5.777   4.060  1.4320  0.1093 -1.2730
    1MOL   H148  148   2.974   5.977   4.100  0.3162 -1.8118  1.4973
    1MOL   H149  149   3.132   6.013   3.928 -2.4088 -0.4370  1.3322
    1MOL   H150  150   3.172   5.855   3.975 -0.7811 -0.0168  0.6454
    1MOL   H151  151   3.186   5.953   3.708 -1.6882 -1.8764 -2.9196
    1MOL   H152  152   3.224   5.789   3.762  0.4719  0.5360  0.2973
    1MOL   H153  153   3.028   5.700   3.686  3.0883 -0.6742  0.2111
    1MOL   H154  154   2.983   5.852   3.603  0.0421  1.9298  0.6467
    1MOL   C155  155   2.783   6.029   4.024  0.0163 -0.7030  0.1162
    1MOL   C156  156   2.842   6.166   3.974 -0.1408 -0.1367 -0.8285
    1MOL   N157  157   2.749   6.224   3.873 -0.1096  0.2592 -0.0962
    1MOL   C158  158   2.794   6.220   3.726 -0.0581  0.0521 -0.5501
    1MOL   C159  159   2.702   6.315   3.659 -0.5473  0.1299 -0.7865
    1MOL   C160  160   2.580   6.326   3.752  0.2952  0.4331  0.3868
    1MOL   C161  161   2.633   6.289   3.886  0.1841  0.2048  0.0457
    1MOL   O162  162   2.572   6.315   3.990 -0.5226 -0.6916  0.2676
    1MOL   H163  163   2.729   6.043   4.118  3.0229 -0.9109  1.9491
    1MOL   H164  164   2.712   5.990   3.952  0.0578  0.5843 -0.6487
    1MOL   H165  165   2.933   6.139   3.921 -0.7785 -5.5786  0.4708
    1MOL   H166  166   2.899   6.246   3.721  0.4751 -1.8787  0.3559
    1MOL   H167  167   2.783   6.126   3.672 -1.7181 -1.4660  2.3227
    1MOL   H168  168   2.757   6.409   3.654  1.5683 -0.7792  3.0731
    1MOL   H169  169   2.686   6.276   3.558  0.7034  1.0235 -1.3516
    1MOL   H170  170   2.534   6.425   3.762  1.9947  1.2463  0.3873
    1MOL   H171  171   2.508   6.254   3.712  0.2923  1.7730 -2.1327
    1MOL   C172  172   2.868   6.266   4.087  0.1058  0.2239  0.1266
    1MOL   C173  173   3.003   6.262   4.157  0.8630 -0.8692  0.0571
    1MOL   N174  174   3.118   6.275   4.076  0.2915 -0.3100 -0.2526
    1MOL   C175  175   3.241   6.214   4.121 -0.3671  0.2812  0.2967
    1MOL   C176  176   3.356   6.261   4.031  0.2942 -0.2872  0.2450
    1MOL   C177  177   3.286   6.320   3.910  0.1677 -0.5810 -0.0924
    1MOL   C178  178   3.146   6.355   3.972 -0.1585 -0.0605  0.0098
    1MOL   O179  179   3.070   6.435   3.917  0.3653 -0.1367  0.4576
    1MOL   H180  180   2.797   6.242   4.167  1.4463  1.0242  1.5779
    1MOL   H181  181   2.850   6.367   4.051 -0.9746 -0.7697 -2.2441
    1MOL   H182  182   3.005   6.162   4.200  2.3924 -1.0736 -0.4518
    1MOL   H183  183   3.274   6.229   4.224 -1.0162  0.4757  0.4768
    1MOL   H184  184   3.238   6.105   4.118 -0.3983  0.3139 -0.8342
    1MOL   H185  185   3.437   6.192   4.010  0.1866 -0.1914 -0.5057
    1MOL   H186  186   3.398   6.338   4.096 -0.1665 -0.2512  0.5063
    1MOL   H187  187   3.329   6.411   3.870  0.2596 -1.0282 -1.0177
    1MOL   H188  188   3.270   6.247   3.831 -1.8445 -0.0999 -0.1690
    1MOL   C189  189   3.002   6.376   4.266  0.7585  0.0184  0.4096
    1MOL   C190  190   2.925   6.347   4.389  0.9119  0.5614  0.7450
    1MOL   N191  191   2.976   6.227   4.453 -0.2523  0.5531 -0.2931
    1MOL   C192  192   3.095   6.228   4.534 -0.5584 -0.4215 -1.2095
    1MOL   C193  193   3.114   6.093   4.604  0.2546 -0.0473 -0.4466
    1MOL   C194  194   3.004   6.009   4.537  0.2164  0.2490 -0.2642
    1MOL   C195  195   2.921   6.102   4.446  0.2879 -0.7446 -0.2536
    1MOL   O196  196   2.820   6.072   4.388  0.5266 -0.2996 -0.5746
    1MOL   H197  197   2.968   6.470   4.224 -2.9582 -2.5488 -2.6341
    1MOL   H198  198   3.107   6.387   4.296  0.2035  1.9659  1.7347
    1MOL   H199  199   2.818   6.335   4.372  0.5849  3.6343  0.2442
    1MOL   H200  200   3.182   6.257   4.476 -0.5000  2.2710  0.1134
    1MOL   H201  201   3.078   6.309   4.605 -2.8667 -1.5994 -0.3696
    1MOL   H202  202   3.214   6.059   4.577  0.4263 -0.1765  0.3168
    1MOL   H203  203   3.093   6.085   4.711 -2.0875 -1.6545 -0.9976
    1MOL   H204  204   3.052   5.933   4.476 -0.5937 -0.5092  0.0330
    1MOL   H205  205   2.945   5.954   4.611 -1.4998  0.4054 -1.4897
    1MOL   C206  206   2.944   6.474   4.473  0.1134 -0.1037 -0.1831
    1MOL   C207  207   2.872   6.495   4.603 -0.4058 -0.8985  0.6018
    1MOL   N208  208   2.915   6.628   4.664 -0.0501 -0.2146  0.1429
    1MOL   C209  209   2.987   6.636   4.790 -0.2775 -0.5924  0.2086
    1MOL   C210  210   3.027   6.780   4.813  0.7691 -0.4360  0.4126
    1MOL   C211  211   2.979   6.857   4.696  0.1408 -0.5450  0.6437
    1MOL   C212  212   2.913   6.753   4.609 -0.3252  0.2918  0.3300
    1MOL   O213  213   2.871   6.786   4.498 -0.3999 -0.1912 -0.0381
    1MOL   H214  214   2.902   6.558   4.418  2.7906  1.4336  0.0272
    1MOL   H215  215   3.050   6.496   4.485  0.1137  0.3394 -0.9902
    1MOL   H216  216   2.904   6.431   4.686  0.6115 -1.0763  0.0859
    1MOL   H217  217   2.924   6.592   4.867 -0.1297 -2.6473 -0.8013
    1MOL   H218  218   3.077   6.575   4.777 -0.1623 -0.5713  0.8800
    1MOL   H219  219   2.988   6.811   4.910  0.9942  1.6993 -0.1417
    1MOL   H220  220   3.135   6.793   4.823  0.8808  0.1811 -1.2909
    1MOL   H221  221   2.913   6.938   4.729 -0.8463 -0.4443 -1.4671
    1MOL   H222  222   3.059   6.891   4.630 -0.6996 -1.1836 -0.7403
    1MOL   C223  223   2.719   6.481   4.592 -0.1703 -0.2087  0.0778
    1MOL   C224  224   2.650   6.339   4.625 -0.4711 -0.0312  0.9865
    1MOL   N225  225   2.682   6.302   4.764 -0.1778  0.7610 -0.1626
    1MOL   C226  226   2.739   6.173   4.782  0.0027  0.2118 -0.3109
    1MOL   C227  227   2.749   6.154   4.931  0.0502  0.1781  0.7980
    1MOL   C228  228   2.719   6.292   4.994  0.2387 -0.5732  0.8967
    1MOL   C229  229   2.665   6.374   4.878  0.4206  0.5984  0.1384
    1MOL   O230  230   2.622   6.487   4.893 -0.0667  0.3167 -0.1571
    1MOL   H231  231   2.690   6.506   4.490 -0.9475  1.0810  0.5973
    1MOL   H232  232   2.665   6.558   4.648 -1.2428 -1.2859  0.5502
    1MOL   H233  233   2.697   6.266   4.559 -2.4026  0.7230 -1.3010
    1MOL   H234  234   2.672   6.100   4.738 -2.0596  1.1178  1.2260
    1MOL   H235  235   2.836   6.178   4.732  0.4854  2.0586  0.7439
    1MOL   H236  236   2.677   6.082   4.971 -2.5239  1.2675 -1.7223
    1MOL   H237  237   2.845   6.117   4.969 -1.2378 -1.6010  2.4679
    1MOL   H238  238   2.630   6.294   5.057 -0.6286 -0.8955 -0.2882
    1MOL   H239  239   2.808   6.340   5.035  0.9864  0.2024 -1.5782
    1MOL   C240  240   2.507   6.359   4.592  0.4212 -0.1854 -0.1766
    1MOL   C241  241   2.476   6.348   4.437 -0.0289  0.2759  0.1218
    1MOL   N242  242   2.431   6.219   4.393  0.1668  0.2314 -0.0964
    1MOL   C243  243   2.497   6.155   4.283  0.5906  0.3204 -0.3387
    1MOL   C244  244   2.426   6.026   4.254  0.5866 -0.1804  0.6310
    1MOL   C245  245   2.316   6.010   4.365 -0.3828 -0.0061 -0.2184
    1MOL   C246  246   2.324   6.148   4.436  0.1361  0.8344  0.2284
    1MOL   O247  247   2.234   6.184   4.514 -0.2247  0.4090  0.5492
    1MOL   H248  248   2.466   6.447   4.641 -1.1519 -1.1491  0.2805
    1MOL   H249  249   2.455   6.280   4.647 -0.6133  0.5717 -0.0603
    1MOL   H250  250   2.549   6.387   4.365  0.1950 -1.1624 -0.4570
    1MOL   H251  251   2.488   6.214   4.192  0.7736 -0.3417 -0.7970
    1MOL   H252  252   2.600   6.140   4.314  0.1368 -1.2614  0.4595
    1MOL   H253  253   2.369   6.028   4.161 -1.8280  0.1300  2.0742
    1MOL   H254  254   2.490   5.938   4.245 -0.1354 -0.5044 -1.6388
    1MOL   H255  255   2.219   5.978   4.329 -0.8548 -0.3882  1.3991
    1MOL   H256  256   2.340   5.937   4.441  0.0568 -0.2775 -0.6134
    1MOL   C257  257   2.355   6.446   4.407 -0.1603  0.8292 -0.3338
    1MOL   C258  258   2.393   6.598   4.407  0.1163 -0.8275  0.1681
    1MOL   N259  259   2.474   6.637   4.291 -0.3500  0.3007  0.3399
    1MOL   C260  260   2.591   6.717   4.311 -0.2446  0.7146  0.3460
    1MOL   C261  261   2.650   6.740   4.179 -0.3977  0.5026  0.3278
    1MOL   C262  262   2.542   6.713   4.079 -0.7151 -0.5826 -0.2302
    1MOL   C263  263   2.440   6.631   4.160  0.6057 -0.0101 -0.8733
    1MOL   O264  264   2.341   6.574   4.116 -0.0102 -0.3049 -0.3180
    1MOL   H265  265   2.290   6.437   4.493  0.3371 -0.9555 -0.1314
    1MOL   H266  266   2.306   6.418   4.314  0.2072 -2.5901  0.4281
    1MOL   H267  267   2.467   6.609   4.487 -0.8288 -1.0770  1.0853
    1MOL   H268  268   2.571   6.809   4.366  0.2399 -0.0439  1.8214
    1MOL   H269  269   2.671   6.668   4.367  0.1483  0.6144 -0.2981
    1MOL   H270  270   2.700   6.836   4.170  1.1262 -0.4715 -1.8678
    1MOL   H271  271   2.729   6.668   4.160  0.2096  1.5191 -1.0901
    1MOL   H272  272   2.494   6.808   4.056 -1.0990 -0.2777  1.6694
    1MOL   H273  273   2.569   6.659   3.989  1.1964 -0.2728  0.1320
    1MOL   C274  274   2.283   6.699   4.434 -0.2030 -0.0444  0.0665
    1MOL   C275  275   2.180   6.682   4.556 -0.5698  0.3315  0.0916
    1MOL   N276  276   2.247   6.674   4.687 -0.4198  0.1073  0.5723
    1MOL   C277  277   2.224   6.554   4.775  0.5774 -0.5857  0.0180
    1MOL   C278  278   2.298   6.586   4.910 -0.5943  0.2226 -0.0237
    1MOL   C279  279   2.365   6.724   4.894 -0.3360 -0.4270 -0.0953
    1MOL   C280  280   2.327   6.764   4.751 -0.0801 -0.4047 -0.3441
    1MOL   O281  281   2.376   6.863   4.700  0.0857  0.2436 -0.0632
    1MOL   H282  282   2.229   6.723   4.342 -0.0659 -0.8874 -0.2459
    1MOL   H283  283   2.342   6.788   4.452 -0.2652  0.0445 -0.1663
    1MOL   H284  284   2.129   6.586   4.542 -0.4576  0.2207  0.4445
    1MOL   H285  285   2.116   6.547   4.795  0.6092  2.3352  1.5564
    1MOL   H286  286   2.255   6.458   4.733  1.1226 -0.0320 -0.8434
    1MOL   H287  287   2.224   6.587   4.990 -1.2533 -3.3460 -0.4931
    1MOL   H288  288   2.372   6.510   4.936 -2.1919 -0.4830  2.6542
    1MOL   H289  289   2.345   6.800   4.970  0.0354  1.2447 -1.6369
    1MOL   H290  290   2.473   6.717   4.889 -0.5462 -2.8117 -2.3226
    1MOL   C291  291   2.072   6.797   4.566  0.3452  0.5053  0.1379
    1MOL   C292  292   1.957   6.776   4.469  0.2777  0.8180  0.0887
    1MOL   N293  293   1.883   6.645   4.485 -0.0238 -0.7524  0.3236
    1MOL   C294  294   1.842   6.570   4.364 -0.2189  0.4349 -0.5998
    1MOL   C295  295   1.717   6.501   4.405  0.3033 -1.0473 -0.1227
    1MOL   C296  296   1.712   6.501   4.558  0.4100  0.3554 -0.1030
    1MOL   C297  297   1.813   6.614   4.597  0.1975  0.4375  0.4308
    1MOL   O298  298   1.826   6.665   4.708 -0.8940 -0.4267  0.2047
    1MOL   H299  299   2.113   6.898   4.556 -0.5574  1.0083  1.4119
    1MOL   H300  300   2.042   6.793   4.671  0.8965  1.1781  0.3239
    1MOL   H301  301   2.004   6.772   4.371  2.2220 -1.1437  1.0522
    1MOL   H302  302   1.830   6.648   4.289 -0.4487  1.9900  1.0255
    1MOL   H303  303   1.923   6.502   4.337 -0.6206  0.5244 -2.0661
    1MOL   H304  304   1.633   6.555   4.360  0.3599 -2.0543 -1.4689
    1MOL   H305  305   1.724   6.398   4.370 -1.4423 -1.0747 -0.4771
    1MOL   H306  306   1.608   6.508   4.589  0.3538 -0.0317 -0.2029
    1MOL   H307  307   1.748   6.407   4.601 -0.4847  0.5618  1.1246
    1MOL   C308  308   1.858   6.894   4.474  0.8524  0.7262  0.0033
    1MOL   C309  309   1.919   7.012   4.392  0.2611  0.5259  0.0590
    1MOL   N310  310   1.936   6.964   4.253 -0.2728 -0.6018  0.3147
    1MOL   C311  311   2.066   6.984   4.184  0.1005  0.1158  0.0189
    1MOL   C312  312   2.045   6.917   4.050 -0.2374  0.2991 -0.7859
    1MOL   C313  313   1.906   6.852   4.046 -0.6250  0.9882  0.2856
    1MOL   C314  314   1.846   6.899   4.177  0.5147 -0.0475  0.7327
    1MOL   O315  315   1.731   6.875   4.204  0.7277 -0.8792  1.0604
    1MOL   H316  316   1.825   6.913   4.576 -1.3571  0.7078 -0.6976
    1MOL   H317  317   1.761   6.870   4.432  1.6222 -3.0904  0.2246
    1MOL   H318  318   2.016   7.041   4.430 -0.0201  2.1222 -0.3916
    1MOL   H319  319   2.080   7.091   4.169 -1.0148  0.5469  1.8476
    1MOL   H320  320   2.149   6.943   4.241  0.2547 -0.2315 -0.4554
    1MOL   H321  321   2.054   6.995   3.975 -2.1133  0.5047 -0.8244
    1MOL   H322  322   2.112   6.833   4.027  0.0156  0.4881 -0.7442
    1MOL   H323  323   1.845   6.871   3.957 -0.6289 -3.1064 -0.6852
    1MOL   H324  324   1.918   6.744   4.055 -0.5783  0.7564 -2.1429
    1MOL   C325  325   1.825   7.139   4.400  0.3280  0.2585  0.4184
    1MOL   C326  326   1.782   7.182   4.541 -0.4987 -0.0402  0.5974
    1MOL   N327  327   1.883   7.205   4.647  0.0083  0.0109 -0.6752
    1MOL   C328  328   2.016   7.261   4.626 -0.3090 -0.1102 -0.4839
    1MOL   C329  329   2.082   7.279   4.767  0.6381  0.7155  1.0495
    1MOL   C330  330   1.981   7.208   4.850  0.2084 -0.0726  0.4134
    1MOL   C331  331   1.863   7.168   4.772  0.4156 -0.3404 -0.2889
    1MOL   O332  332   1.755   7.124   4.813  0.3859  0.1602  0.4953
    1MOL   H333  333   1.736   7.123   4.340 -1.4848  1.4343  2.7377
    1MOL   H334  334   1.879   7.222   4.354  2.4990 -2.3320 -1.9074
    1MOL   H335  335   1.700   7.120   4.576 -0.8901 -0.1371 -0.4597
    1MOL   H336  336   2.067   7.176   4.582  1.5228 -0.1618  1.6328
    1MOL   H337  337   2.006   7.357   4.575  2.4188  0.6157  0.2539
    1MOL   H338  338   2.174   7.222   4.778 -0.7251 -1.5758  0.9176
    1MOL   H339  339   2.080   7.379   4.810  1.0835 -0.0664  2.9544
    1MOL   H340  340   2.032   7.128   4.904  1.6065  0.7829  0.4053
    1MOL   H341  341   1.945   7.278   4.926 -0.5521 -0.8866  0.8069
    1MOL   H342  342   1.738   7.281   4.535 -0.7179 -0.1065  1.1334
    2MOL     C1  343   7.042   0.430   3.494 -0.0006 -0.0947 -0.0246
    2MOL     C2  344   7.134   0.449   3.612 -0.6370 -0.4632 -0.1898
    2MOL     N3  345   7.204   0.579   3.613  0.3657  0.6873  0.0453
    2MOL     C4  346   7.352   0.593   3.612 -0.1775  0.4025  0.2583
    2MOL     C5  347   7.382   0.740   3.588 -0.1677  0.4934 -0.6422
    2MOL     C6  348   7.248   0.808   3.609 -0.0722 -0.5337 -0.1033
    2MOL     C7  349   7.144   0.699   3.613 -0.7616 -0.6074 -0.1478
    2MOL     O8  350   7.027   0.722   3.604  0.0354  0.1429  0.0047
    2MOL     H9  351   6.959   0.500   3.502 -0.0351  0.4654 -4.3719
    2MOL    H10  352   7.107   0.464   3.414  1.4846  0.5783  1.4419
    2MOL    H11  353   7.218   0.379   3.609  0.5790  0.9629 -0.0998
    2MOL    H12  354   7.376   0.575   3.716  1.1875  2.0117  0.2284
    2MOL    H13  355   7.406   0.522   3.549 -0.0417 -0.4250  1.2930
    2MOL    H14  356   7.466   0.785   3.641 -1.0464 -0.5776  1.7333
    2MOL    H15  357   7.417   0.737   3.485  0.6530 -3.8953 -0.3309
    2MOL    H16  358   7.228   0.865   3.700 -1.1152  1.7801 -1.7109
    2MOL    H17  359   7.216   0.873   3.527 -1.2472  0.4675  1.1234
    2MOL    H18  360   7.015   0.325   3.481 -2.3866  0.3887  0.7284
    2MOL    C19  361   7.054   0.429   3.739 -0.6429  0.3691 -0.7144
    2MOL    C20  362   7.041   0.286   3.783 -1.1317  0.1314  0.3819
    2MOL    N21  363   7.175   0.230   3.824 -0.6542  0.0922 -0.6935
    2MOL    C22  364   7.185   0.084   3.823  0.0482 -0.3161  0.1695
    2MOL    C23  365   7.327   0.053   3.836 -0.8660  0.0843 -0.5954
    2MOL    C24  366   7.396   0.179   3.898 -0.0375  0.2296  0.2105
    2MOL    C25  367   7.289   0.283   3.864 -0.3743 -0.9768  0.0002
    2MOL    O26  368   7.313   0.402   3.871 -0.0854 -0.1141  0.3598
    2MOL    H27  369   6.955   0.472   3.720 -0.4188  1.2312  0.0635
    2MOL    H28  370   7.086   0.495   3.819 -1.2532  0.5908 -0.6531
    2MOL    H29  371   7.009   0.227   3.697  0.7236  0.8684 -0.8509
    2MOL    H30  372   7.120   0.036   3.897  0.6744  0.9716  1.5781
    2MOL    H31  373   7.147   0.039   3.731  0.9840 -0.1660 -0.2956
    2MOL    H32  374   7.342   7.868   3.894 -1.3604  1.8426  2.3562
    2MOL    H33  375   7.367   0.032   3.736  0.9173  0.8185 -0.0523
    2MOL    H34  376   7.410   0.168   4.006  0.8575 -1.1096 -0.0263
    2MOL    H35  377   7.489   0.194   3.844 -0.6196 -0.9694 -1.1647
    2MOL    C36  378   6.938   0.265   3.902 -0.3904 -0.0465  0.9725
    2MOL    C37  379   6.796   0.314   3.880 -0.8570  0.1332 -0.1646
    2MOL    N38  380   6.745   0.278   3.744 -0.1086  0.4496  0.0807
    2MOL    C39  381   6.670   0.380   3.672  0.3056  0.3664  0.0785
    2MOL    C40  382   6.659   0.322   3.538  0.1884  0.0100  0.7494
    2MOL    C41  383   6.681   0.172   3.542  0.4778  0.5380  0.1879
    2MOL    C42  384   6.747   0.164   3.675  0.4140  0.2308 -0.4265
    2MOL    O43  385   6.809   0.067   3.718  0.0744 -0.4461  0.4047
    2MOL    H44  386   6.974   0.328   3.983  0.4904  1.7094 -0.7301
    2MOL    H45  387   6.939   0.163   3.940  1.8725 -1.1826 -1.9507
    2MOL    H46  388   6.795   0.422   3.895  0.1834 -0.1101  1.7198
    2MOL    H47  389   6.572   0.399   3.716  0.5526 -0.2752  0.9184
    2MOL    H48  390   6.713   0.478   3.653  2.4856  0.0042  2.7354
    2MOL    H49  391   6.563   0.338   3.488  0.1361  1.2899  1.2535
    2MOL    H50  392   6.738   0.358   3.472  1.3133 -1.4685  1.2934
    2MOL    H51  393   6.591   0.110   3.539  1.6114 -1.1521 -0.0944
    2MOL    H52  394   6.741   0.131   3.461  0.5741  1.0712 -0.0079
    2MOL    C53  395   6.699   0.247   3.988 -0.0161  0.0613  0.4102
    2MOL    C54  396   6.705   0.316   4.124  0.9988 -0.7763  1.1660
    2MOL    N55  397   6.696   0.464   4.111  0.7500  0.1158  0.2210
    2MOL    C56  398   6.802   0.557   4.151  1.0507  0.1351  0.5927
    2MOL    C57  399   6.769   0.692   4.079  0.3484  0.6128 -0.9111
    2MOL    C58  400   6.616   0.679   4.051  0.2558  0.1844 -0.1539
    2MOL    C59  401   6.592   0.529   4.056  0.0615  0.1863 -0.0412
    2MOL    O60  402   6.488   0.489   4.007  0.0383 -0.1569 -0.1961
    2MOL    H61  403   6.744   0.149   4.000  1.1479  0.1095 -2.9491
    2MOL    H62  404   6.599   0.241   3.945 -0.2414  0.3710  0.8780
    2MOL    H63  405   6.801   0.303   4.174  1.1920  3.8118  2.1900
    2MOL    H64  406   6.785   0.570   4.258  0.7672  0.0559  0.5598
    2MOL    H65  407   6.900   0.519   4.125  0.4455 -0.8083 -0.3492
    2MOL    H66  408   6.806   0.782   4.127 -0.2954 -0.7137  2.1920
    2MOL    H67  409   6.821   0.690   3.983  1.3791  0.8356 -0.3701
    2MOL    H68  410   6.553   0.728   4.125  1.7511 -0.4571  1.5801
    2MOL    H69  411   6.600   0.706   3.947  0.9475 -3.2745 -1.2314
    2MOL    C70  412   6.596   0.255   4.216  0.3094 -0.3382 -0.0955
    2MOL    C71  413   6.587   0.332   4.354  0.6513 -0.0476 -0.8019
    2MOL    N72  414   6.478   0.267   4.435 -0.8320 -0.1562  0.2191
    2MOL    C73  415   6.365   0.347   4.461  0.2988 -1.0924  1.1659
    2MOL    C74  416   6.278   0.274   4.566 -0.4498  0.2808 -0.0372
    2MOL    C75  417   6.339   0.127   4.567  0.0472  0.0838  0.4059
    2MOL    C76  418   6.470   0.143   4.492 -0.1635 -0.5218  0.4611
    2MOL    O77  419   6.554   0.051   4.476 -0.2252  0.7529  0.2407
    2MOL    H78  420   6.630   0.152   4.228  1.5084 -0.0735 -1.0841
    2MOL    H79  421   6.503   0.266   4.161  0.9607  1.2375 -0.8964
    2MOL    H80  422   6.550   0.430   4.327 -0.0842 -0.3142 -0.7868
    2MOL    H81  423   6.387   0.449   4.493 -0.6547 -1.2087  2.2279
    2MOL    H82  424   6.314   0.353   4.365 -0.9140  2.6259  1.9500
    2MOL    H83  425   6.296   0.326   4.660  0.4670  1.0299 -0.6152
    2MOL    H84  426   6.171   0.264   4.550 -0.7783  1.1225  1.5299
    2MOL    H85  427   6.357   0.101   4.671  1.3264  0.3356  0.2620
    2MOL    H86  428   6.268   0.061   4.518 -1.0941  0.7279  1.1663
    2MOL    C87  429   6.721   0.337   4.439 -0.4257 -0.0535  0.9071
    2MOL    C88  430   6.711   0.403   4.579 -0.0956  0.4526 -0.2161
    2MOL    N89  431   6.825   0.349   4.653 -0.2148 -0.4287 -0.4301
    2MOL    C90  432   6.794   0.231   4.724 -0.0295 -0.6673 -0.0245
    2MOL    C91  433   6.933   0.162   4.755  0.0829 -0.3282  0.6129
    2MOL    C92  434   7.038   0.264   4.707  0.5227  0.2369 -0.2096
    2MOL    C93  435   6.956   0.373   4.632 -0.2370  0.3126 -0.1963
    2MOL    O94  436   7.015   0.456   4.559 -0.0440 -0.7249  0.6040
    2MOL    H95  437   6.802   0.385   4.385 -1.2982  2.1319  1.4690
    2MOL    H96  438   6.757   0.234   4.442  1.4641  0.5882  0.5253
    2MOL    H97  439   6.626   0.361   4.633  1.9433  1.6082  4.1286
    2MOL    H98  440   6.745   0.265   4.814 -1.1136 -0.0992 -0.8202
    2MOL    H99  441   6.732   0.165   4.662  1.6249 -1.9869 -0.3404
    2MOL   H100  442   6.929   0.132   4.860 -2.2629  2.8233  1.4963
    2MOL   H101  443   6.951   0.072   4.697  0.4589  1.0882 -1.5285
    2MOL   H102  444   7.074   0.322   4.792 -0.5996  0.4024  0.1664
    2MOL   H103  445   7.121   0.229   4.647 -0.2147 -1.3409 -0.3291
    2MOL   C104  446   6.700   0.547   4.572  0.3751 -0.2871  0.3235
    2MOL   C105  447   6.676   0.618   4.705  0.7354  0.2102 -0.1114
    2MOL   N106  448   6.708   0.759   4.693  0.4118 -0.7208 -0.0377
    2MOL   C107  449   6.827   0.802   4.763  0.8314  0.6789 -0.6903
    2MOL   C108  450   6.804   0.954   4.773  0.4408  0.0385  0.1981
    2MOL   C109  451   6.700   0.986   4.665 -0.1457  0.3732  0.5713
    2MOL   C110  452   6.636   0.854   4.630 -0.0278 -0.0987  0.3950
    2MOL   O111  453   6.539   0.846   4.551 -0.2437 -0.4926 -0.5556
    2MOL   H112  454   6.626   0.570   4.496 -1.3622 -1.0343  1.7361
    2MOL   H113  455   6.791   0.593   4.536  0.9479 -1.0507  0.7723
    2MOL   H114  456   6.740   0.572   4.780 -0.4681  0.5915  1.1698
    2MOL   H115  457   6.852   0.751   4.856  0.4360  0.2904 -0.7926
    2MOL   H116  458   6.906   0.786   4.690 -0.1448  0.3547 -1.6795
    2MOL   H117  459   6.760   0.968   4.871  2.3124 -2.1448  1.3807
    2MOL   H118  460   6.896   1.014   4.774  2.5005 -2.9862  0.1651
    2MOL   H119  461   6.749   1.021   4.574 -0.0404 -1.1165  0.0375
    2MOL   H120  462   6.623   1.057   4.695  0.2896  0.6944  0.9075
    2MOL   C121  463   6.527   0.595   4.743 -1.2904  0.6487  0.1753
    2MOL   C122  464   6.467   0.670   4.859 -0.0398 -0.5075 -0.3945
    2MOL   N123  465   6.317   0.646   4.869  0.8340  0.2083  0.2773
    2MOL   C124  466   6.229   0.740   4.795 -0.3895 -0.1252 -0.5020
    2MOL   C125  467   6.096   0.665   4.794 -0.3846  0.4073  0.1048
    2MOL   C126  468   6.111   0.533   4.879 -0.3067  0.1270 -0.1957
    2MOL   C127  469   6.260   0.529   4.915 -0.2255 -0.1201  0.3360
    2MOL   O128  470   6.314   0.436   4.968 -0.4369 -0.1626 -0.2633
    2MOL   H129  471   6.512   0.489   4.765  3.3824 -0.0345  0.4843
    2MOL   H130  472   6.469   0.598   4.650 -0.2395  0.7001 -0.4815
    2MOL   H131  473   6.487   0.775   4.837  1.5574 -1.0794 -1.7464
    2MOL   H132  474   6.276   0.741   4.697  1.9393  0.3322  0.5839
    2MOL   H133  475   6.223   0.841   4.837 -1.0799 -0.9371  1.4041
    2MOL   H134  476   6.019   0.728   4.838 -2.2125 -2.0923  0.6272
    2MOL   H135  477   6.068   0.651   4.689  0.0623 -0.6716  0.1175
    2MOL   H136  478   6.061   0.531   4.976  1.5132 -1.0599  0.7421
    2MOL   H137  479   6.096   0.445   4.817  2.0221  0.6826 -1.6343
    2MOL   C138  480   6.543   0.649   4.987 -0.2912  0.6341 -0.6123
    2MOL   C139  481   6.507   0.737   5.104  0.4547  0.3301 -0.1915
    2MOL   N140  482   6.550   0.677   5.233  0.4281  0.1265  0.4751
    2MOL   C141  483   6.461   0.585   5.308 -0.2286  0.2927 -0.3557
    2MOL   C142  484   6.548   0.529   5.421  0.2040  0.1739  0.0614
    2MOL   C143  485   6.680   0.602   5.414 -0.7449  0.0637 -0.5204
    2MOL   C144  486   6.677   0.671   5.279 -0.3314 -0.5512  0.3620
    2MOL   O145  487   6.778   0.718   5.230  0.2517  0.2093  0.1527
    2MOL   H146  488   6.648   0.669   4.967 -0.4816  1.5716 -0.6957
    2MOL   H147  489   6.535   0.545   5.018  2.6896  0.6970  0.4420
    2MOL   H148  490   6.398   0.742   5.103  0.3792 -1.3551 -1.0543
    2MOL   H149  491   6.375   0.634   5.353  0.0185 -0.7030  1.2662
    2MOL   H150  492   6.423   0.508   5.241  1.1763  0.2350 -1.1064
    2MOL   H151  493   6.500   0.541   5.518  0.4025  0.0332  0.1771
    2MOL   H152  494   6.571   0.425   5.401 -2.9758 -0.5756  0.0954
    2MOL   H153  495   6.758   0.526   5.418 -0.3562  0.5457  0.9341
    2MOL   H154  496   6.698   0.665   5.500  0.9179 -1.5805  0.3839
    2MOL   C155  497   6.554   0.888   5.088  0.4659 -0.6842 -0.0599
    2MOL   C156  498   6.476   0.981   5.180 -0.6597 -0.3852 -0.3140
    2MOL   N157  499   6.575   1.083   5.223 -0.0405 -0.1661  0.9851
    2MOL   C158  500   6.597   1.097   5.364  0.1605  0.1400  0.2724
    2MOL   C159  501   6.703   1.206   5.379 -0.8152  0.2353 -0.7907
    2MOL   C160  502   6.709   1.266   5.240 -0.7467 -0.7052 -0.0598
    2MOL   C161  503   6.644   1.169   5.149 -0.2764 -0.2383  0.9442
    2MOL   O162  504   6.648   1.183   5.025 -0.0163 -0.6607 -0.6772
    2MOL   H163  505   6.555   0.920   4.984 -3.4469 -1.9782 -0.5856
    2MOL   H164  506   6.655   0.903   5.125  0.1789  1.3843 -0.0541
    2MOL   H165  507   6.458   0.923   5.270  1.4061 -1.2687 -0.4283
    2MOL   H166  508   6.505   1.122   5.416 -0.0949  1.9890 -1.0232
    2MOL   H167  509   6.640   1.003   5.399 -0.5367 -0.5612 -0.7225
    2MOL   H168  510   6.670   1.269   5.462 -2.8644 -1.6998 -0.1095
    2MOL   H169  511   6.798   1.161   5.409  0.1482  1.6500 -1.6484
    2MOL   H170  512   6.654   1.360   5.243  0.9669  0.3214 -0.1618
    2MOL   H171  513   6.811   1.291   5.212 -0.9656  0.3952  0.1396
    2MOL   C172  514   6.352   1.047   5.121  0.4648 -0.1603  0.1622
    2MOL   C173  515   6.244   1.091   5.230  0.3329 -0.2639  0.3134
    2MOL   N174  516   6.172   1.215   5.189 -0.1503 -0.2481  0.2326
    2MOL   C175  517   6.191   1.331   5.277  0.0435  0.1871 -0.6468
    2MOL   C176  518   6.078   1.430   5.240  0.3354  0.5560 -0.7478
    2MOL   C177  519   6.030   1.376   5.103 -1.4300  0.0532  0.1172
    2MOL   C178  520   6.076   1.235   5.099 -0.1339 -0.0080  0.3151
    2MOL   O179  521   6.030   1.152   5.018 -0.0149  0.1772 -0.6784
    2MOL   H180  522   6.304   0.979   5.051 -0.0544 -1.3786  1.6827
    2MOL   H181  523   6.375   1.133   5.058 -0.8396  0.4759  0.5340
    2MOL   H182  524   6.295   1.112   5.324  0.0520 -0.6101  0.5450
    2MOL   H183  525   6.187   1.303   5.383  0.6420 -0.6156 -0.8361
    2MOL   H184  526   6.292   1.368   5.259  0.8282 -3.0358 -3.1587
    2MOL   H185  527   6.117   1.532   5.235  2.1072 -0.1751 -3.1467
    2MOL   H186  528   6.003   1.429   5.319  0.0689 -0.8760 -1.0099
    2MOL   H187  529   5.922   1.387   5.099 -1.4992 -0.3315  0.9454
    2MOL   H188  530   6.081   1.421   5.018 -0.5362 -1.0956  0.0304
    2MOL   C189  531   6.134   0.983   5.257  0.4967  0.1627  0.5592
    2MOL   C190  532   6.171   0.864   5.351  0.1069  0.0300 -0.2834
    2MOL   N191  533   6.206   0.913   5.487  0.1228 -0.2401  0.7396
    2MOL   C192  534   6.322   0.851   5.554  0.2937 -0.2336 -0.0071
    2MOL   C193  535   6.360   0.944   5.667  0.0690  0.0984  0.5298
    2MOL   C194  536   6.254   1.057   5.673  0.0757 -0.5796  0.2311
    2MOL   C195  537   6.158   1.019   5.557 -0.6059 -0.3331 -0.0861
    2MOL   O196  538   6.059   1.091   5.528 -0.1093  0.5893  0.4340
    2MOL   H197  539   6.113   0.947   5.157 -1.5653 -1.3658  1.4957
    2MOL   H198  540   6.044   1.025   5.303 -0.3555  1.0856 -1.8684
    2MOL   H199  541   6.266   0.828   5.310 -1.2023  0.1254 -3.5201
    2MOL   H200  542   6.300   0.748   5.585  1.8101 -0.2367  1.1089
    2MOL   H201  543   6.398   0.838   5.477  0.3310 -0.9425  0.1435
    2MOL   H202  544   6.356   0.882   5.756  1.5050 -1.3396 -0.3899
    2MOL   H203  545   6.462   0.981   5.659  0.0766  0.1620  0.9334
    2MOL   H204  546   6.187   1.032   5.755  0.1370 -0.8546  0.1991
    2MOL   H205  547   6.280   1.161   5.692  0.9862 -0.2627 -2.4467
    2MOL   C206  548   6.071   0.747   5.355  0.4481  0.2613  0.3293
    2MOL   C207  549   5.920   0.784   5.394 -0.1957  0.2724  0.3993
    2MOL   N208  550   5.845   0.844   5.283  0.2873  0.1582  0.8245
    2MOL   C209  551   5.760   0.955   5.311  0.1673  0.0904 -0.1391
    2MOL   C210  552   5.684   0.990   5.183 -0.1194 -0.7265 -0.2315
    2MOL   C211  553   5.737   0.890   5.078 -0.4499  0.3440  1.0861
    2MOL   C212  554   5.825   0.796   5.160 -0.0343  0.0644  0.2017
    2MOL   O213  555   5.874   0.691   5.110  0.1339  0.0245  0.4396
    2MOL   H214  556   6.114   0.675   5.425 -0.4567 -1.1753 -0.5515
    2MOL   H215  557   6.067   0.693   5.260 -4.0548  3.0166 -1.2620
    2MOL   H216  558   5.931   0.862   5.470  1.3761  0.3437  0.1210
    2MOL   H217  559   5.689   0.936   5.392 -0.9866  1.9285 -0.6950
    2MOL   H218  560   5.827   1.034   5.343 -0.2256  0.1134  0.6352
    2MOL   H219  561   5.576   0.977   5.191 -0.3146  0.5961 -0.5189
    2MOL   H220  562   5.708   1.092   5.152 -1.2709 -0.7981 -1.3858
    2MOL   H221  563   5.660   0.835   5.024 -0.9263 -0.1859  2.2822
    2MOL   H222  564   5.799   0.940   5.004  1.4326 -2.1918  0.8800
    2MOL   C223  565   5.837   0.665   5.443  0.7875 -0.0696 -0.2668
    2MOL   C224  566   5.876   0.631   5.591 -0.2123 -0.2075 -0.2728
    2MOL   N225  567   5.848   0.746   5.690  0.0386  0.1133  0.4319
    2MOL   C226  568   5.952   0.803   5.776  0.5428 -0.1788  0.2635
    2MOL   C227  569   5.886   0.912   5.870  0.1548  0.0929 -0.1771
    2MOL   C228  570   5.746   0.920   5.808  0.6559 -0.5094  0.5353
    2MOL   C229  571   5.728   0.801   5.711  0.0135 -0.6432  0.3145
    2MOL   O230  572   5.619   0.773   5.660  0.4424 -0.1117  0.2178
    2MOL   H231  573   5.849   0.578   5.378  0.1051  0.8970 -1.7316
    2MOL   H232  574   5.730   0.680   5.453  1.1166  1.4102  1.1607
    2MOL   H233  575   5.983   0.622   5.577 -0.3072 -4.6889  1.1820
    2MOL   H234  576   6.018   0.727   5.817  0.6345  0.4671  1.3266
    2MOL   H235  577   6.015   0.860   5.707  0.7674  0.3335  0.8881
    2MOL   H236  578   5.882   0.871   5.971  1.1025 -1.6257 -0.8053
    2MOL   H237  579   5.943   1.005   5.870  0.8252 -0.2535  2.9439
    2MOL   H238  580   5.673   0.910   5.888  0.6366 -1.6432  0.3759
    2MOL   H239  581   5.736   1.021   5.767 -0.8440 -0.5271  0.8255
    2MOL   C240  582   5.818   0.502   5.644 -0.1283  0.3051 -0.1065
    2MOL   C241  583   5.868   0.366   5.583  0.7368 -0.8494  0.8713
    2MOL   N242  584   6.014   0.360   5.586  0.4549 -0.2495  0.2583
    2MOL   C243  585   6.087   0.359   5.711 -0.1473 -0.0505  0.7400
    2MOL   C244  586   6.233   0.401   5.679 -0.0031  0.4335  0.0584
    2MOL   C245  587   6.244   0.375   5.524  0.3032 -0.2707 -0.0181
    2MOL   C246  588   6.100   0.379   5.484  0.0886  0.1894 -0.1718
    2MOL   O247  589   6.067   0.389   5.370 -0.3516  0.1976 -0.5559
    2MOL   H248  590   5.711   0.513   5.627 -0.0189 -0.1037 -1.1389
    2MOL   H249  591   5.809   0.500   5.752 -1.6573 -2.7173 -0.2293
    2MOL   H250  592   5.831   0.363   5.481  2.8094 -2.6057  0.1314
    2MOL   H251  593   6.038   0.404   5.797 -0.5815  0.0332  0.4488
    2MOL   H252  594   6.092   0.251   5.722 -1.3583 -0.4474 -2.3280
    2MOL   H253  595   6.232   0.510   5.688 -1.7111  0.4975 -0.6408
    2MOL   H254  596   6.309   0.353   5.741 -0.1191  0.8269  0.5076
    2MOL   H255  597   6.301   0.452   5.471  0.6382 -0.0076  0.7079
    2MOL   H256  598   6.287   0.275   5.512  3.1285  0.8977 -0.1249
    2MOL   C257  599   5.811   0.228   5.639 -0.1909 -0.1045 -0.1429
    2MOL   C258  600   5.823   0.097   5.548  0.0234 -0.1617 -0.4249
    2MOL   N259  601   5.801   7.874   5.614  0.0331  0.8716 -0.0447
    2MOL   C260  602   5.739   7.869   5.743 -0.2899  0.0993 -0.4384
    2MOL   C261  603   5.713   7.721   5.773  0.4028  0.4684  0.6487
    2MOL   C262  604   5.817   7.651   5.687 -0.0354 -0.4672 -0.0403
    2MOL   C263  605   5.870   7.756   5.588  0.2527  0.2219  0.3801
    2MOL   O264  606   5.948   7.730   5.497 -0.5423  0.4858  0.7651
    2MOL   H265  607   5.706   0.249   5.663  0.0443 -0.7476  1.4883
    2MOL   H266  608   5.859   0.212   5.736  1.9934  1.0088 -1.0107
    2MOL   H267  609   5.930   0.105   5.524 -0.1879  2.9492 -0.6001
    2MOL   H268  610   5.801   0.005   5.823 -0.5239 -2.5075  1.1746
    2MOL   H269  611   5.648   0.023   5.737  0.0304  1.0635  3.0737
    2MOL   H270  612   5.708   7.715   5.882 -2.1014  3.3074  0.7670
    2MOL   H271  613   5.614   7.698   5.733  0.8526 -0.4185  0.0215
    2MOL   H272  614   5.906   7.620   5.741 -0.1486  0.6250  0.8091
    2MOL   H273  615   5.781   7.562   5.635 -0.3520  0.4230 -1.3738
    2MOL   C274  616   5.766   0.102   5.401  0.4200 -0.6021  0.2104
    2MOL   C275  617   5.615   0.048   5.391  0.0264 -0.1139  0.6675
    2MOL   N276  618   5.521   0.116   5.477  0.2903  0.0380 -0.5531
    2MOL   C277  619   5.423   0.042   5.548 -0.5816 -0.6379 -0.5776
    2MOL   C278  620   5.331   0.141   5.627  0.4356 -0.3419  0.3860
    2MOL   C279  621   5.351   0.271   5.547 -0.2870 -0.6894 -0.5234
    2MOL   C280  622   5.482   0.246   5.475  1.1056  0.0969 -0.4656
    2MOL   O281  623   5.546   0.331   5.423  0.5637 -0.4624 -0.0346
    2MOL   H282  624   5.833   0.035   5.348  1.9540  2.0258 -1.3152
    2MOL   H283  625   5.785   0.202   5.360 -0.9186 -0.2457  0.4096
    2MOL   H284  626   5.618   7.852   5.431  2.0114 -1.0390 -1.7216
    2MOL   H285  627   5.355   0.005   5.472 -2.4845  1.5179  0.0320
    2MOL   H286  628   5.470   7.877   5.617 -0.2610  0.6286  0.5288
    2MOL   H287  629   5.224   0.124   5.637  0.0423  0.9791 -1.3373
    2MOL   H288  630   5.365   0.145   5.730 -1.9284  1.3567  1.1402
    2MOL   H289  631   5.271   0.295   5.477 -0.6836  1.9907  0.8087
    2MOL   H290  632   5.353   0.363   5.606 -1.4583 -1.2864  0.4644
    2MOL   C291  633   5.568   0.053   5.245  1.0303 -0.3342  0.1495
    2MOL   C292  634   5.659   7.875   5.152 -0.2288  0.1713 -0.5228
    2MOL   N293  635   5.701   7.738   5.195  0.4624  0.2110  0.1864
    2MOL   C294  636   5.834   7.692   5.175 -0.5253 -0.3871  0.0241
    2MOL   C295  637   5.830   7.537   5.171  0.2051  0.1766  0.0554
    2MOL   C296  638   5.704   7.512   5.252  0.2833 -0.5429  0.0768
    2MOL   C297  639   5.627   7.640   5.242  0.2228  0.6542 -0.4215
    2MOL   O298  640   5.510   7.645   5.287 -0.5843 -0.0622 -0.4998
    2MOL   H299  641   5.555   0.155   5.211 -0.7551 -0.2291  1.1033
    2MOL   H300  642   5.471   0.004   5.239 -0.4366  2.7903 -3.0065
    2MOL   H301  643   5.745   0.036   5.145  0.2003 -0.1832  1.2376
    2MOL   H302  644   5.869   7.734   5.081 -1.5639 -0.2112 -0.2894
    2MOL   H303  645   5.911   7.732   5.241 -0.5764 -1.0806  0.5006
    2MOL   H304  646   5.816   7.507   5.067  1.3089  1.0767 -0.3589
    2MOL   H305  647   5.919   7.491   5.215 -1.0296 -0.2341  2.1929
    2MOL   H306  648   5.645   7.436   5.201  0.5546 -0.3102 -0.5920
    2MOL   H307  649   5.720   7.486   5.356 -0.3427  1.2698  0.6474
    2MOL   C308  650   5.603   7.865   5.001 -0.0793  0.2478 -0.7348
    2MOL   C309  651   5.551   0.085   4.926 -0.1620 -0.5597  0.1427
    2MOL   N310  652   5.643   0.199   4.937 -1.1638  0.1902  0.6490
    2MOL   C311  653   5.591   0.332   4.957 -0.1235  0.4706 -0.3698
    2MOL   C312  654   5.713   0.404   5.014 -0.4904  0.0684 -0.4270
    2MOL   C313  655   5.832   0.325   4.952  0.0307 -0.4575  0.4114
    2MOL   C314  656   5.779   0.193   4.936  0.6084 -0.1343 -0.4618
    2MOL   O315  657   5.851   0.091   4.933 -0.2266  0.4528  0.3463
    2MOL   H316  658   5.510   7.809   5.008 -0.5393  1.3145  2.2940
    2MOL   H317  659   5.678   7.816   4.939 -2.6629 -3.2645 -1.2160
    2MOL   H318  660   5.455   0.109   4.971 -1.5057  0.0926 -2.9314
    2MOL   H319  661   5.563   0.385   4.866  0.3493  0.0007 -0.7939
    2MOL   H320  662   5.500   0.334   5.018 -0.5215 -0.1621 -0.9407
    2MOL   H321  663   5.728   0.508   4.984  0.7802  0.1078  0.3070
    2MOL   H322  664   5.706   0.398   5.122 -0.7743 -1.4272 -0.5258
    2MOL   H323  665   5.862   0.359   4.852 -0.4544  2.8113  1.3082
    2MOL   H324  666   5.920   0.332   5.016  0.4201 -0.7918 -0.0741
    2MOL   C325  667   5.528   0.060   4.771 -0.9785 -0.8046 -0.1806
    2MOL   C326  668   5.405   7.874   4.751  0.3894  0.1588 -0.2860
    2MOL   N327  669   5.426   7.732   4.774 -0.2825 -0.2777 -0.3183
    2MOL   C328  670   5.324   7.653   4.848 -0.9818 -0.3713 -0.2984
    2MOL   C329  671   5.387   7.518   4.880 -0.3449 -0.0932  0.3399
    2MOL   C330  672   5.494   7.511   4.777 -0.0025 -0.1002  0.8295
    2MOL   C331  673   5.527   7.651   4.743  0.7227  0.5807  0.1624
    2MOL   O332  674   5.637   7.688   4.696 -0.2755 -0.3056  0.7582
    2MOL   H333  675   5.615   0.022   4.717 -0.4895  0.2119 -0.1266
    2MOL   H334  676   5.505   0.155   4.724 -1.4392  0.3826  2.3455
    2MOL   H335  677   5.375   7.876   4.646  0.5049 -0.2716 -0.3279
    2MOL   H336  678   5.300   7.706   4.940  0.1213 -1.6201  0.7346
    2MOL   H337  679   5.237   7.655   4.783 -0.6354  1.2859 -0.7493
    2MOL   H338  680   5.432   7.525   4.979  1.7268  1.4848 -0.6805
    2MOL   H339  681   5.314   7.437   4.872  0.1012 -0.3835 -0.9878
    2MOL   H340  682   5.584   7.472   4.824 -0.4590 -1.7831  0.3651
    2MOL   H341  683   5.457   7.453   4.692  1.2122 -0.7925  0.7511
    2MOL   H342  684   5.325   0.009   4.813 -1.4616 -1.1174 -1.7341
    3MOL     C1  685   2.492   7.782   0.255 -0.1653  0.4587  0.5430
    3MOL     C2  686   2.517   7.635   0.310 -0.6891 -0.7718  0.1470
    3MOL     N3  687   2.587   7.551   0.213  0.0123  0.0189 -0.2621
    3MOL     C4  688   2.503   7.493   0.107 -0.2886 -0.6002 -0.8201
    3MOL     C5  689   2.600   7.453   7.902 -0.3846  0.3509  0.5540
    3MOL     C6  690   2.735   7.466   0.061  0.5806  1.0601 -0.2433
    3MOL     C7  691   2.715   7.547   0.185  0.5108  0.0459  1.1653
    3MOL     O8  692   2.805   7.595   0.247  0.3636 -0.1440 -0.3065
    3MOL     H9  693   2.418   7.838   0.312 -0.8084 -0.4297  0.6023
    3MOL    H10  694   2.585   7.837   0.244  1.0597 -1.5375  0.6649
    3MOL    H11  695   2.420   7.586   0.313 -0.7221 -0.8836 -1.7544
    3MOL    H12  696   2.472   7.400   0.156  1.8907 -0.3885  1.0493
    3MOL    H13  697   2.413   7.546   0.075 -1.2618 -1.6936  0.0193
    3MOL    H14  698   2.572   7.373   7.834  0.4758  1.3525 -0.9871
    3MOL    H15  699   2.582   7.532   7.829 -1.7715 -0.4719 -0.0100
    3MOL    H16  700   2.774   7.367   0.085 -0.9226  0.8061  1.2669
    3MOL    H17  701   2.814   7.514   0.004 -1.4042  2.3121 -2.0507
    3MOL    H18  702   2.450   7.786   0.154 -2.0006  0.0398  1.2670
    3MOL    C19  703   2.590   7.640   0.448  0.6525 -0.7490  0.1409
    3MOL    C20  704   2.502   7.690   0.564 -0.0652  0.3088 -0.0593
    3MOL    N21  705   2.405   7.588   0.607  0.1903 -0.0168 -0.2103
    3MOL    C22  706   2.266   7.613   0.563  0.1052  0.1266 -0.0813
    3MOL    C23  707   2.183   7.495   0.625 -0.4484  0.0655  0.7044
    3MOL    C24  708   2.290   7.405   0.693 -0.0380  0.4166  0.6843
    3MOL    C25  709   2.422   7.476   0.671 -0.7976 -0.9838 -0.0962
    3MOL    O26  710   2.523   7.436   0.728  0.3625  0.0451 -0.0325
    3MOL    H27  711   2.685   7.693   0.447 -0.2289  0.9197  1.6924
    3MOL    H28  712   2.615   7.536   0.468  0.6922 -0.8207 -0.2859
    3MOL    H29  713   2.448   7.777   0.525  0.6848  0.3550 -1.0058
    3MOL    H30  714   2.232   7.712   0.595 -2.3230 -1.0427  1.1507
    3MOL    H31  715   2.257   7.623   0.455  1.7137 -1.0428 -0.3251
    3MOL    H32  716   2.104   7.522   0.695  0.0349  0.3631  1.1360
    3MOL    H33  717   2.140   7.439   0.541 -0.9732 -1.2244  1.8207
    3MOL    H34  718   2.266   7.395   0.799 -0.0595 -1.9576  0.4698
    3MOL    H35  719   2.302   7.307   0.647  1.2830  0.7094  0.3724
    3MOL    C36  720   2.593   7.754   0.682  0.0114  0.0839  0.6231
    3MOL    C37  721   2.656   7.890   0.644 -0.6932  0.1431  0.3623
    3MOL    N38  722   2.548   0.081   0.615 -0.0965  0.5774  0.3583
    3MOL    C39  723   2.572   0.170   0.500  0.1619  0.1382 -0.0560
    3MOL    C40  724   2.448   0.260   0.495 -0.4541  0.2498 -0.4962
    3MOL    C41  725   2.354   0.205   0.597 -0.5569 -0.1266 -0.3886
    3MOL    C42  726   2.434   0.108   0.681 -0.0446  0.6724 -0.1363
    3MOL    O43  727   2.389   0.054   0.782 -0.3001 -0.0895 -0.3033
    3MOL    H44  728   2.669   7.681   0.707  1.2738  0.6543 -1.4150
    3MOL    H45  729   2.532   7.762   0.772 -1.6107  0.2811 -0.4614
    3MOL    H46  730   2.716   7.876   0.554 -0.9538 -0.3070  0.2525
    3MOL    H47  731   2.669   0.221   0.497  0.0722  0.3368  0.3950
    3MOL    H48  732   2.579   0.104   0.414  0.5163 -1.5993  1.2722
    3MOL    H49  733   2.474   0.360   0.528  1.9652 -0.9960  1.5971
    3MOL    H50  734   2.399   0.249   0.398 -0.9152 -1.2601 -0.1121
    3MOL    H51  735   2.312   0.287   0.656 -1.1867 -2.5351  2.6409
    3MOL    H52  736   2.282   0.144   0.542 -0.0952 -0.2621 -0.8445
    3MOL    C53  737   2.754   0.036   0.757 -0.1184 -0.2749  0.2264
    3MOL    C54  738   2.903   7.885   0.750  0.4134 -0.4197 -0.2771
    3MOL    N55  739   2.953   0.007   0.620 -0.0341  0.2173  0.0312
    3MOL    C56  740   2.987   7.803   0.527  0.3059 -0.3043  0.5584
    3MOL    C57  741   3.042   7.866   0.395  0.6075 -0.0445  0.1945
    3MOL    C58  742   3.026   0.112   0.419  0.5078  0.5051  0.1086
    3MOL    C59  743   2.977   0.126   0.562  0.1421  0.0662  0.2975
    3MOL    O60  744   2.965   0.237   0.612  0.3785  0.2906 -0.7584
    3MOL    H61  745   2.709   0.014   0.854 -0.1795 -0.5416  0.1365
    3MOL    H62  746   2.760   0.144   0.744  0.5350 -0.0250  2.4369
    3MOL    H63  747   2.900   7.777   0.764  1.2754 -0.5186 -0.8764
    3MOL    H64  748   3.068   7.744   0.572 -1.2582 -3.1000 -0.1830
    3MOL    H65  749   2.908   7.731   0.505  1.3020 -0.5234 -2.5458
    3MOL    H66  750   3.149   7.847   0.382  0.9550  2.2832 -0.6420
    3MOL    H67  751   2.993   7.821   0.309  0.1436  3.1544 -1.3074
    3MOL    H68  752   3.122   0.163   0.423  1.2043 -0.9262  2.6260
    3MOL    H69  753   2.954   0.152   0.349 -0.4828 -3.5285 -1.3368
    3MOL    C70  754   2.998   0.028   0.864  0.2397  0.0713  0.5435
    3MOL    C71  755   2.961   7.896   1.010  0.6248 -0.1208  0.4731
    3MOL    N72  756   2.915   7.759   1.029  0.5513  0.2550 -0.4980
    3MOL    C73  757   2.783   7.732   1.078  1.2683 -0.2808 -0.5921
    3MOL    C74  758   2.757   7.578   1.070  0.5687 -0.1851 -0.1136
    3MOL    C75  759   2.896   7.526   1.040 -0.3239  0.4083 -0.1464
    3MOL    C76  760   2.981   7.648   1.004 -0.1648  0.0561  0.1285
    3MOL    O77  761   3.100   7.624   0.971  0.3218 -0.3358  0.3894
    3MOL    H78  762   3.003   0.137   0.858  2.9890 -0.0724 -0.6462
    3MOL    H79  763   3.101   7.906   0.842  0.1476 -0.0800  0.3084
    3MOL    H80  764   2.877   0.054   1.037  1.4387  0.6439  1.2264
    3MOL    H81  765   2.783   7.766   1.182 -0.8095 -0.6215 -0.4428
    3MOL    H82  766   2.714   7.800   1.028  0.7122 -0.1498  0.3330
    3MOL    H83  767   2.698   7.557   1.160 -2.2304 -0.3054 -1.9143
    3MOL    H84  768   2.689   7.561   0.986 -0.6349  3.2099  0.0892
    3MOL    H85  769   2.944   7.481   1.127  0.1211 -0.9807 -1.1022
    3MOL    H86  770   2.897   7.443   0.970  2.4188  0.4376 -0.2038
    3MOL    C87  771   3.068   0.027   1.121 -0.5056  0.3182  0.3676
    3MOL    C88  772   3.096   0.169   1.158  0.1872 -0.1737 -0.4259
    3MOL    N89  773   2.971   0.242   1.187  0.0864  0.3031 -0.5775
    3MOL    C90  774   2.931   0.349   1.099  0.0289 -0.4926 -0.4823
    3MOL    C91  775   2.823   0.427   1.174  0.0073  0.0163 -0.1641
    3MOL    C92  776   2.769   0.328   1.285 -0.7384  0.4981  0.0036
    3MOL    C93  777   2.881   0.224   1.292 -0.7054 -0.8426  0.1074
    3MOL    O94  778   2.876   0.134   1.380 -0.1537  0.0964  0.3373
    3MOL    H95  779   3.162   7.884   1.093 -1.5521 -2.7077  1.9138
    3MOL    H96  780   3.047   7.882   1.214 -0.9956  1.0298  0.6475
    3MOL    H97  781   3.136   0.209   1.065 -0.5827  0.9430 -0.2872
    3MOL    H98  782   3.021   0.409   1.083 -0.2853 -0.6646 -3.2398
    3MOL    H99  783   2.888   0.294   1.015  3.0484 -1.7236 -1.2966
    3MOL   H100  784   2.872   0.514   1.217  0.7983 -1.3500  1.7482
    3MOL   H101  785   2.749   0.476   1.111 -0.9173 -0.3997  0.6041
    3MOL   H102  786   2.759   0.358   1.389  3.0962 -0.9966  0.8903
    3MOL   H103  787   2.681   0.275   1.248  0.1245 -1.0504  0.1154
    3MOL   C104  788   3.192   0.189   1.276 -0.1281  0.2912 -0.0873
    3MOL   C105  789   3.327   0.114   1.252  0.1087  0.0503 -0.0660
    3MOL   N106  790   3.399   0.156   1.130  0.2307 -0.1623 -0.2532
    3MOL   C107  791   3.415   0.067   1.017 -0.5318  0.4669  0.6408
    3MOL   C108  792   3.502   0.141   0.917  0.3638 -0.3407  0.0651
    3MOL   C109  793   3.548   0.265   0.991 -0.0656  0.5275  0.3660
    3MOL   C110  794   3.460   0.271   1.115 -0.8408 -0.1587  0.4595
    3MOL   O111  795   3.462   0.360   1.199 -0.7965 -0.1997  0.3962
    3MOL   H112  796   3.137   0.149   1.361 -0.7009 -1.6595 -1.3210
    3MOL   H113  797   3.209   0.295   1.291 -1.9773  0.7709 -1.2514
    3MOL   H114  798   3.317   0.006   1.256 -0.5311 -0.0763 -3.1372
    3MOL   H115  799   3.459   7.881   1.054 -0.9804  0.4936  1.2542
    3MOL   H116  800   3.326   0.019   0.977 -1.1825  1.7999  0.4407
    3MOL   H117  801   3.582   0.072   0.891  0.3617  1.0103 -4.0369
    3MOL   H118  802   3.450   0.174   0.826  1.4889  0.4306 -0.3137
    3MOL   H119  803   3.536   0.348   0.921  0.8938 -0.6777 -1.2823
    3MOL   H120  804   3.654   0.259   1.015 -0.2700 -1.4921  0.7946
    3MOL   C121  805   3.404   0.139   1.384 -0.0468 -0.5429 -0.7101
    3MOL   C122  806   3.555   0.090   1.383 -0.2751 -0.2761  0.0384
    3MOL   N123  807   3.637   0.149   1.489  0.5558  0.1459 -0.3973
    3MOL   C124  808   3.594   0.123   1.625 -0.6129  0.2377 -0.7928
    3MOL   C125  809   3.685   0.207   1.711  0.0521 -0.0722  0.3267
    3MOL   C126  810   3.783   0.278   1.619  0.5346  0.2408  0.7747
    3MOL   C127  811   3.749   0.230   1.485  0.6471 -0.0954  0.3909
    3MOL   O128  812   3.831   0.241   1.391  0.1167  0.0981 -0.3730
    3MOL   H129  813   3.350   0.095   1.468 -0.7949 -1.3535 -1.6029
    3MOL   H130  814   3.396   0.244   1.411 -0.9353 -0.4925 -1.1297
    3MOL   H131  815   3.601   0.143   1.299 -1.0160 -2.4040 -1.7416
    3MOL   H132  816   3.609   0.017   1.643  0.6162  0.5261 -0.0695
    3MOL   H133  817   3.491   0.154   1.645 -1.3039 -1.8921 -0.9373
    3MOL   H134  818   3.622   0.272   1.773  1.4186  0.6461  0.9823
    3MOL   H135  819   3.745   0.143   1.776  0.3792  1.6889  1.8212
    3MOL   H136  820   3.783   0.386   1.631  0.9676  0.5217 -1.4677
    3MOL   H137  821   3.887   0.248   1.630  0.4179  0.0129  1.3042
    3MOL   C138  822   3.581   7.844   1.367 -0.1053  0.1107 -0.0512
    3MOL   C139  823   3.723   7.795   1.328 -0.4254 -0.7477 -0.0201
    3MOL   N140  824   3.715   7.648   1.334  0.1779  0.6256  0.1091
    3MOL   C141  825   3.790   7.572   1.434 -0.3496  0.5034  0.4549
    3MOL   C142  826   3.766   7.426   1.406  0.0137  0.2356 -0.0502
    3MOL   C143  827   3.691   7.418   1.272 -0.5912 -0.7957  0.7047
    3MOL   C144  828   3.656   7.560   1.249 -0.3386 -0.5592  0.1028
    3MOL   O145  829   3.587   7.597   1.154  0.3893  0.0276 -0.3093
    3MOL   H146  830   3.518   7.795   1.292 -2.4946  2.2432  0.5067
    3MOL   H147  831   3.564   7.803   1.467 -0.3856  0.0908 -0.1068
    3MOL   H148  832   3.784   7.835   1.408 -0.0632 -2.1488  0.4223
    3MOL   H149  833   3.899   7.579   1.429 -0.1248 -2.3845  0.0657
    3MOL   H150  834   3.771   7.603   1.536 -0.1113  2.3736 -0.0572
    3MOL   H151  835   3.848   7.356   1.393  0.3247  0.8338 -1.5349
    3MOL   H152  836   3.705   7.381   1.484 -0.6021  1.1689  0.0195
    3MOL   H153  837   3.609   7.346   1.283 -2.4197  1.5493  3.3533
    3MOL   H154  838   3.767   7.384   1.202  0.9536 -0.4508  2.1761
    3MOL   C155  839   3.768   7.838   1.187 -1.3379 -0.4286 -0.8357
    3MOL   C156  840   3.911   7.791   1.141 -0.1289 -1.1072  0.3290
    3MOL   N157  841   3.909   7.657   1.079  0.7300 -0.5069 -0.1734
    3MOL   C158  842   4.012   7.555   1.116  0.6905  0.6386 -0.2425
    3MOL   C159  843   4.008   7.448   1.006 -0.0704  0.2182  0.1529
    3MOL   C160  844   3.893   7.480   0.913  0.1853 -0.0021 -0.6353
    3MOL   C161  845   3.850   7.620   0.964 -0.4022  0.4268 -0.6327
    3MOL   O162  846   3.765   7.686   0.904  0.0211 -0.0209  0.3778
    3MOL   H163  847   3.759   0.041   1.180  1.5642  0.0839  2.0758
    3MOL   H164  848   3.692   7.805   1.116 -0.9952 -3.4564  0.1160
    3MOL   H165  849   3.983   7.787   1.223 -0.4478 -0.4576  0.6494
    3MOL   H166  850   4.111   7.600   1.123  0.5755  0.8569 -0.0342
    3MOL   H167  851   3.995   7.520   1.218  0.8129  0.1090 -0.4036
    3MOL   H168  852   4.102   7.449   0.951  0.3460  0.1101  0.8514
    3MOL   H169  853   4.002   7.346   1.044  0.2860 -0.3574 -1.3028
    3MOL   H170  854   3.912   7.499   0.807 -1.2072 -1.4302 -1.1593
    3MOL   H171  855   3.814   7.405   0.913 -0.5517  0.7586  1.1299
    3MOL   C172  856   3.976   7.901   1.043  0.3355  0.4844  0.0132
    3MOL   C173  857   4.035   0.126   1.104  0.2272  0.3742 -0.0208
    3MOL   N174  858   4.143   0.096   1.198  0.3460  0.2333  0.4346
    3MOL   C175  859   4.133   0.110   1.339  0.2141  0.0316 -0.2019
    3MOL   C176  860   4.271   0.097   1.385  0.0330 -0.4250  0.5256
    3MOL   C177  861   4.366   0.059   1.271  0.0609  0.4801  0.0576
    3MOL   C178  862   4.270   0.066   1.153 -0.3429  1.0178 -0.1417
    3MOL   O179  863   4.307   0.043   1.039  0.0653 -0.1533  0.0181
    3MOL   H180  864   3.889   0.017   0.981  1.0932  0.3022 -1.1497
    3MOL   H181  865   4.049   7.852   0.979 -0.1324 -0.9980  0.6071
    3MOL   H182  866   3.949   0.152   1.166  0.6915  1.8919  0.0060
    3MOL   H183  867   4.093   0.207   1.370 -0.5687 -0.7262  1.2302
    3MOL   H184  868   4.058   0.041   1.378  1.1611  0.2213  2.0090
    3MOL   H185  869   4.280   0.027   1.468  0.9289 -1.1404 -0.1706
    3MOL   H186  870   4.290   0.199   1.420 -0.1632  1.1231 -3.5812
    3MOL   H187  871   4.444   0.133   1.254  0.8297  0.0975  1.8583
    3MOL   H188  872   4.421   7.872   1.279  3.7556  2.5643 -0.0084
    3MOL   C189  873   4.060   0.243   1.003 -0.0279 -0.3262  0.2345
    3MOL   C190  874   4.081   0.384   1.067  0.5722 -0.4036  0.3169
    3MOL   N191  875   4.215   0.407   1.111 -0.1625  0.0247  0.3690
    3MOL   C192  876   4.239   0.461   1.245 -0.5165  0.0218 -0.5352
    3MOL   C193  877   4.389   0.514   1.251  0.1926 -0.2074  0.0311
    3MOL   C194  878   4.442   0.470   1.111 -0.2303  0.2696  1.1059
    3MOL   C195  879   4.318   0.424   1.026  0.6506 -0.1910  0.3709
    3MOL   O196  880   4.327   0.416   0.902  0.1334  0.1520 -0.4429
    3MOL   H197  881   3.983   0.256   0.927  0.3901 -1.8420 -0.4666
    3MOL   H198  882   4.140   0.206   0.938 -1.1631 -1.7151 -0.4075
    3MOL   H199  883   4.027   0.395   1.161 -0.4158  0.8818 -0.3781
    3MOL   H200  884   4.162   0.534   1.271 -0.2091 -0.7213  2.6975
    3MOL   H201  885   4.226   0.375   1.311 -0.7921  0.9370  0.6182
    3MOL   H202  886   4.391   0.622   1.266  2.4946 -0.5790  2.8511
    3MOL   H203  887   4.449   0.473   1.332 -1.1971 -0.2606  1.0474
    3MOL   H204  888   4.519   0.529   1.060 -0.1533  0.2024  1.1437
    3MOL   H205  889   4.505   0.382   1.115  0.7536  0.9545  1.0320
    3MOL   C206  890   4.033   0.498   0.969 -0.6454 -0.5286 -0.5513
    3MOL   C207  891   3.883   0.545   0.978  0.0319 -0.2374 -0.6812
    3MOL   N208  892   3.842   0.583   1.114 -0.2277 -0.6455  0.3147
    3MOL   C209  893   3.743   0.507   1.182  0.3672 -0.6728  0.4169
    3MOL   C210  894   3.694   0.609   1.286 -0.5841  0.1152 -0.3737
    3MOL   C211  895   3.812   0.704   1.311  0.9122 -0.0310 -0.1239
    3MOL   C212  896   3.896   0.684   1.184  0.7340  0.1324  0.1039
    3MOL   O213  897   3.983   0.758   1.151 -0.3145 -1.1264 -0.1658
    3MOL   H214  898   4.040   0.459   0.868 -1.3042 -0.1762 -0.7325
    3MOL   H215  899   4.100   0.581   0.991 -1.9297  0.5780 -0.8243
    3MOL   H216  900   3.827   0.458   0.945 -0.3230 -0.5141  0.6009
    3MOL   H217  901   3.666   0.473   1.113  2.7215  1.1314 -3.2654
    3MOL   H218  902   3.780   0.419   1.233  2.7190  0.2313  0.3136
    3MOL   H219  903   3.610   0.669   1.252 -0.1954  0.6524 -0.3941
    3MOL   H220  904   3.657   0.561   1.377  2.1119 -1.4579 -0.0615
    3MOL   H221  905   3.783   0.808   1.326 -0.0350 -0.2293 -0.5412
    3MOL   H222  906   3.867   0.677   1.401  0.4833 -2.9022 -0.6802
    3MOL   C223  907   3.861   0.654   0.875 -0.0869  0.3081  0.5777
    3MOL   C224  908   3.725   0.718   0.859  0.1569  0.2821  0.2502
    3MOL   N225  909   3.716   0.824   0.755  0.1582 -0.3072  0.2762
    3MOL   C226  910   3.748   0.793   0.608  0.0095 -0.7688  0.3652
    3MOL   C227  911   3.724   0.933   0.539  0.0407  0.9002  0.5194
    3MOL   C228  912   3.636   1.009   0.636  0.4001  0.0968  0.4158
    3MOL   C229  913   3.670   0.950   0.772 -0.4770 -0.0504  0.2546
    3MOL   O230  914   3.647   1.005   0.880  0.2081  0.0438  0.0420
    3MOL   H231  915   3.889   0.607   0.781 -0.9505  0.0092  0.4641
    3MOL   H232  916   3.933   0.734   0.892  2.7145 -2.0607  0.2293
    3MOL   H233  917   3.714   0.776   0.951 -0.6642 -0.4310  0.6094
    3MOL   H234  918   3.852   0.762   0.594 -0.1563 -1.3408  0.3757
    3MOL   H235  919   3.683   0.710   0.580 -0.0878 -0.1052 -1.4665
    3MOL   H236  920   3.819   0.984   0.525  0.2473  0.7982  1.5011
    3MOL   H237  921   3.678   0.922   0.441 -0.9679  2.3147  0.8188
    3MOL   H238  922   3.643   1.116   0.621 -0.8395  0.0487 -0.5424
    3MOL   H239  923   3.536   0.971   0.613  0.6281 -0.1354 -0.1843
    3MOL   C240  924   3.599   0.629   0.865  0.6202 -0.4603  0.4300
    3MOL   C241  925   3.459   0.695   0.845  0.2776  0.2851 -0.7206
    3MOL   N242  926   3.361   0.598   0.794 -0.0430 -0.3165  0.0090
    3MOL   C243  927   3.316   0.598   0.649 -0.5518  0.7723  0.0819
    3MOL   C244  928   3.212   0.481   0.633  0.0610  0.5020  0.0407
    3MOL   C245  929   3.207   0.419   0.767  0.5537  0.9350  0.9487
    3MOL   C246  930   3.286   0.507   0.861 -0.6927  0.5456  0.6746
    3MOL   O247  931   3.270   0.497   0.986 -0.0692 -0.6611  0.4618
    3MOL   H248  932   3.604   0.572   0.958 -0.6227 -1.7807 -0.2967
    3MOL   H249  933   3.607   0.549   0.792 -0.0996  0.6617 -0.9157
    3MOL   H250  934   3.455   0.771   0.768 -2.3669  1.0349  0.1009
    3MOL   H251  935   3.267   0.694   0.638 -0.7406  0.5896 -0.7070
    3MOL   H252  936   3.396   0.589   0.576 -0.5565  4.2564 -0.4253
    3MOL   H253  937   3.118   0.523   0.598 -0.5897  2.2841  3.6270
    3MOL   H254  938   3.261   0.413   0.564  0.8852 -0.1329  1.2316
    3MOL   H255  939   3.103   0.411   0.796  0.8598  0.8570  2.0537
    3MOL   H256  940   3.264   0.325   0.764 -0.2165  0.5097 -0.6510
    3MOL   C257  941   3.410   0.767   0.980 -0.5292 -0.0606  0.0229
    3MOL   C258  942   3.274   0.833   0.977  0.9246 -0.7811 -0.0294
    3MOL   N259  943   3.216   0.845   1.114  0.0754  0.2439 -0.2561
    3MOL   C260  944   3.108   0.761   1.153  0.4559 -0.3390  0.2715
    3MOL   C261  945   3.114   0.740   1.301  0.0545  0.4195  0.1673
    3MOL   C262  946   3.207   0.854   1.348 -0.2497 -0.1739  0.2978
    3MOL   C263  947   3.272   0.900   1.223  0.2032  0.4809 -0.2517
    3MOL   O264  948   3.366   0.982   1.224  0.0881  0.2157  0.5030
    3MOL   H265  949   3.486   0.831   1.023 -0.2964 -0.8445  0.7798
    3MOL   H266  950   3.402   0.687   1.054 -1.7261 -1.6494 -1.7664
    3MOL   H267  951   3.206   0.774   0.916 -1.4208 -0.0320  1.7920
    3MOL   H268  952   3.018   0.815   1.124  1.1749  0.7830  0.0772
    3MOL   H269  953   3.106   0.661   1.110 -2.6493  0.2296 -1.0284
    3MOL   H270  954   3.010   0.725   1.330  0.1978  0.8115  0.8866
    3MOL   H271  955   3.151   0.645   1.339 -3.7537 -0.5320  1.7610
    3MOL   H272  956   3.150   0.935   1.393  0.4647 -0.0389  0.9719
    3MOL   H273  957   3.278   0.832   1.428 -1.4515 -1.2530  1.0780
    3MOL   C274  958   3.272   0.968   0.902 -0.7109  0.2444  0.6786
    3MOL   C275  959   3.147   1.061   0.901  0.3383 -0.1397  0.8672
    3MOL   N276  960   3.136   1.139   1.022  0.0161 -0.0622 -0.0631
    3MOL   C277  961   3.020   1.139   1.109 -0.2353  0.7086  0.0174
    3MOL   C278  962   3.040   1.246   1.211  0.1126 -0.1318  0.0751
    3MOL   C279  963   3.183   1.294   1.195 -0.4426  0.4472 -0.2443
    3MOL   C280  964   3.220   1.238   1.057  0.2411 -0.4923  1.4049
    3MOL   O281  965   3.312   1.280   0.987 -0.0926  0.6139  0.2119
    3MOL   H282  966   3.298   0.944   0.799  0.9766 -1.4551  1.4662
    3MOL   H283  967   3.359   1.022   0.941  1.7503 -0.8190 -3.0444
    3MOL   H284  968   3.066   0.990   0.886  1.0918 -0.3751 -2.5657
    3MOL   H285  969   2.931   1.154   1.048 -0.5257  0.0350  0.2662
    3MOL   H286  970   3.010   1.038   1.150  0.5897  1.7230  2.8229
    3MOL   H287  971   2.959   1.319   1.212 -0.6460 -0.9174 -1.4935
    3MOL   H288  972   3.024   1.188   1.302  0.2181  0.5741  0.5489
    3MOL   H289  973   3.184   1.403   1.199 -0.7340  0.3681  3.4797
    3MOL   H290  974   3.252   1.240   1.260 -0.5382  0.7023  0.0708
    3MOL   C291  975   3.139   1.162   0.772 -0.0900 -0.3163  0.2695
    3MOL   C292  976   2.999   1.200   0.719 -0.2839  0.1951 -0.2001
    3MOL   N293  977   2.985   1.339   0.692  0.0806 -0.0251 -0.1026
    3MOL   C294  978   2.935   1.420   0.807 -0.0026  0.4662 -0.1373
    3MOL   C295  979   2.915   1.552   0.735 -0.5340 -0.3128  0.1658
    3MOL   C296  980   3.004   1.564   0.614 -0.9731  0.1323 -0.6112
    3MOL   C297  981   3.035   1.419   0.596 -0.2643 -1.0896  0.1391
    3MOL   O298  982   3.104   1.384   0.497 -0.1478  0.3278 -0.2850
    3MOL   H299  983   3.185   1.122   0.681  0.0645 -1.1749  0.7230
    3MOL   H300  984   3.202   1.250   0.784  0.4161 -0.7009  0.4154
    3MOL   H301  985   2.927   1.184   0.799  0.4407 -0.4397  0.3228
    3MOL   H302  986   2.847   1.371   0.849  0.0830  1.0789  0.7788
    3MOL   H303  987   3.002   1.417   0.893 -2.0611 -3.3090  1.5007
    3MOL   H304  988   2.811   1.542   0.707 -0.2181  0.1675 -1.2156
    3MOL   H305  989   2.915   1.635   0.806 -0.7844  0.4178 -0.6842
    3MOL   H306  990   2.958   1.585   0.518 -0.9194 -2.0572 -1.1465
    3MOL   H307  991   3.095   1.621   0.630  0.0410 -1.3105 -1.1302
    3MOL   C308  992   2.956   1.114   0.598  0.1004  0.4202  0.6043
    3MOL   C309  993   2.968   0.968   0.606  0.2387  0.0166 -0.5113
    3MOL   N310  994   2.897   0.915   0.724  0.3742 -0.0399 -0.0588
    3MOL   C311  995   2.927   0.779   0.763 -0.0227 -0.5040 -0.7364
    3MOL   C312  996   2.808   0.732   0.840 -0.3069  0.4398 -0.3736
    3MOL   C313  997   2.720   0.856   0.862 -0.0143 -0.0957 -0.5364
    3MOL   C314  998   2.771   0.953   0.762 -0.7572  0.4696  0.3932
    3MOL   O315  999   2.710   1.052   0.731 -0.5163 -0.3121 -0.8893
    3MOL   H316 1000   3.022   1.143   0.516 -0.1741  0.0758  0.2606
    3MOL   H317 1001   2.856   1.145   0.568  0.0479 -0.7724 -0.5116
    3MOL   H318 1002   3.074   0.944   0.613  0.0039 -1.3697 -1.3493
    3MOL   H319 1003   2.936   0.706   0.683  0.5814 -1.1502 -0.0870
    3MOL   H320 1004   3.002   0.772   0.842 -0.3879 -0.0918 -0.3504
    3MOL   H321 1005   2.759   0.655   0.780 -0.0272 -1.7093  2.0396
    3MOL   H322 1006   2.828   0.679   0.934  3.0732  2.6971  0.2643
    3MOL   H323 1007   2.614   0.836   0.846  0.3321 -3.5572  1.1541
    3MOL   H324 1008   2.726   0.905   0.959  0.4023 -0.0221 -0.5989
    3MOL   C325 1009   2.909   0.905   0.472 -0.5052  0.2128 -0.3687
    3MOL   C326 1010   2.973   0.955   0.343  0.2598  0.3656 -0.5322
    3MOL   N327 1011   3.126   0.951   0.330  0.2780  0.0782  0.1348
    3MOL   C328 1012   3.210   1.072   0.319 -0.0359  0.1400  0.1096
    3MOL   C329 1013   3.360   1.036   0.359 -0.8204  0.0281  0.2849
    3MOL   C330 1014   3.349   0.886   0.370 -0.1639  0.2445  0.5351
    3MOL   C331 1015   3.199   0.852   0.377 -0.1616  0.2565 -0.0646
    3MOL   O332 1016   3.157   0.743   0.412  0.6429  0.6300  0.5386
    3MOL   H333 1017   2.805   0.937   0.468  0.5711  3.7746 -1.6155
    3MOL   H334 1018   2.907   0.796   0.484  1.9602 -0.0854 -2.1379
    3MOL   H335 1019   2.937   1.056   0.321 -1.3051 -0.2557 -0.8911
    3MOL   H336 1020   3.192   1.101   0.216 -0.0002 -0.5193 -0.0809
    3MOL   H337 1021   3.169   1.164   0.361 -1.4742 -0.6641  0.4900
    3MOL   H338 1022   3.433   1.064   0.283  2.7868 -1.9946  2.8373
    3MOL   H339 1023   3.397   1.083   0.450  0.1964 -0.1946 -0.0043
    3MOL   H340 1024   3.370   0.837   0.275 -2.3475  0.9311 -0.3337
    3MOL   H341 1025   3.412   0.837   0.444  0.1176  2.6452  1.9584
    3MOL   H342 1026   2.937   0.895   0.259 -2.3027  2.1187 -0.7586
    4MOL     C1 1027   2.714   0.863   7.078 -0.3760  0.6787  0.2098
    4MOL     C2 1028   2.812   0.972   7.109 -0.5761  0.4604  0.2526
    4MOL     N3 1029   2.759   1.106   7.090  0.5032 -0.0916 -0.0564
    4MOL     C4 1030   2.792   1.168   6.961  0.2785  0.3641  0.7410
    4MOL     C5 1031   2.730   1.312   6.967  0.6110  0.1709 -0.2393
    4MOL     C6 1032   2.631   1.300   7.089 -0.8444  0.4591 -0.6349
    4MOL     C7 1033   2.664   1.171   7.164  0.2095 -0.0523 -0.2298
    4MOL     O8 1034   2.620   1.140   7.270 -0.1523 -0.5790 -0.2614
    4MOL     H9 1035   2.645   0.869   7.162  0.6272  1.0089  1.0208
    4MOL    H10 1036   2.651   0.873   6.990  0.0869  1.0565 -0.0801
    4MOL    H11 1037   2.886   0.965   7.029 -0.4596 -0.9933  0.4759
    4MOL    H12 1038   2.899   1.170   6.936 -0.4372  2.6089 -2.5039
    4MOL    H13 1039   2.742   1.126   6.874  0.3106  3.1933 -0.7111
    4MOL    H14 1040   2.806   1.386   6.993  1.4366 -0.4144 -0.9539
    4MOL    H15 1041   2.678   1.352   6.880  0.8020  0.2043 -0.3398
    4MOL    H16 1042   2.643   1.391   7.147 -1.4156 -0.4161  0.8645
    4MOL    H17 1043   2.527   1.286   7.059 -0.7126  0.3213 -1.0304
    4MOL    H18 1044   2.751   0.760   7.071 -1.5816  0.2853 -0.6009
    4MOL    C19 1045   2.877   0.963   7.243  0.1924 -0.0382 -0.1147
    4MOL    C20 1046   2.993   0.860   7.256 -0.0037 -0.0604 -0.1437
    4MOL    N21 1047   3.098   0.886   7.158  0.0232  0.4285 -0.2666
    4MOL    C22 1048   3.168   0.768   7.108 -0.2837  0.3098  0.5456
    4MOL    C23 1049   3.302   0.820   7.045  0.5594 -0.6445  0.3357
    4MOL    C24 1050   3.298   0.972   7.047 -0.7622 -0.1302  0.0098
    4MOL    C25 1051   3.179   0.995   7.146 -0.4020  0.1046  0.5487
    4MOL    O26 1052   3.157   1.103   7.205 -0.8370 -0.3077  0.4335
    4MOL    H27 1053   2.802   0.944   7.320 -0.5806 -2.4270 -1.4130
    4MOL    H28 1054   2.916   1.060   7.276 -0.8602  0.4374 -0.2713
    4MOL    H29 1055   2.949   0.763   7.230  0.5198 -1.0752  2.5001
    4MOL    H30 1056   3.182   0.690   7.183 -0.3216 -2.6386 -2.4089
    4MOL    H31 1057   3.123   0.702   7.035  0.1779 -0.3566  0.8588
    4MOL    H32 1058   3.384   0.774   7.100 -0.2270 -1.9174  0.4589
    4MOL    H33 1059   3.325   0.797   6.941 -1.4277  0.4326 -0.3833
    4MOL    H34 1060   3.384   1.009   7.102 -1.4707  1.6544 -0.0444
    4MOL    H35 1061   3.285   1.017   6.948 -0.5297 -0.1691 -0.0388
    4MOL    C36 1062   3.061   0.857   7.403 -0.2554  0.1260 -0.8313
    4MOL    C37 1063   2.961   0.810   7.510 -0.5884 -0.3175 -0.0704
    4MOL    N38 1064   2.896   0.681   7.477  0.4079 -0.1485  0.7698
    4MOL    C39 1065   2.750   0.676   7.494 -0.4007  0.0574  0.3811
    4MOL    C40 1066   2.701   0.542   7.440 -0.1916 -0.6218 -0.2017
    4MOL    C41 1067   2.838   0.457   7.427 -0.4995 -0.5529 -0.1125
    4MOL    C42 1068   2.946   0.563   7.437 -0.1077 -0.4233 -0.3637
    4MOL    O43 1069   3.056   0.539   7.392 -0.2438 -0.3991 -0.2606
    4MOL    H44 1070   3.089   0.957   7.437 -0.2422 -0.2286  0.2033
    4MOL    H45 1071   3.147   0.790   7.409 -0.2468  0.1539 -0.6650
    4MOL    H46 1072   2.882   0.885   7.505  0.0501  0.6333  2.8755
    4MOL    H47 1073   2.736   0.679   7.602 -0.9559 -0.4970  0.3299
    4MOL    H48 1074   2.698   0.755   7.439 -1.5342 -0.0765  1.2386
    4MOL    H49 1075   2.631   0.484   7.499  1.2870 -0.6453  1.5552
    4MOL    H50 1076   2.648   0.558   7.346 -1.3735  2.6196  0.9533
    4MOL    H51 1077   2.859   0.384   7.505 -0.6244  0.4973  0.9235
    4MOL    H52 1078   2.850   0.415   7.327 -0.5851  0.4198 -0.5388
    4MOL    C53 1079   3.035   0.795   7.651 -0.2963  0.8063  0.1676
    4MOL    C54 1080   3.057   0.940   7.718 -0.2622  0.3559  0.6737
    4MOL    N55 1081   2.933   1.004   7.767 -0.3067  0.3253 -1.1091
    4MOL    C56 1082   2.898   1.120   7.696  0.4419 -0.3627  0.0842
    4MOL    C57 1083   2.766   1.164   7.760  1.0034 -0.4052 -0.2300
    4MOL    C58 1084   2.722   1.053   7.854 -0.2896 -0.0057 -0.1414
    4MOL    C59 1085   2.843   0.961   7.856  0.3320 -0.2824  0.3929
    4MOL    O60 1086   2.840   0.861   0.019 -0.1215 -0.0524 -0.2512
    4MOL    H61 1087   3.125   0.735   7.637 -0.4083  0.4905  0.8200
    4MOL    H62 1088   2.982   0.729   7.719  1.2424 -1.9516 -1.2298
    4MOL    H63 1089   3.101   1.005   7.642 -1.6196 -0.1762 -0.5892
    4MOL    H64 1090   2.976   1.192   7.720 -0.3964  0.3300  0.7582
    4MOL    H65 1091   2.890   1.106   7.589 -1.3742  0.3471  0.1037
    4MOL    H66 1092   2.767   1.252   7.825 -1.8287  2.3856 -3.7597
    4MOL    H67 1093   2.691   1.180   7.682  0.3015 -0.9228  0.3409
    4MOL    H68 1094   2.701   1.101   0.044  2.1167 -1.8651  1.3999
    4MOL    H69 1095   2.642   0.994   7.810  0.7613  0.7660 -3.2317
    4MOL    C70 1096   3.164   0.924   7.830 -0.6556 -0.4910 -0.2887
    4MOL    C71 1097   3.306   0.891   7.778  0.6316  0.8654 -0.1651
    4MOL    N72 1098   3.356   1.000   7.691  0.4278 -0.1477  0.4424
    4MOL    C73 1099   3.381   0.982   7.552  0.3212  0.4166 -0.1563
    4MOL    C74 1100   3.405   1.121   7.498  0.0926 -0.4661  0.3829
    4MOL    C75 1101   3.432   1.205   7.622  0.3759  0.2589 -0.2303
    4MOL    C76 1102   3.384   1.125   7.736  0.1210  0.8800  0.0115
    4MOL    O77 1103   3.379   1.167   7.850  0.5758  0.1293 -0.3138
    4MOL    H78 1104   3.138   0.838   7.893 -1.7543 -0.3718 -0.5879
    4MOL    H79 1105   3.165   1.006   7.901  1.6552 -0.1098 -0.6925
    4MOL    H80 1106   3.291   0.806   7.710 -0.4400  0.3013  0.7481
    4MOL    H81 1107   3.473   0.926   7.537  0.1733  0.5824 -1.7284
    4MOL    H82 1108   3.300   0.930   7.501 -0.2595  0.7105  0.4602
    4MOL    H83 1109   3.490   1.123   7.429 -0.8314  1.0594 -0.7488
    4MOL    H84 1110   3.308   1.143   7.453  0.4029  1.1962  0.5014
    4MOL    H85 1111   3.536   1.239   7.627 -0.1479  1.6371  1.9139
    4MOL    H86 1112   3.372   1.296   7.618  0.4143  0.3326  0.7381
    4MOL    C87 1113   3.411   0.858   7.883 -0.1205 -0.2566 -0.3638
    4MOL    C88 1114   3.545   0.801   7.833  0.5749 -0.5117  0.4681
    4MOL    N89 1115   3.654   0.898   7.873  0.0165 -0.4604  0.6267
    4MOL    C90 1116   3.723   0.973   7.775 -0.3610  0.8502  0.1426
    4MOL    C91 1117   3.780   1.089   7.852 -0.3936 -0.3252  0.0348
    4MOL    C92 1118   3.786   1.053   0.096 -1.1082 -0.4980 -0.2855
    4MOL    C93 1119   3.690   0.932   0.094  1.2612 -0.5649 -0.2938
    4MOL    O94 1120   3.649   0.876   0.198 -0.1317 -0.3332  0.3629
    4MOL    H95 1121   3.359   0.793   0.047  1.9816 -1.3486  0.2192
    4MOL    H96 1122   3.421   0.948   0.038 -0.7496  0.5470 -1.4264
    4MOL    H97 1123   3.545   0.796   7.724 -1.6559 -2.1086  0.4978
    4MOL    H98 1124   3.798   0.922   7.715  0.6546  0.6574  1.5645
    4MOL    H99 1125   3.647   1.003   7.703 -0.5528 -0.2062 -0.0970
    4MOL   H100 1126   3.875   1.124   7.813 -0.2065  0.5854  1.2765
    4MOL   H101 1127   3.718   1.178   7.837 -0.2543 -0.3891 -0.9891
    4MOL   H102 1128   3.884   1.025   0.135 -0.5144  0.5876 -0.9734
    4MOL   H103 1129   3.741   1.131   0.157  0.4294 -0.6948  1.1417
    4MOL   C104 1130   3.571   0.663   7.885  0.0296 -0.4677  0.1234
    4MOL   C105 1131   3.489   0.558   7.805  0.1889  0.2051  0.5108
    4MOL   N106 1132   3.520   0.557   7.656  0.2039 -0.3483  0.0774
    4MOL   C107 1133   3.417   0.534   7.561  0.4931  0.4147 -0.0837
    4MOL   C108 1134   3.484   0.514   7.426 -0.1755 -1.1251  0.1922
    4MOL   C109 1135   3.629   0.545   7.451 -0.4746 -0.5773  0.8838
    4MOL   C110 1136   3.638   0.539   7.603 -0.2437  0.2961  0.1710
    4MOL   O111 1137   3.744   0.517   7.658  0.1888 -0.6694 -0.0073
    4MOL   H112 1138   3.550   0.664   0.086 -1.3859  2.8387 -0.1135
    4MOL   H113 1139   3.676   0.637   7.873  0.0868  0.1767 -0.8129
    4MOL   H114 1140   3.387   0.595   7.816  0.3450  0.3146  1.6848
    4MOL   H115 1141   3.345   0.460   7.598  0.1936  0.8592  0.2233
    4MOL   H116 1142   3.351   0.620   7.556 -1.5772 -1.1435 -0.4573
    4MOL   H117 1143   3.483   0.408   7.400 -0.2999 -1.4755  1.6164
    4MOL   H118 1144   3.436   0.572   7.348  0.8533  1.6160  1.5434
    4MOL   H119 1145   3.649   0.648   7.421 -0.7148 -0.0945  2.3151
    4MOL   H120 1146   3.696   0.467   7.415 -1.8083 -1.6336  0.6274
    4MOL   C121 1147   3.489   0.415   7.863  0.1397  0.2317  0.1645
    4MOL   C122 1148   3.406   0.391   0.093 -0.6497 -0.5619  0.3256
    4MOL   N123 1149   3.272   0.442   0.083  0.7573  0.0111 -0.9322
    4MOL   C124 1150   3.229   0.532   0.187  0.0728 -1.1328 -0.2584
    4MOL   C125 1151   3.083   0.555   0.157 -0.1359  0.5499 -0.6893
    4MOL   C126 1152   3.044   0.457   0.051  0.2397 -0.1375  0.0693
    4MOL   C127 1153   3.172   0.398   0.007 -0.0525 -0.6781 -0.0509
    4MOL   O128 1154   3.179   0.320   7.813  0.2415  0.0038  0.4124
    4MOL   H129 1155   3.592   0.382   7.874  0.1708  0.4272  0.4478
    4MOL   H130 1156   3.433   0.352   7.793  0.7210  1.0421 -1.0571
    4MOL   H131 1157   3.448   0.448   0.176  0.3728 -1.8023  0.6704
    4MOL   H132 1158   3.286   0.625   0.195 -1.8580 -0.0580  1.3941
    4MOL   H133 1159   3.226   0.479   0.282 -1.6958 -0.7979 -0.1091
    4MOL   H134 1160   3.017   0.543   0.243 -1.8226 -1.4850 -2.2229
    4MOL   H135 1161   3.069   0.656   0.119 -1.4427 -0.1015 -2.0047
    4MOL   H136 1162   2.985   0.372   0.086  1.2265 -0.9394 -0.1967
    4MOL   H137 1163   2.987   0.506   7.878 -0.7327  0.3986  1.0897
    4MOL   C138 1164   3.392   0.242   0.141 -0.0056 -0.2745  0.1308
    4MOL   C139 1165   3.509   0.182   0.208  0.3201  0.5811  0.0703
    4MOL   N140 1166   3.556   0.268   0.327  0.2643 -0.0544 -0.4832
    4MOL   C141 1167   3.667   0.362   0.301  0.0108 -0.0717 -0.5321
    4MOL   C142 1168   3.699   0.419   0.440 -0.4789  0.4151  0.6851
    4MOL   C143 1169   3.600   0.352   0.540  0.0384  0.0780  0.6036
    4MOL   C144 1170   3.516   0.269   0.456 -0.0478 -0.0279  0.0064
    4MOL   O145 1171   3.432   0.192   0.502 -0.3671 -0.2524  0.0751
    4MOL   H146 1172   3.370   0.191   0.048  2.5179  2.6051 -2.1532
    4MOL   H147 1173   3.311   0.234   0.214 -0.9978  0.2678 -0.8923
    4MOL   H148 1174   3.596   0.184   0.143 -0.7553 -0.4714 -1.4492
    4MOL   H149 1175   3.759   0.325   0.255  0.4024  0.0028  0.1813
    4MOL   H150 1176   3.631   0.445   0.239  0.3981  0.5038 -0.0012
    4MOL   H151 1177   3.802   0.391   0.466 -0.4761 -0.1929  0.0188
    4MOL   H152 1178   3.688   0.527   0.455 -1.3202  0.1038  2.4251
    4MOL   H153 1179   3.535   0.426   0.585  0.9542  0.3428  1.5013
    4MOL   H154 1180   3.650   0.292   0.616  1.1050  0.0865 -0.0667
    4MOL   C155 1181   3.487   0.032   0.225 -0.4793 -0.2555  0.3909
    4MOL   C156 1182   3.469   7.843   0.094 -0.3509  0.2638 -0.5767
    4MOL   N157 1183   3.546   7.893   7.884 -0.4286  0.2820 -0.3791
    4MOL   C158 1184   3.469   0.010   7.756 -0.5278  0.0409 -0.0034
    4MOL   C159 1185   3.568   0.055   7.654  1.3992  0.2779 -0.0466
    4MOL   C160 1186   3.704   0.067   7.725 -1.2198 -0.3150  0.0543
    4MOL   C161 1187   3.676   0.004   7.858 -0.7106 -0.1861 -0.0172
    4MOL   O162 1188   3.767   7.890   0.039  0.0463  0.1997 -1.3113
    4MOL   H163 1189   3.401   0.026   0.291  0.4321 -0.6451  1.5675
    4MOL   H164 1190   3.569   7.897   0.284 -0.2894 -0.2322  0.1410
    4MOL   H165 1191   3.366   7.849   0.058 -0.3780  1.5405 -0.3246
    4MOL   H166 1192   3.418   7.824   7.727 -1.3805  0.2704  0.7652
    4MOL   H167 1193   3.393   0.084   7.781  1.2978  2.2748 -0.8340
    4MOL   H168 1194   3.552   7.885   7.577 -1.0885  0.3127  0.4149
    4MOL   H169 1195   3.532   0.144   7.603 -2.4561 -1.0610  0.1594
    4MOL   H170 1196   3.788   0.005   7.693 -2.0482 -0.2240 -2.3457
    4MOL   H171 1197   3.738   0.168   7.750 -0.6378 -0.9510  1.9815
    4MOL   C172 1198   3.513   7.696   0.103 -0.0274 -0.1275 -0.2540
    4MOL   C173 1199   3.406   7.603   0.179  0.2339 -0.9794 -0.2492
    4MOL   N174 1200   3.314   7.543   0.087  0.3039 -0.0986  0.1183
    4MOL   C175 1201   3.178   7.597   0.076 -0.5222  0.5013 -0.3248
    4MOL   C176 1202   3.119   7.544   7.847 -0.5056 -0.4462  0.1392
    4MOL   C177 1203   3.218   7.447   7.789  0.8053  0.1049 -0.1899
    4MOL   C178 1204   3.333   7.458   7.889  0.5890  0.6288 -0.4413
    4MOL   O179 1205   3.437   7.394   7.864  0.0347  0.8674  0.0030
    4MOL   H180 1206   3.608   7.695   0.156 -1.8403  1.8348  3.2350
    4MOL   H181 1207   3.536   7.653   0.005  2.4044 -0.7238  0.5487
    4MOL   H182 1208   3.345   7.663   0.247  2.3284  0.7660  0.1629
    4MOL   H183 1209   3.123   7.544   0.154  0.6181 -1.8109 -1.0359
    4MOL   H184 1210   3.168   7.704   0.093  0.3215  0.5020  0.2551
    4MOL   H185 1211   3.095   7.628   7.782 -0.4427 -0.7624 -0.2911
    4MOL   H186 1212   3.031   7.490   7.882 -1.2451  0.7947  0.2448
    4MOL   H187 1213   3.194   7.340   7.791 -0.8269  0.4650 -0.1220
    4MOL   H188 1214   3.251   7.477   7.689 -0.6619 -0.2893 -0.8023
    4MOL   C189 1215   3.477   7.488   0.255 -0.4361 -0.6402 -0.0564
    4MOL   C190 1216   3.556   7.530   0.385 -0.1269  0.3234  0.3267
    4MOL   N191 1217   3.496   7.631   0.472 -0.2018  0.0940  0.0769
    4MOL   C192 1218   3.587   7.717   0.549  0.0630 -0.4693  0.0153
    4MOL   C193 1219   3.509   7.785   0.656 -0.3596  0.2123  0.2865
    4MOL   C194 1220   3.364   7.762   0.618  0.6730  0.2051 -0.1903
    4MOL   C195 1221   3.366   7.650   0.510 -0.1177 -0.4631 -0.5280
    4MOL   O196 1222   3.264   7.592   0.470  0.0609  0.5481 -0.1476
    4MOL   H197 1223   3.557   7.449   0.191  1.6060  1.0796  1.3919
    4MOL   H198 1224   3.402   7.417   0.288  1.2297 -2.5422 -0.2552
    4MOL   H199 1225   3.654   7.573   0.361 -0.2429  1.2931  1.5223
    4MOL   H200 1226   3.666   7.654   0.591  0.6252  0.5470  0.5187
    4MOL   H201 1227   3.643   7.796   0.500 -1.9885  2.4792  2.2191
    4MOL   H202 1228   3.530   7.749   0.757  2.3339  1.8007  0.3204
    4MOL   H203 1229   3.516   7.893   0.653 -1.8432  0.2808 -1.1144
    4MOL   H204 1230   3.306   7.721   0.701  1.7906 -1.9799 -0.4497
    4MOL   H205 1231   3.314   7.847   0.572  0.1548  0.1223  0.2031
    4MOL   C206 1232   3.584   7.397   0.460 -0.3799  0.6156 -0.1268
    4MOL   C207 1233   3.672   7.288   0.401  0.7310 -0.7688 -0.3369
    4MOL   N208 1234   3.806   7.345   0.377 -0.0025 -0.0860 -0.9821
    4MOL   C209 1235   3.865   7.343   0.246 -0.1061 -0.0703 -0.8510
    4MOL   C210 1236   3.993   7.427   0.244 -0.8260 -0.0051 -0.1336
    4MOL   C211 1237   4.036   7.426   0.389 -0.7058 -0.4549  0.8774
    4MOL   C212 1238   3.901   7.384   0.463  0.5350 -0.2364  0.2147
    4MOL   O213 1239   3.893   7.403   0.591  0.1022  0.5169  0.1826
    4MOL   H214 1240   3.491   7.355   0.498 -0.4678  1.9132  1.1254
    4MOL   H215 1241   3.626   7.431   0.555 -0.6723  0.1764  0.1557
    4MOL   H216 1242   3.634   7.256   0.304 -2.7017  1.6041  0.1493
    4MOL   H217 1243   3.900   7.242   0.229  0.8150 -0.5662  3.5693
    4MOL   H218 1244   3.790   7.384   0.177 -2.2568 -0.9777  0.8850
    4MOL   H219 1245   4.057   7.390   0.164 -0.7957  0.3632 -0.2809
    4MOL   H220 1246   3.962   7.526   0.212 -1.6458  0.5617  2.2866
    4MOL   H221 1247   4.107   7.349   0.418 -0.4796 -0.2287  0.9189
    4MOL   H222 1248   4.082   7.523   0.409 -1.3936 -0.0307  0.4616
    4MOL   C223 1249   3.679   7.172   0.505  0.0016  0.0050 -0.3619
    4MOL   C224 1250   3.766   7.050   0.460  0.1691 -0.5882  0.1149
    4MOL   N225 1251   3.831   7.003   0.583 -0.5017 -0.3421 -0.1707
    4MOL   C226 1252   3.759   6.954   0.695 -0.4410 -0.0666  0.4813
    4MOL   C227 1253   3.854   6.947   0.820  0.1434  0.2881 -0.2044
    4MOL   C228 1254   3.983   7.016   0.773  0.1440 -0.0610  0.6848
    4MOL   C229 1255   3.953   7.035   0.624  0.2539  0.5261  0.9748
    4MOL   O230 1256   4.032   7.085   0.549  0.4620  0.4317  0.4242
    4MOL   H231 1257   3.576   7.141   0.522  0.2455 -0.5481  0.1517
    4MOL   H232 1258   3.720   7.211   0.599 -1.3063  0.9962 -0.1759
    4MOL   H233 1259   3.834   7.083   0.382 -2.9374  1.8973 -1.6706
    4MOL   H234 1260   3.679   7.021   0.726 -0.1929  0.0199  0.9570
    4MOL   H235 1261   3.706   6.859   0.687  0.4036 -0.6025  1.0762
    4MOL   H236 1262   3.808   6.989   0.909  1.6518  2.0308 -0.2157
    4MOL   H237 1263   3.882   6.846   0.851 -1.2396 -0.5062 -1.4867
    4MOL   H238 1264   3.986   7.119   0.811 -2.2509  0.1145  0.4627
    4MOL   H239 1265   4.080   6.966   0.779 -0.4833 -1.4056 -0.2344
    4MOL   C240 1266   3.701   6.934   0.389 -0.4463  0.1584  0.4401
    4MOL   C241 1267   3.632   6.955   0.254 -0.0483 -0.0574 -0.8114
    4MOL   N242 1268   3.713   7.002   0.146  0.1246  0.6883  0.1203
    4MOL   C243 1269   3.664   7.099   0.050  0.9231 -0.1593  0.3683
    4MOL   C244 1270   3.778   7.123   7.856 -0.4923 -0.2853  0.7194
    4MOL   C245 1271   3.869   7.000   7.865  0.9004  0.3282  0.0358
    4MOL   C246 1272   3.819   6.933   0.088 -0.9570  0.6188  0.4850
    4MOL   O247 1273   3.886   6.838   0.133 -0.5025 -0.3331  0.2545
    4MOL   H248 1274   3.639   6.883   0.463 -1.0412 -0.2122 -0.3135
    4MOL   H249 1275   3.780   6.862   0.368 -1.5760 -1.6478  2.1611
    4MOL   H250 1276   3.559   7.031   0.278  1.6148  1.8303 -1.5677
    4MOL   H251 1277   3.577   7.057   0.000 -0.5022  0.6933  2.0878
    4MOL   H252 1278   3.636   7.194   0.097  1.7917 -0.1669  0.9033
    4MOL   H253 1279   3.745   7.125   7.752  1.9122  2.1080 -0.0451
    4MOL   H254 1280   3.831   7.217   7.874 -0.4415  0.1869 -1.7034
    4MOL   H255 1281   3.859   6.941   7.774  0.7597  1.2542 -0.5528
    4MOL   H256 1282   3.977   7.017   7.870  1.0113 -0.4969  0.6088
    4MOL   C257 1283   3.535   6.834   0.218  0.0273 -0.0629 -0.1166
    4MOL   C258 1284   3.406   6.819   0.300 -0.0827 -0.4152 -1.0041
    4MOL   N259 1285   3.318   6.936   0.294 -0.0902 -0.0188  0.0931
    4MOL   C260 1286   3.280   6.994   0.424 -0.0052  0.3176 -0.2466
    4MOL   C261 1287   3.191   7.116   0.395  0.0266 -0.0844 -0.2254
    4MOL   C262 1288   3.219   7.145   0.252 -0.2557 -0.5523  0.6988
    4MOL   C263 1289   3.281   7.019   0.198 -0.3487  0.3917 -0.1223
    4MOL   O264 1290   3.297   7.001   0.078 -0.1181  0.7061 -0.6167
    4MOL   H265 1291   3.595   6.743   0.205  1.5716  1.0981 -1.2209
    4MOL   H266 1292   3.504   6.850   0.115 -0.8085 -0.9269 -0.0102
    4MOL   H267 1293   3.430   6.805   0.405  1.0356  0.3406 -1.1416
    4MOL   H268 1294   3.228   6.932   0.497 -1.3349  0.4214 -1.0842
    4MOL   H269 1295   3.368   7.028   0.477  0.2290  0.3434 -0.6484
    4MOL   H270 1296   3.083   7.105   0.395 -0.2422  2.3357  1.1186
    4MOL   H271 1297   3.208   7.199   0.463  2.0817 -1.3059  0.7939
    4MOL   H272 1298   3.134   7.179   0.193  0.6717 -0.5337 -0.6784
    4MOL   H273 1299   3.295   7.222   0.234 -0.9003  0.1966  1.1724
    4MOL   C274 1300   3.340   6.691   0.250  0.7731  0.5294  0.0776
    4MOL   C275 1301   3.274   6.605   0.363 -0.0636  0.7203  0.4107
    4MOL   N276 1302   3.183   6.684   0.446  0.1316  0.1681  0.0688
    4MOL   C277 1303   3.193   6.673   0.590 -0.0524  0.0363  0.6960
    4MOL   C278 1304   3.070   6.734   0.652 -0.2056 -0.4388 -0.6582
    4MOL   C279 1305   2.991   6.794   0.533  0.3054  0.5850 -0.0841
    4MOL   C280 1306   3.069   6.747   0.410 -0.5739 -0.0157  0.0306
    4MOL   O281 1307   3.036   6.770   0.290  0.6428 -0.1600 -0.2445
    4MOL   H282 1308   3.416   6.623   0.214 -0.8640 -0.9441 -0.6414
    4MOL   H283 1309   3.267   6.710   0.171  0.3734 -0.2241  0.2619
    4MOL   H284 1310   3.342   6.560   0.435 -0.7087 -0.7894  0.0821
    4MOL   H285 1311   3.199   6.566   0.610 -5.0672 -0.4235  0.5226
    4MOL   H286 1312   3.283   6.726   0.619 -0.2072  0.9567 -0.4749
    4MOL   H287 1313   3.014   6.656   0.704  0.2224  1.6302  3.1513
    4MOL   H288 1314   3.090   6.811   0.727  0.9135 -1.8865  0.5480
    4MOL   H289 1315   2.903   6.733   0.551  0.9372  0.1762  1.7296
    4MOL   H290 1316   2.971   6.901   0.526  2.1653  0.8851 -1.2365
    4MOL   C291 1317   3.199   6.488   0.300 -0.2005 -0.2488 -0.1687
    4MOL   C292 1318   3.281   6.373   0.248 -0.1372  0.6088  0.2121
    4MOL   N293 1319   3.238   6.241   0.299  0.5512  0.2281 -0.1068
    4MOL   C294 1320   3.297   6.184   0.422  0.2960  0.3999  0.0598
    4MOL   C295 1321   3.210   6.070   0.464  0.2070  0.3388 -0.9755
    4MOL   C296 1322   3.113   6.040   0.348  0.8510 -0.3218  0.2196
    4MOL   C297 1323   3.131   6.168   0.263  0.2741  0.4140  0.4549
    4MOL   O298 1324   3.057   6.186   0.165 -0.3473 -0.1044 -0.1769
    4MOL   H299 1325   3.131   6.526   0.223 -1.5018 -1.9853  0.0795
    4MOL   H300 1326   3.131   6.445   0.374 -0.9003  0.7271 -0.2328
    4MOL   H301 1327   3.382   6.376   0.287 -0.0859 -0.2591  0.1513
    4MOL   H302 1328   3.402   6.159   0.405  0.2679  1.2504 -1.4227
    4MOL   H303 1329   3.294   6.257   0.502  0.4864 -1.9966  2.3292
    4MOL   H304 1330   3.274   5.982   0.475 -0.3444  0.1644  0.9634
    4MOL   H305 1331   3.153   6.077   0.557 -2.1741  3.0967 -2.5524
    4MOL   H306 1332   3.156   5.952   0.301 -1.4308 -2.2938  1.7764
    4MOL   H307 1333   3.009   6.027   0.376  1.5728 -3.3704  1.5855
    4MOL   C308 1334   3.293   6.376   0.095 -0.3764  0.0692 -0.6368
    4MOL   C309 1335   3.392   6.285   0.030 -0.1111 -0.2435 -0.0804
    4MOL   N310 1336   3.330   6.200   7.833  0.0665 -0.6229  0.0749
    4MOL   C311 1337   3.323   6.055   7.859 -0.5881  0.4139  1.1366
    4MOL   C312 1338   3.245   6.001   7.739  0.7254 -0.2908  0.2090
    4MOL   C313 1339   3.221   6.118   7.640 -0.7723 -0.2706 -0.6654
    4MOL   C314 1340   3.264   6.241   7.725 -0.0488 -0.2228  0.1911
    4MOL   O315 1341   3.247   6.362   7.690 -0.0546 -0.2983 -0.0547
    4MOL   H316 1342   3.328   6.477   0.074  0.2610 -0.0687 -0.2565
    4MOL   H317 1343   3.191   6.379   0.055 -0.8799  0.0243  0.6027
    4MOL   H318 1344   3.430   6.210   0.101  1.3463  0.1885 -0.3757
    4MOL   H319 1345   3.425   6.016   7.862 -0.9757 -0.7154  0.0870
    4MOL   H320 1346   3.271   6.031   0.045 -0.1129 -2.4603  0.7013
    4MOL   H321 1347   3.296   5.925   7.680  2.2147  0.9855 -0.1860
    4MOL   H322 1348   3.146   5.970   7.773 -0.3269  2.3952 -0.2449
    4MOL   H323 1349   3.284   6.115   7.552  0.4824 -0.5433  0.2222
    4MOL   H324 1350   3.117   6.125   7.609 -0.6972  0.0602 -0.8459
    4MOL   C325 1351   3.526   6.342   7.888  0.4347 -0.0021 -0.5350
    4MOL   C326 1352   3.618   6.396   0.090 -0.0478  0.7863  0.9667
    4MOL   N327 1353   3.751   6.442   0.041 -0.5866 -0.3598  0.6654
    4MOL   C328 1354   3.848   6.472   0.146  0.5163 -0.0003  0.7099
    4MOL   C329 1355   3.978   6.523   0.082 -0.0046 -0.0074  0.0633
    4MOL   C330 1356   3.960   6.493   7.844 -0.4590  0.2625  0.3922
    4MOL   C331 1357   3.816   6.446   7.830 -0.1766  0.1458 -0.5176
    4MOL   O332 1358   3.770   6.416   7.721  0.2856  0.0133  0.3595
    4MOL   H333 1359   3.510   6.422   7.815  3.5254  0.8265 -0.3681
    4MOL   H334 1360   3.578   6.269   7.827  0.1039  0.6825 -1.6636
    4MOL   H335 1361   3.640   6.331   0.175 -0.3754  0.4986  0.8351
    4MOL   H336 1362   3.816   6.562   0.199 -4.1955 -0.2610 -1.3806
    4MOL   H337 1363   3.857   6.388   0.213 -1.8914  0.2586  1.4128
    4MOL   H338 1364   3.986   6.630   0.098  0.2673 -0.3275  2.1134
    4MOL   H339 1365   4.069   6.476   0.120 -0.5327  0.1488  1.5586
    4MOL   H340 1366   3.995   6.577   7.784  0.5705 -0.0882  0.4828
    4MOL   H341 1367   4.027   6.410   7.823  1.9246  1.6384  2.1830
    4MOL   H342 1368   3.581   6.488   0.136 -2.9572  0.6681 -1.0704
    5MOL     C1 1369   1.310   3.598   7.231  0.3864  0.5668  0.2508
    5MOL     C2 1370   1.404   3.706   7.275 -0.0614 -0.4465 -0.1066
    5MOL     N3 1371   1.524   3.701   7.191  0.0259 -0.4406 -0.0798
    5MOL     C4 1372   1.653   3.684   7.248 -0.2692  0.4208 -0.1546
    5MOL     C5 1373   1.755   3.708   7.143 -0.8220  0.2514 -0.3342
    5MOL     C6 1374   1.677   3.720   7.007  0.3078  0.1574  0.5285
    5MOL     C7 1375   1.531   3.731   7.061 -0.7152  0.0197 -0.0489
    5MOL     O8 1376   1.440   3.762   6.987  0.2795 -0.7414  0.0986
    5MOL     H9 1377   1.272   3.624   7.132 -0.2810  0.3333  0.4472
    5MOL    H10 1378   1.362   3.503   7.213  0.5242  0.9121 -1.2357
    5MOL    H11 1379   1.443   3.672   7.371  1.6504  1.3907 -0.1202
    5MOL    H12 1380   1.677   3.762   7.321 -1.5788  0.2442  0.4867
    5MOL    H13 1381   1.653   3.580   7.280 -0.9128  0.7523  0.9594
    5MOL    H14 1382   1.820   3.795   7.154  2.6396 -2.2789  0.0415
    5MOL    H15 1383   1.819   3.620   7.132 -1.4591 -0.2893  0.2803
    5MOL    H16 1384   1.694   3.809   6.946  1.2605  0.7648  1.6378
    5MOL    H17 1385   1.682   3.627   6.951  1.0484  1.1950 -1.1363
    5MOL    H18 1386   1.234   3.577   7.305 -2.4321 -0.3485 -2.7624
    5MOL    C19 1387   1.337   3.847   7.277  0.1360 -0.0842 -0.7792
    5MOL    C20 1388   1.207   3.852   7.355 -0.4582  0.0211  0.0889
    5MOL    N21 1389   1.208   3.796   7.494 -0.4286 -0.1390  0.3543
    5MOL    C22 1390   1.090   3.734   7.540  0.2665 -0.1246  0.2282
    5MOL    C23 1391   1.101   3.707   7.688 -0.7599  0.1283  0.5603
    5MOL    C24 1392   1.240   3.767   7.725 -0.1564 -0.3543  0.0964
    5MOL    C25 1393   1.289   3.824   7.594  0.1712 -0.2104  0.3975
    5MOL    O26 1394   1.399   3.877   7.579 -0.7500 -0.1538 -1.1580
    5MOL    H27 1395   1.315   3.893   7.180 -0.5528  1.1041 -0.0655
    5MOL    H28 1396   1.404   3.916   7.328  0.6375 -0.4189 -0.9865
    5MOL    H29 1397   1.140   3.784   7.302  0.4869 -1.9633  1.3426
    5MOL    H30 1398   1.004   3.799   7.521 -0.7024 -1.5056 -0.1491
    5MOL    H31 1399   1.077   3.637   7.493  0.4776 -0.0413 -0.0033
    5MOL    H32 1400   1.023   3.762   7.740 -2.5500 -1.0175 -0.8711
    5MOL    H33 1401   1.111   3.601   7.711 -2.2192 -0.6863 -2.2808
    5MOL    H34 1402   1.231   3.832   7.813 -0.4829 -0.5205  0.1865
    5MOL    H35 1403   1.307   3.688   7.760  0.7413  1.6852  3.2878
    5MOL    C36 1404   1.145   3.993   7.362 -0.4381  0.6851 -0.1423
    5MOL    C37 1405   1.102   4.053   7.223  0.2356  0.5189 -0.0815
    5MOL    N38 1406   1.040   3.961   7.119 -0.4126 -0.5611 -0.0032
    5MOL    C39 1407   1.085   3.954   6.980  1.0130 -0.0636 -0.0315
    5MOL    C40 1408   0.964   3.883   6.917 -0.5881 -0.4901  0.7335
    5MOL    C41 1409   0.886   3.809   7.026  0.0885 -0.2983 -0.5757
    5MOL    C42 1410   0.930   3.885   7.149 -0.4777  0.7248 -0.4565
    5MOL    O43 1411   0.878   3.871   7.260 -0.0048  0.1478 -0.2813
    5MOL    H44 1412   1.204   4.068   7.414 -1.3189  0.9420  0.5049
    5MOL    H45 1413   1.051   3.983   7.417 -1.0966  1.7401 -1.0639
    5MOL    H46 1414   1.194   4.093   7.180  0.4218  0.5443  0.3364
    5MOL    H47 1415   1.112   4.047   6.930 -0.3373 -0.2816 -1.2055
    5MOL    H48 1416   1.168   3.882   6.976 -0.6940 -2.2311  1.7743
    5MOL    H49 1417   0.900   3.961   6.875 -1.0845 -1.2222  0.1138
    5MOL    H50 1418   0.994   3.824   6.831  0.2573  2.4303 -1.0627
    5MOL    H51 1419   0.782   3.829   6.999  0.7543  2.9988 -0.9155
    5MOL    H52 1420   0.894   3.701   7.031 -1.2386 -0.3787  0.2658
    5MOL    C53 1421   1.017   4.179   7.245  0.6258  0.2085  0.6578
    5MOL    C54 1422   1.093   4.304   7.305  0.5541  0.2444 -0.2204
    5MOL    N55 1423   1.196   4.354   7.217 -0.2258  0.6291  0.7692
    5MOL    C56 1424   1.331   4.344   7.268 -0.5453 -0.2342  0.2139
    5MOL    C57 1425   1.415   4.372   7.139 -0.4019  0.1086  0.6193
    5MOL    C58 1426   1.327   4.418   7.030 -0.1410  0.1045  0.3298
    5MOL    C59 1427   1.183   4.409   7.091 -0.2550  0.4389 -0.4809
    5MOL    O60 1428   1.080   4.444   7.032 -0.1564  0.0115  0.1069
    5MOL    H61 1429   0.932   4.154   7.308  1.3260  0.4892  1.7373
    5MOL    H62 1430   0.976   4.200   7.147  0.2708  0.2568  0.8161
    5MOL    H63 1431   1.137   4.277   7.401  0.2980 -1.3457 -0.5479
    5MOL    H64 1432   1.351   4.427   7.335  0.4080  0.2991 -0.7031
    5MOL    H65 1433   1.344   4.248   7.318  1.4796  0.4833  1.1030
    5MOL    H66 1434   1.499   4.440   7.152  1.1441 -1.1649 -2.2102
    5MOL    H67 1435   1.453   4.274   7.108 -0.1703  0.9395 -1.8457
    5MOL    H68 1436   1.346   4.523   7.006  2.8844 -0.7279 -1.3044
    5MOL    H69 1437   1.330   4.355   6.940  0.9636  0.3789  0.1632
    5MOL    C70 1438   0.990   4.408   7.355  0.0485 -0.1601 -0.5526
    5MOL    C71 1439   1.034   4.537   7.425 -0.2269  0.5859  0.8022
    5MOL    N72 1440   1.011   4.660   7.344 -0.1529  0.4121  0.2005
    5MOL    C73 1441   1.126   4.733   7.294  0.1902 -0.3220 -0.0549
    5MOL    C74 1442   1.078   4.878   7.260 -0.0823  0.4772  0.2988
    5MOL    C75 1443   0.925   4.864   7.271  0.1622  0.0483  0.3017
    5MOL    C76 1444   0.899   4.733   7.340 -0.2494 -0.9222  0.7307
    5MOL    O77 1445   0.796   4.705   7.398 -0.2718 -0.3631  0.7336
    5MOL    H78 1446   0.928   4.341   7.415 -0.1595  0.3106 -0.2378
    5MOL    H79 1447   0.920   4.442   7.278 -0.7336  2.0086  1.0463
    5MOL    H80 1448   1.142   4.523   7.434  0.2557  2.5253 -1.2081
    5MOL    H81 1449   1.195   4.733   7.379  1.8362 -0.2495 -1.3750
    5MOL    H82 1450   1.177   4.672   7.221  0.8677 -0.1812  0.2923
    5MOL    H83 1451   1.112   4.945   7.339 -1.5139 -1.0830  2.2983
    5MOL    H84 1452   1.110   4.903   7.159 -0.7238 -1.4416 -0.3950
    5MOL    H85 1453   0.895   4.932   7.351 -0.2481 -1.9977  1.9386
    5MOL    H86 1454   0.873   4.871   7.176  1.6874 -2.8118 -0.8054
    5MOL    C87 1455   0.976   4.552   7.567 -0.4296  0.4158 -0.6722
    5MOL    C88 1456   1.053   4.467   7.674  0.8843  0.3332 -0.8031
    5MOL    N89 1457   1.186   4.521   7.701  0.3800  0.8062 -0.3488
    5MOL    C90 1458   1.202   4.651   7.758  0.2473  0.9430  0.7204
    5MOL    C91 1459   1.346   4.677   7.722 -0.1129  0.2148 -0.2428
    5MOL    C92 1460   1.419   4.541   7.699  0.1637 -0.4273  0.7688
    5MOL    C93 1461   1.304   4.458   7.671  0.2284  0.5827  0.5603
    5MOL    O94 1462   1.317   4.349   7.615 -0.1862 -0.2673  0.3239
    5MOL    H95 1463   0.876   4.510   7.572 -0.6478  0.9301 -0.6749
    5MOL    H96 1464   0.964   4.654   7.604 -0.2299 -0.3487  1.5910
    5MOL    H97 1465   1.054   4.365   7.635  1.2755  0.4269 -1.0426
    5MOL    H98 1466   1.133   4.731   7.730 -0.2758  0.4388  0.5654
    5MOL    H99 1467   1.199   4.645   7.866  0.0398 -0.8530  0.6310
    5MOL   H100 1468   1.347   4.732   7.627  0.3652  0.8526  0.1268
    5MOL   H101 1469   1.402   4.744   7.788  0.4909 -0.0009 -0.5335
    5MOL   H102 1470   1.490   4.540   7.616 -0.8143 -1.9313 -0.0761
    5MOL   H103 1471   1.465   4.504   7.790  0.5917  0.0607  0.7513
    5MOL   C104 1472   0.979   4.453   7.810  0.4450 -0.4372  0.7153
    5MOL   C105 1473   0.842   4.386   7.822  0.2716 -0.2753  0.6296
    5MOL   N106 1474   0.816   4.275   7.728 -0.3398  0.0185 -0.0480
    5MOL   C107 1475   0.700   4.277   7.642  0.3855  0.1179 -0.2680
    5MOL   C108 1476   0.694   4.134   7.588  0.2433 -0.3410 -0.4177
    5MOL   C109 1477   0.822   4.065   7.630  0.4409 -0.1125  0.2822
    5MOL   C110 1478   0.892   4.164   7.720 -0.6478 -0.1660  0.2413
    5MOL   O111 1479   0.992   4.127   7.787  0.3055  0.1570  0.2591
    5MOL   H112 1480   0.974   4.550   7.860 -2.8976 -0.4460  0.5268
    5MOL   H113 1481   1.031   4.382   7.874 -0.3528 -1.1964  0.5277
    5MOL   H114 1482   0.775   4.464   7.785  0.3468  0.1664  1.4250
    5MOL   H115 1483   0.601   4.287   7.686  0.2455 -2.6600  0.1532
    5MOL   H116 1484   0.715   4.346   7.558  1.7901 -2.0473 -1.8520
    5MOL   H117 1485   0.607   4.074   7.617  0.6756 -0.1765  1.2297
    5MOL   H118 1486   0.680   4.163   7.484  0.6541  0.5940 -0.2132
    5MOL   H119 1487   0.883   4.038   7.544 -2.1280 -0.7035 -1.4221
    5MOL   H120 1488   0.799   3.974   7.685  0.2768  0.5024  1.2361
    5MOL   C121 1489   0.803   4.347   0.058 -0.2158  0.1232 -0.8239
    5MOL   C122 1490   0.651   4.311   0.083  0.1025  0.3297  0.0331
    5MOL   N123 1491   0.632   4.231   0.206  0.7440  0.1758  0.0573
    5MOL   C124 1492   0.577   4.092   0.195  0.5927  0.0743  0.5720
    5MOL   C125 1493   0.558   4.044   0.340  0.0024 -0.3647 -0.1398
    5MOL   C126 1494   0.655   4.139   0.418  0.1080 -0.0184 -0.4927
    5MOL   C127 1495   0.665   4.260   0.332  0.2309 -0.0521 -0.0213
    5MOL   O128 1496   0.713   4.365   0.374  0.4586 -0.4245  0.0479
    5MOL   H129 1497   0.827   4.430   0.124  2.2428 -0.5684 -0.8110
    5MOL   H130 1498   0.866   4.262   0.085  0.1456  0.8110  0.5760
    5MOL   H131 1499   0.607   4.264   7.901 -0.6693  0.9938  0.0635
    5MOL   H132 1500   0.662   4.045   0.145  0.3465  0.3024 -0.0685
    5MOL   H133 1501   0.488   4.077   0.134  0.8961  0.0007  0.1414
    5MOL   H134 1502   0.459   4.074   0.373  0.3258 -1.0670  1.5331
    5MOL   H135 1503   0.571   3.936   0.348  0.6167 -0.2381  0.6964
    5MOL   H136 1504   0.605   4.167   0.511  2.1540  2.0516  0.0246
    5MOL   H137 1505   0.756   4.099   0.431  0.1276  0.6194  1.5042
    5MOL   C138 1506   0.571   4.442   0.087 -0.2836  0.4341 -0.0564
    5MOL   C139 1507   0.422   4.445   0.128  0.0920 -0.0633  0.4405
    5MOL   N140 1508   0.389   4.585   0.150 -0.9078 -0.6633  0.4505
    5MOL   C141 1509   0.406   4.636   0.286 -0.3268  0.6065 -0.4096
    5MOL   C142 1510   0.401   4.795   0.262 -0.6151 -0.4656 -0.2389
    5MOL   C143 1511   0.359   4.820   0.119  0.3297 -0.5568 -0.2564
    5MOL   C144 1512   0.361   4.680   0.059 -0.0478 -0.0219  0.3142
    5MOL   O145 1513   0.340   4.659   7.846 -0.0080 -0.0627  0.2415
    5MOL   H146 1514   0.589   4.503   7.904  0.0572 -1.2576 -1.1900
    5MOL   H147 1515   0.607   4.501   0.170 -1.1673 -0.3796  0.9282
    5MOL   H148 1516   0.412   4.386   0.219 -1.3627  0.3945  0.5845
    5MOL   H149 1517   0.338   4.597   0.362 -0.3597  1.0515 -0.2090
    5MOL   H150 1518   0.507   4.613   0.320  0.1472  1.2062 -1.3936
    5MOL   H151 1519   0.332   4.838   0.335  0.0290  1.2847 -0.6498
    5MOL   H152 1520   0.495   4.850   0.268 -1.1207  0.2238  1.5992
    5MOL   H153 1521   0.415   4.894   0.061 -1.6302  1.0849 -0.1036
    5MOL   H154 1522   0.251   4.829   0.107  0.1192 -2.6447 -0.0131
    5MOL   C155 1523   0.328   4.364   0.029 -0.3461  0.1444  0.0260
    5MOL   C156 1524   0.182   4.346   0.076  0.4538  0.3690  0.4830
    5MOL   N157 1525   0.079   4.347   7.870 -0.1072 -0.8109 -0.3058
    5MOL   C158 1526   7.884   4.461   7.856 -0.1936  0.9836  0.2362
    5MOL   C159 1527   7.822   4.441   7.714  0.1053  0.2881 -0.2921
    5MOL   C160 1528   7.868   4.303   7.669  0.5942 -0.5296  0.3277
    5MOL   C161 1529   0.067   4.263   7.765  0.0107  0.4031  0.6570
    5MOL   O162 1530   0.141   4.161   7.750 -0.3335 -0.2667 -0.8635
    5MOL   H163 1531   0.365   4.262   0.017 -0.4688  0.1213 -0.1493
    5MOL   H164 1532   0.345   4.415   7.840  2.2416  0.8076  0.8048
    5MOL   H165 1533   0.154   4.435   0.132  1.6060  1.1512 -0.1549
    5MOL   H166 1534   7.818   4.462   0.037 -1.4797 -0.6099 -0.7042
    5MOL   H167 1535   0.034   4.555   7.861  1.0913  0.1576  2.1606
    5MOL   H168 1536   7.714   4.448   7.698  0.2110  1.6438 -0.4860
    5MOL   H169 1537   7.865   4.507   7.639 -1.7367  1.2507 -0.5366
    5MOL   H170 1538   7.779   4.242   7.677  0.8281 -0.9132 -0.0184
    5MOL   H171 1539   7.897   4.311   7.565 -1.3223  0.1112 -0.1656
    5MOL   C172 1540   0.158   4.214   0.158  0.4971  0.4958 -0.7112
    5MOL   C173 1541   0.028   4.203   0.245  0.2648 -0.0995  0.2934
    5MOL   N174 1542   7.892   4.066   0.268  0.1115 -0.3719  0.1451
    5MOL   C175 1543   7.751   4.038   0.258 -0.1840 -0.5825 -0.2687
    5MOL   C176 1544   7.739   3.885   0.296  0.3236 -0.6696  0.1831
    5MOL   C177 1545   7.888   3.851   0.333 -0.1183  0.2064  1.0074
    5MOL   C178 1546   0.062   3.973   0.328  0.0406  0.2309 -0.8603
    5MOL   O179 1547   0.182   3.978   0.364 -0.0157  0.3733 -0.0239
    5MOL   H180 1548   0.245   4.210   0.224  0.4848  1.0693 -0.6566
    5MOL   H181 1549   0.165   4.126   0.094  0.3550 -1.1958  1.5583
    5MOL   H182 1550   7.843   4.239   0.197  0.7104  1.7790  0.8167
    5MOL   H183 1551   7.691   4.096   0.328  0.7244 -0.0947  0.1116
    5MOL   H184 1552   7.706   4.063   0.162  0.2076  0.0029 -0.3068
    5MOL   H185 1553   7.697   3.819   0.219 -0.3653 -1.3858  1.1625
    5MOL   H186 1554   7.664   3.877   0.375 -1.7741  2.2853 -1.3928
    5MOL   H187 1555   7.894   3.808   0.433  1.2740  0.4340  1.0325
    5MOL   H188 1556   0.030   3.786   0.260 -1.2123  1.0126 -0.4500
    5MOL   C189 1557   0.049   4.277   0.387  0.2593 -0.7859  0.6224
    5MOL   C190 1558   0.047   4.431   0.406  0.2734 -0.0912 -0.4010
    5MOL   N191 1559   7.850   4.510   0.338 -0.4924 -0.2419  0.5630
    5MOL   C192 1560   7.879   4.637   0.274  0.1183  0.7189 -0.3634
    5MOL   C193 1561   7.740   4.702   0.243 -0.1422  0.3143  0.8116
    5MOL   C194 1562   7.636   4.608   0.290 -0.1030  0.2339  0.3809
    5MOL   C195 1563   7.719   4.492   0.335 -0.8260 -0.2783  0.2301
    5MOL   O196 1564   7.663   4.396   0.378 -0.3020 -0.1210  0.0716
    5MOL   H197 1565   0.140   4.225   0.418  0.4437  0.6715  2.6027
    5MOL   H198 1566   7.867   4.235   0.437 -0.9854  1.9888  0.8721
    5MOL   H199 1567   0.146   4.469   0.381 -1.1598  2.4119 -2.5378
    5MOL   H200 1568   0.030   4.700   0.342  0.1563  2.4369 -1.9537
    5MOL   H201 1569   0.034   4.627   0.184  1.0951  1.7892  0.1637
    5MOL   H202 1570   7.739   4.801   0.288  0.5088  0.9019 -0.4294
    5MOL   H203 1571   7.732   4.712   0.135 -0.5061 -0.9740  0.7131
    5MOL   H204 1572   7.581   4.651   0.373  0.6143 -1.7762  1.9492
    5MOL   H205 1573   7.568   4.575   0.211  0.5128  0.6488 -0.3314
    5MOL   C206 1574   0.032   4.454   0.563  0.0333  0.1577  0.2754
    5MOL   C207 1575   0.124   4.378   0.664 -0.3810  0.1880 -0.2241
    5MOL   N208 1576   0.267   4.419   0.671 -0.0750 -0.6146 -0.2210
    5MOL   C209 1577   0.366   4.339   0.611  0.0206  0.6747 -0.0318
    5MOL   C210 1578   0.487   4.426   0.629 -0.5067 -0.4779  0.4172
    5MOL   C211 1579   0.455   4.543   0.713  0.9914  0.0647  0.3339
    5MOL   C212 1580   0.307   4.538   0.714  0.4630 -0.7199  0.8650
    5MOL   O213 1581   0.234   4.631   0.760 -0.3752 -0.2800 -0.0611
    5MOL   H214 1582   7.835   4.424   0.584  0.3623 -1.2461 -0.0832
    5MOL   H215 1583   0.042   4.561   0.581  1.4344 -0.0585  0.8323
    5MOL   H216 1584   0.136   4.275   0.630  3.6266  0.3366  0.5245
    5MOL   H217 1585   0.361   4.243   0.661  0.4262  0.8252  0.3069
    5MOL   H218 1586   0.360   4.334   0.502  0.2303  0.3704 -0.0292
    5MOL   H219 1587   0.549   4.366   0.695  1.0700  1.9193  1.1705
    5MOL   H220 1588   0.538   4.453   0.536  0.2664 -0.7512  0.7531
    5MOL   H221 1589   0.483   4.529   0.818  0.3068  0.5772  0.5861
    5MOL   H222 1590   0.479   4.644   0.682  0.4405  0.3943  0.9681
    5MOL   C223 1591   0.061   4.372   0.806 -0.3373 -0.4885  0.3200
    5MOL   C224 1592   7.843   4.289   0.824 -0.9452  0.4677  0.1365
    5MOL   N225 1593   7.878   4.142   0.818  0.2783 -0.2368 -0.7544
    5MOL   C226 1594   7.860   4.068   0.700  0.0337  0.2478 -0.1188
    5MOL   C227 1595   7.893   3.916   0.734  0.2090  0.0589 -0.3980
    5MOL   C228 1596   0.051   3.915   0.872  0.2396 -0.6194 -0.5676
    5MOL   C229 1597   0.035   4.063   0.912  0.5744 -0.1598 -0.0173
    5MOL   O230 1598   0.077   4.099   1.022  0.1543 -0.6322 -0.2961
    5MOL   H231 1599   0.055   4.472   0.849 -0.8878  0.9142 -2.8991
    5MOL   H232 1600   0.134   4.333   0.877 -0.3719  2.3380  2.0024
    5MOL   H233 1601   7.765   4.304   0.749 -0.4303  0.3069 -0.4369
    5MOL   H234 1602   7.756   4.076   0.666  0.2823 -2.3000 -1.5538
    5MOL   H235 1603   0.022   4.100   0.622 -0.0848 -2.5809 -1.4388
    5MOL   H236 1604   7.802   3.857   0.726  0.0552  0.4594 -1.7564
    5MOL   H237 1605   0.055   3.872   0.661 -1.7060 -3.6796 -0.0638
    5MOL   H238 1606   0.006   3.841   0.939  1.1221 -1.4506 -0.8936
    5MOL   H239 1607   0.159   3.907   0.862  0.4814  1.5075  0.1832
    5MOL   C240 1608   7.767   4.326   0.954  0.1316 -0.0707 -0.7647
    5MOL   C241 1609   7.711   4.478   0.976  0.3688 -0.3682 -0.0499
    5MOL   N242 1610   7.652   4.528   0.860  0.1650 -0.4024  0.3006
    5MOL   C243 1611   7.700   4.654   0.798 -0.3452  0.1121 -0.0273
    5MOL   C244 1612   7.622   4.682   0.663  0.7873  0.2728 -0.0238
    5MOL   C245 1613   7.523   4.562   0.662 -0.1461 -0.5688 -0.1182
    5MOL   C246 1614   7.552   4.476   0.788  0.2712 -0.0982  0.0618
    5MOL   O247 1615   7.482   4.373   0.813 -0.4425 -0.1594  0.2344
    5MOL   H248 1616   7.827   4.305   1.042 -0.2243 -2.0213 -0.9629
    5MOL   H249 1617   7.681   4.260   0.969  0.7819 -0.9997 -1.0836
    5MOL   H250 1618   7.795   4.543   1.000 -0.3586  0.2218  0.8958
    5MOL   H251 1619   7.696   4.742   0.863  2.3071  1.5020 -1.6392
    5MOL   H252 1620   7.805   4.648   0.771 -0.5319  2.2831 -1.3668
    5MOL   H253 1621   7.566   4.774   0.678  0.1168 -0.1300  0.0150
    5MOL   H254 1622   7.673   4.688   0.568 -2.2564  2.3268 -1.6007
    5MOL   H255 1623   7.420   4.598   0.667  0.2039  0.1423  2.6111
    5MOL   H256 1624   7.550   4.501   0.576 -0.2998 -0.4080 -0.2824
    5MOL   C257 1625   7.599   4.487   1.092 -0.9039 -0.3996 -0.2106
    5MOL   C258 1626   7.635   4.439   1.235 -0.3292 -0.6361 -0.4349
    5MOL   N259 1627   7.551   4.526   1.326 -0.1553 -0.6589  0.1914
    5MOL   C260 1628   7.612   4.634   1.401  0.1882 -0.6478 -0.5822
    5MOL   C261 1629   7.501   4.686   1.504 -0.6731 -0.1254  0.3237
    5MOL   C262 1630   7.372   4.630   1.446  0.2654 -0.1875  0.0059
    5MOL   C263 1631   7.417   4.523   1.348  0.6806 -0.7819  0.2626
    5MOL   O264 1632   7.340   4.447   1.290 -0.1136  0.4287  0.1249
    5MOL   H265 1633   7.515   4.424   1.061 -1.9767  0.6548  0.5188
    5MOL   H266 1634   7.562   4.589   1.098  1.2722  0.3198  1.3752
    5MOL   H267 1635   7.738   4.470   1.251  0.1492 -3.1301  1.6905
    5MOL   H268 1636   7.699   4.596   1.454  0.0513 -0.7843 -0.4528
    5MOL   H269 1637   7.624   4.698   1.314 -1.6193 -1.1943 -1.2755
    5MOL   H270 1638   7.522   4.658   1.607 -1.6627  1.3349  0.9358
    5MOL   H271 1639   7.512   4.795   1.503 -1.0909 -0.0780 -2.8293
    5MOL   H272 1640   7.307   4.597   1.527  0.9147  2.1062  1.5037
    5MOL   H273 1641   7.313   4.697   1.384 -3.1731 -0.9856  2.2628
    5MOL   C274 1642   7.624   4.289   1.268 -0.1297  0.3706  0.5991
    5MOL   C275 1643   7.659   4.250   1.407  0.1935  0.2556  0.4046
    5MOL   N276 1644   7.540   4.241   1.496 -0.2249 -1.0777  0.1650
    5MOL   C277 1645   7.540   4.322   1.620  0.0883 -0.5115  0.2065
    5MOL   C278 1646   7.404   4.292   1.681 -0.4131 -0.2001  0.2493
    5MOL   C279 1647   7.341   4.177   1.596  0.5193  0.2261 -0.8587
    5MOL   C280 1648   7.437   4.157   1.485  0.0898  0.0448 -0.3543
    5MOL   O281 1649   7.423   4.076   1.397  0.4140 -0.4847  0.1754
    5MOL   H282 1650   7.697   4.227   1.216 -1.8430 -1.9016  0.7873
    5MOL   H283 1651   7.528   4.253   1.229  0.6250  0.5020 -1.4664
    5MOL   H284 1652   7.730   4.324   1.444 -0.4384  1.0428  0.0335
    5MOL   H285 1653   7.626   4.306   1.685 -0.1187  0.2828  0.6828
    5MOL   H286 1654   7.544   4.428   1.592  1.5533 -0.4005  0.7951
    5MOL   H287 1655   7.411   4.267   1.787 -0.2830  1.3643  0.6217
    5MOL   H288 1656   7.351   4.387   1.678  0.8051  0.5633  1.8464
    5MOL   H289 1657   7.345   4.086   1.655  1.8011  0.5806 -0.3820
    5MOL   H290 1658   7.241   4.204   1.560  0.5226  0.2310 -0.8646
    5MOL   C291 1659   7.737   4.123   1.426  0.0629  0.2238  0.4861
    5MOL   C292 1660   7.880   4.110   1.366 -0.0231 -0.4569  1.5012
    5MOL   N293 1661   0.054   4.231   1.394 -0.7122  0.6811 -0.0723
    5MOL   C294 1662   0.134   4.288   1.284 -0.3660 -0.1140 -0.1444
    5MOL   C295 1663   0.234   4.392   1.346  0.2650  0.2358  0.0967
    5MOL   C296 1664   0.194   4.391   1.496  0.0998  0.4243  0.8396
    5MOL   C297 1665   0.085   4.280   1.515  0.1544  0.0818  0.0196
    5MOL   O298 1666   0.023   4.265   1.625 -0.4866 -0.1442 -0.4759
    5MOL   H299 1667   7.675   4.040   1.393 -0.0255  0.5575 -0.2053
    5MOL   H300 1668   7.745   4.110   1.534  0.0981  0.5943  0.5293
    5MOL   H301 1669   7.866   4.102   1.258 -0.0725  1.5850  1.3206
    5MOL   H302 1670   0.184   4.215   1.220 -0.7558  0.2398 -0.8623
    5MOL   H303 1671   0.061   4.336   1.219  0.0913  0.4707 -0.2266
    5MOL   H304 1672   0.334   4.352   1.333  0.1343 -0.3013  0.7174
    5MOL   H305 1673   0.224   4.478   1.279 -3.2742 -0.4046 -0.3079
    5MOL   H306 1674   0.283   4.364   1.553  0.8011  1.3591  0.2251
    5MOL   H307 1675   0.152   4.481   1.541 -0.3015 -0.3325  2.0132
    5MOL   C308 1676   0.053   3.977   1.414  0.0289  0.2944  0.3433
    5MOL   C309 1677   0.048   3.860   1.314 -0.0931 -0.6819  0.5807
    5MOL   N310 1678   0.151   3.759   1.343  0.1616 -0.2127 -0.7906
    5MOL   C311 1679   0.215   3.695   1.231  0.6079  0.2695  0.1226
    5MOL   C312 1680   0.319   3.601   1.293 -0.4107  0.6027 -0.0960
    5MOL   C313 1681   0.333   3.639   1.436 -0.4561 -0.1762 -0.2408
    5MOL   C314 1682   0.219   3.735   1.460 -0.7757 -0.2947  0.1359
    5MOL   O315 1683   0.190   3.778   1.575  0.4356 -0.0873 -0.3692
    5MOL   H316 1684   0.003   3.947   1.506 -2.6750 -0.1178 -1.1978
    5MOL   H317 1685   0.157   4.007   1.426  0.7193 -2.0679  0.3437
    5MOL   H318 1686   0.081   3.896   1.216 -0.5881  0.3488  0.7903
    5MOL   H319 1687   0.140   3.632   1.181 -0.1561  2.1681 -1.1746
    5MOL   H320 1688   0.257   3.769   1.164 -2.6697  1.3794 -0.7949
    5MOL   H321 1689   0.270   3.504   1.285  0.9261  0.0525 -1.9963
    5MOL   H322 1690   0.415   3.611   1.241  1.9627  0.5051  4.0186
    5MOL   H323 1691   0.310   3.551   1.497 -0.1597 -2.3526 -3.1627
    5MOL   H324 1692   0.423   3.682   1.479 -0.2785 -2.2652  1.6111
    5MOL   C325 1693   7.816   3.791   1.314 -0.0267 -0.1733 -0.0540
    5MOL   C326 1694   7.793   3.669   1.220  0.2820 -0.4769 -0.3080
    5MOL   N327 1695   7.652   3.635   1.216  0.0109 -1.0550 -0.5176
    5MOL   C328 1696   7.571   3.619   1.097 -0.2377  0.2098 -0.6009
    5MOL   C329 1697   7.428   3.572   1.135  0.3595  0.8073 -0.0469
    5MOL   C330 1698   7.437   3.540   1.277  0.3295 -0.7100  0.1233
    5MOL   C331 1699   7.579   3.580   1.321  0.2144  0.2124  0.2205
    5MOL   O332 1700   7.618   3.575   1.440  0.0859  0.9162  0.5031
    5MOL   H333 1701   7.751   3.872   1.282  0.9881  0.4387 -0.6053
    5MOL   H334 1702   7.785   3.763   1.414 -0.8003 -1.0901 -0.5403
    5MOL   H335 1703   7.858   3.588   1.253  1.8698  1.0830  0.4720
    5MOL   H336 1704   7.561   3.712   1.042 -1.1245 -0.2204 -1.1797
    5MOL   H337 1705   7.610   3.549   1.023 -1.1608 -1.0070  0.0430
    5MOL   H338 1706   7.357   3.654   1.124 -0.6951 -0.1367 -0.3656
    5MOL   H339 1707   7.397   3.483   1.081  0.7513  0.7774 -0.2229
    5MOL   H340 1708   7.362   3.577   1.347  0.4994  0.7001 -0.4269
    5MOL   H341 1709   7.432   3.433   1.298  1.0420 -0.8412 -0.3682
    5MOL   H342 1710   7.835   3.694   1.122  0.4277  1.1985  0.1782
    6MOL     C1 1711   5.204   7.233   1.885  0.2926 -1.4126  0.2596
    6MOL     C2 1712   5.193   7.327   2.012 -0.2951  0.3003 -0.3653
    6MOL     N3 1713   5.060   7.309   2.079  0.7925  0.1330 -0.3016
    6MOL     C4 1714   4.962   7.416   2.097 -0.0986  0.1811 -0.0114
    6MOL     C5 1715   4.825   7.354   2.144  0.1344 -0.4654  0.1118
    6MOL     C6 1716   4.852   7.203   2.135  0.3046 -0.6306 -0.1022
    6MOL     C7 1717   4.999   7.190   2.109 -0.1583 -0.3455 -0.4117
    6MOL     O8 1718   5.060   7.083   2.114  0.1586 -0.2048 -0.5500
    6MOL     H9 1719   5.193   7.126   1.901 -0.3205 -1.4278 -0.2344
    6MOL    H10 1720   5.120   7.263   1.822 -0.9804  0.5058  2.7568
    6MOL    H11 1721   5.184   7.427   1.971 -1.6027  0.0247 -0.7680
    6MOL    H12 1722   4.992   7.485   2.175 -1.1758  2.9105 -1.9520
    6MOL    H13 1723   4.940   7.472   2.006 -2.4066 -2.4926 -1.1915
    6MOL    H14 1724   4.797   7.391   2.243  1.4037 -4.6485  2.1629
    6MOL    H15 1725   4.742   7.378   2.078 -1.8992  0.6331  2.9629
    6MOL    H16 1726   4.819   7.156   2.227  0.9325  0.7598  0.8533
    6MOL    H17 1727   4.797   7.162   2.051 -0.2407 -1.1498  0.5036
    6MOL    H18 1728   5.292   7.243   1.822  0.3176 -1.5667  0.2724
    6MOL    C19 1729   5.310   7.310   2.104 -0.5723 -0.0648 -0.3308
    6MOL    C20 1730   5.321   7.417   2.210  0.2422  0.1561  0.3376
    6MOL    N21 1731   5.402   7.373   2.322  0.1085  0.4251 -0.2424
    6MOL    C22 1732   5.342   7.359   2.451  0.3815  0.1271 -0.5427
    6MOL    C23 1733   5.446   7.303   2.543 -0.1240 -0.1354  0.6477
    6MOL    C24 1734   5.567   7.253   2.455 -0.1538  0.4335 -0.1272
    6MOL    C25 1735   5.527   7.318   2.321 -0.1438 -0.0702  0.8979
    6MOL    O26 1736   5.600   7.316   2.221  0.5181 -0.8251 -0.7387
    6MOL    H27 1737   5.405   7.298   2.051 -1.6467 -0.5007 -2.1825
    6MOL    H28 1738   5.299   7.213   2.154  1.8942  0.1106  0.6343
    6MOL    H29 1739   5.219   7.440   2.239 -0.8655 -1.8139 -1.8485
    6MOL    H30 1740   5.307   7.458   2.481  0.2617  0.4973 -1.8942
    6MOL    H31 1741   5.252   7.299   2.441  0.1908  0.5901 -1.7179
    6MOL    H32 1742   5.495   7.375   2.608  2.3876  1.1261 -2.4914
    6MOL    H33 1743   5.397   7.223   2.599 -1.5315  1.6932  2.0608
    6MOL    H34 1744   5.664   7.296   2.479  0.2364 -1.5987  2.1467
    6MOL    H35 1745   5.584   7.146   2.454  0.1300  0.4664  0.6414
    6MOL    C36 1746   5.363   7.555   2.140 -0.4750  0.2223  0.2642
    6MOL    C37 1747   5.423   7.667   2.226 -0.0490  0.3108 -0.1088
    6MOL    N38 1748   5.484   7.767   2.134  0.2370  0.2650 -0.5902
    6MOL    C39 1749   5.624   7.751   2.104 -0.8471  0.1096 -0.2904
    6MOL    C40 1750   5.661   7.874   2.024 -0.4480 -0.5443  0.5820
    6MOL    C41 1751   5.532   0.032   1.976 -0.2179  0.1967  0.4231
    6MOL    C42 1752   5.424   7.865   2.054  0.1486  0.8094 -0.2374
    6MOL    O43 1753   5.303   7.892   2.041 -0.1635  0.4003 -0.0124
    6MOL    H44 1754   5.279   7.605   2.092  1.0767  1.6397 -1.0785
    6MOL    H45 1755   5.434   7.538   2.058  0.6188  0.3894  1.1724
    6MOL    H46 1756   5.507   7.632   2.286  0.0495 -2.9414 -2.0569
    6MOL    H47 1757   5.691   7.764   2.189 -1.4496  0.8132  0.0831
    6MOL    H48 1758   5.656   7.654   2.066  0.3163 -0.3851  1.8478
    6MOL    H49 1759   5.714   0.046   2.080 -2.6845  1.4857 -0.0480
    6MOL    H50 1760   5.724   7.837   1.943 -0.7209 -2.2726  1.1467
    6MOL    H51 1761   5.527   0.138   2.003  1.7771  0.6269 -0.7086
    6MOL    H52 1762   5.511   0.029   1.869 -0.5424  1.2221  0.4460
    6MOL    C53 1763   5.309   7.723   2.315 -0.3815  0.0991  0.3619
    6MOL    C54 1764   5.363   7.815   2.429 -0.5182  0.6399  0.1042
    6MOL    N55 1765   5.277   0.033   2.457  1.0148 -0.0389 -0.3130
    6MOL    C56 1766   5.328   0.169   2.433 -0.1909 -0.4853  0.1532
    6MOL    C57 1767   5.200   0.265   2.441 -0.0845 -0.3353 -0.1168
    6MOL    C58 1768   5.081   0.176   2.490  0.1276 -0.0386 -0.1497
    6MOL    C59 1769   5.141   0.031   2.493 -0.2231 -0.0529  0.7297
    6MOL    O60 1770   5.072   7.841   2.520 -0.2747 -0.1896  0.4183
    6MOL    H61 1771   5.262   7.637   2.364  3.4150 -1.5786  1.2656
    6MOL    H62 1772   5.225   7.767   2.261  0.4026 -0.3863 -1.2661
    6MOL    H63 1773   5.456   7.852   2.388  0.3173  0.4821  1.7981
    6MOL    H64 1774   5.395   0.198   2.513  0.1404 -3.2826  0.9546
    6MOL    H65 1775   5.378   0.179   2.336  0.8857  0.2616  0.7848
    6MOL    H66 1776   5.221   0.354   2.500  2.6010 -2.0028  1.5325
    6MOL    H67 1777   5.170   0.292   2.340 -0.1377  1.4359  0.3688
    6MOL    H68 1778   5.057   0.213   2.589  3.9512 -2.8266  1.9047
    6MOL    H69 1779   4.987   0.183   2.434  0.3689  3.0190 -0.2692
    6MOL    C70 1780   5.396   7.744   2.558 -0.1373  0.2638 -0.3143
    6MOL    C71 1781   5.468   7.824   2.670  0.5648 -0.5710  0.2981
    6MOL    N72 1782   5.457   7.761   2.805  0.1451  0.4646  0.0018
    6MOL    C73 1783   5.372   7.837   2.895  0.6439  0.8604 -0.0044
    6MOL    C74 1784   5.397   7.770   3.033 -0.9806 -0.3705  0.5917
    6MOL    C75 1785   5.489   7.653   3.006 -0.1802 -0.1909  0.1327
    6MOL    C76 1786   5.520   7.657   2.863 -0.0220 -0.0288 -0.2228
    6MOL    O77 1787   5.596   7.580   2.808 -0.0652  0.3343 -0.5983
    6MOL    H78 1788   5.450   7.650   2.549  2.7267  1.8254  0.1348
    6MOL    H79 1789   5.302   7.717   2.606 -0.3443 -0.9050 -1.3498
    6MOL    H80 1790   5.415   0.013   2.675 -0.4453 -1.0917 -0.3886
    6MOL    H81 1791   5.403   0.035   2.901  1.2260  0.7026 -0.2125
    6MOL    H82 1792   5.265   7.832   2.873  0.8399 -1.2006 -0.6307
    6MOL    H83 1793   5.428   7.843   3.108  0.8362 -2.3536  1.7980
    6MOL    H84 1794   5.303   7.744   3.081 -1.8528  0.2166 -0.7373
    6MOL    H85 1795   5.583   7.656   3.061 -0.4328 -1.5323  0.6744
    6MOL    H86 1796   5.443   7.558   3.033  2.7920 -1.3219  1.4417
    6MOL    C87 1797   5.619   7.847   2.627 -0.5129  0.2141 -0.4340
    6MOL    C88 1798   5.691   0.041   2.723 -0.2809 -0.4964 -0.3445
    6MOL    N89 1799   5.839   0.015   2.709 -0.1753 -0.5525 -0.7633
    6MOL    C90 1800   5.903   7.857   2.818  0.0373 -0.1222  0.7697
    6MOL    C91 1801   6.052   7.868   2.783  0.9968  0.5539  1.1647
    6MOL    C92 1802   6.062   7.898   2.628  0.6431 -0.0506 -0.0966
    6MOL    C93 1803   5.921   0.035   2.597  0.7842 -0.4319 -0.3134
    6MOL    O94 1804   5.886   0.070   2.484  0.0333  0.0958 -0.0305
    6MOL    H95 1805   5.627   7.880   2.523  0.9073  1.5038  0.0669
    6MOL    H96 1806   5.671   7.752   2.618  1.9199  1.4965 -0.4937
    6MOL    H97 1807   5.664   0.009   2.823  0.2294  2.3762  0.7393
    6MOL    H98 1808   5.863   0.004   2.904 -3.0069  0.4531 -0.9408
    6MOL    H99 1809   5.866   7.754   2.825  0.9768 -0.7409 -2.5135
    6MOL   H100 1810   6.088   0.052   2.833 -1.1526  2.7831 -1.1350
    6MOL   H101 1811   6.108   7.779   2.810  1.4393 -0.4022 -2.6038
    6MOL   H102 1812   6.135   0.066   2.595 -1.2887  2.4629  1.0525
    6MOL   H103 1813   6.073   7.803   2.577 -1.2362  0.2463 -1.1105
    6MOL   C104 1814   5.645   0.184   2.689 -0.2981 -0.2022 -0.0045
    6MOL   C105 1815   5.691   0.288   2.786  0.3773 -0.2926 -0.6743
    6MOL   N106 1816   5.659   0.422   2.738  0.4438  0.0969  0.3906
    6MOL   C107 1817   5.757   0.521   2.738  0.1140  0.1420  1.0690
    6MOL   C108 1818   5.680   0.649   2.766  0.0804  0.1167 -0.1602
    6MOL   C109 1819   5.545   0.626   2.699  0.3371 -0.3630  0.1147
    6MOL   C110 1820   5.529   0.476   2.713 -0.1805  0.5929 -0.6445
    6MOL   O111 1821   5.424   0.421   2.709 -0.4460 -0.4225  0.1634
    6MOL   H112 1822   5.536   0.192   2.690 -0.2646  0.2732 -0.1031
    6MOL   H113 1823   5.679   0.203   2.587  1.6432  1.1761  0.8815
    6MOL   H114 1824   5.800   0.278   2.793  0.3911  1.4557  2.3380
    6MOL   H115 1825   5.835   0.506   2.812 -1.0396 -0.3203  2.2004
    6MOL   H116 1826   5.816   0.526   2.646  2.5140  0.2803  2.5766
    6MOL   H117 1827   5.656   0.657   2.872  1.0660 -0.2233  0.0909
    6MOL   H118 1828   5.734   0.737   2.732 -0.1535 -0.6220 -2.5298
    6MOL   H119 1829   5.555   0.658   2.595  1.2251  1.2402  0.6770
    6MOL   H120 1830   5.466   0.691   2.734 -2.1248 -2.6071 -1.1261
    6MOL   C121 1831   5.623   0.255   2.924 -0.7774 -0.8663  0.1971
    6MOL   C122 1832   5.673   0.342   3.037  0.1193  0.1854 -0.0282
    6MOL   N123 1833   5.576   0.356   3.150 -0.3842 -0.1709  0.2132
    6MOL   C124 1834   5.483   0.466   3.151 -0.5579  0.4135 -0.8151
    6MOL   C125 1835   5.447   0.481   3.298  0.5440 -0.6046 -0.1091
    6MOL   C126 1836   5.501   0.356   3.364  0.2464 -0.3402 -1.0457
    6MOL   C127 1837   5.574   0.276   3.256  0.2711 -0.1073 -0.0716
    6MOL   O128 1838   5.628   0.168   3.271  0.0870 -0.2997  0.3613
    6MOL   H129 1839   5.621   0.151   2.955  3.3756 -0.1810  3.2158
    6MOL   H130 1840   5.519   0.285   2.913  0.1327  2.6967  0.5933
    6MOL   H131 1841   5.671   0.441   2.992 -2.2786  0.5062  0.6970
    6MOL   H132 1842   5.399   0.440   3.088 -1.1862 -0.6814  0.4400
    6MOL   H133 1843   5.528   0.556   3.110  0.6212  1.4506  2.5193
    6MOL   H134 1844   5.501   0.570   3.329 -0.6359  0.2882 -0.5777
    6MOL   H135 1845   5.339   0.489   3.309  0.5133  1.4440 -1.6292
    6MOL   H136 1846   5.581   0.376   3.435 -0.1842 -1.1607 -0.3214
    6MOL   H137 1847   5.436   0.296   3.428 -0.7170  0.4912 -1.2182
    6MOL   C138 1848   5.821   0.320   3.080 -0.2189  0.2931 -0.2054
    6MOL   C139 1849   5.885   0.437   3.166 -0.2333  0.0139  0.2082
    6MOL   N140 1850   6.016   0.395   3.206  0.0321  0.6149  0.7191
    6MOL   C141 1851   6.038   0.396   3.349 -0.1184 -0.3542  0.0429
    6MOL   C142 1852   6.167   0.311   3.366 -0.0452  0.6058  0.4927
    6MOL   C143 1853   6.231   0.305   3.225  0.1077 -0.1013 -0.8371
    6MOL   C144 1854   6.122   0.353   3.139  0.9703 -0.2673 -0.3916
    6MOL   O145 1855   6.136   0.352   3.017 -0.4361 -0.1525 -0.4167
    6MOL   H146 1856   5.888   0.293   2.999 -2.1588 -0.3227 -1.6258
    6MOL   H147 1857   5.823   0.228   3.138  1.2824  0.1050 -0.5415
    6MOL   H148 1858   5.826   0.450   3.257 -1.8814 -3.4558 -0.2718
    6MOL   H149 1859   6.057   0.500   3.373 -0.3705  0.0324 -1.3598
    6MOL   H150 1860   5.953   0.359   3.406 -0.9505  2.3181  0.5869
    6MOL   H151 1861   6.230   0.355   3.443 -1.4087 -0.5724  2.3027
    6MOL   H152 1862   6.143   0.205   3.377 -0.2365  0.3583 -1.8500
    6MOL   H153 1863   6.264   0.208   3.186 -2.8255 -0.3509 -2.8423
    6MOL   H154 1864   6.311   0.378   3.206  1.0143 -0.8079  0.2279
    6MOL   C155 1865   5.896   0.570   3.081 -0.2632  0.5314  0.0505
    6MOL   C156 1866   5.965   0.697   3.139  0.2011  0.4612 -0.2940
    6MOL   N157 1867   6.018   0.778   3.029 -0.1421 -0.1040 -0.5022
    6MOL   C158 1868   6.158   0.766   2.987 -0.1470  0.5069 -0.4644
    6MOL   C159 1869   6.166   0.838   2.855 -0.4048 -0.0353  0.0069
    6MOL   C160 1870   6.036   0.913   2.834 -0.1288  0.3167 -0.2694
    6MOL   C161 1871   5.942   0.844   2.936 -0.1762 -0.0425  0.5763
    6MOL   O162 1872   5.821   0.850   2.937  0.1841 -0.3050  0.3754
    6MOL   H163 1873   5.794   0.602   3.061  0.7169  3.0562 -1.0729
    6MOL   H164 1874   5.931   0.526   2.988  0.6816  0.0944  0.5979
    6MOL   H165 1875   6.052   0.665   3.195  1.5326  0.4313 -2.3296
    6MOL   H166 1876   6.231   0.815   3.051  0.5898  0.6524 -1.4001
    6MOL   H167 1877   6.188   0.661   2.984  0.1875  0.4680  2.5169
    6MOL   H168 1878   6.253   0.902   2.867 -1.6957  1.7777 -0.1067
    6MOL   H169 1879   6.173   0.758   2.781 -0.2181  0.1114 -0.1341
    6MOL   H170 1880   6.038   1.018   2.863  0.4467  0.2028  0.1299
    6MOL   H171 1881   6.008   0.906   2.729 -0.1554  1.5707 -0.3502
    6MOL   C172 1882   5.881   0.777   3.240  0.0091 -0.6342  0.1420
    6MOL   C173 1883   5.960   0.883   3.326  0.0834 -0.0486  0.8560
    6MOL   N174 1884   5.859   0.954   3.406 -0.4618  0.8324  0.8104
    6MOL   C175 1885   5.842   1.084   3.370 -0.4848 -0.3859 -0.1950
    6MOL   C176 1886   5.757   1.155   3.473 -0.2249  0.1869  0.2375
    6MOL   C177 1887   5.717   1.038   3.565 -0.0981 -0.1002 -0.2244
    6MOL   C178 1888   5.787   0.915   3.512  0.1278  0.2441  0.6735
    6MOL   O179 1889   5.792   0.806   3.565  0.2638  0.5661 -0.2648
    6MOL   H180 1890   5.835   0.708   3.311  0.7078 -0.0117  1.2241
    6MOL   H181 1891   5.804   0.825   3.180 -0.1225  0.4904  1.1790
    6MOL   H182 1892   6.001   0.960   3.261  0.8041  1.6097  3.2048
    6MOL   H183 1893   5.934   1.143   3.375  1.1995 -3.1361  3.8782
    6MOL   H184 1894   5.797   1.100   3.272  2.1659 -1.0972 -1.5835
    6MOL   H185 1895   5.673   1.213   3.435 -0.5437  0.1000  0.8016
    6MOL   H186 1896   5.819   1.210   3.544  2.4482 -0.1840 -1.7232
    6MOL   H187 1897   5.724   1.061   3.671  1.3439 -0.9343 -0.1270
    6MOL   H188 1898   5.611   1.024   3.543 -0.1330 -0.0841 -0.0643
    6MOL   C189 1899   6.078   0.823   3.401 -0.4447  0.7576  0.1539
    6MOL   C190 1900   6.159   0.925   3.487  0.1115 -0.0679  0.0703
    6MOL   N191 1901   6.242   0.859   3.594  0.6374  0.2671  0.2813
    6MOL   C192 1902   6.211   0.883   3.732 -0.3841  0.1437 -0.7529
    6MOL   C193 1903   6.305   0.794   3.808  0.4126 -0.8559 -0.1575
    6MOL   C194 1904   6.393   0.729   3.711  0.7362 -0.1333  0.6551
    6MOL   C195 1905   6.342   0.770   3.576 -0.3440 -0.4232 -0.5323
    6MOL   O196 1906   6.387   0.710   3.474  0.4031  0.2868  0.7372
    6MOL   H197 1907   6.147   0.776   3.330 -0.9766 -2.9220  1.9207
    6MOL   H198 1908   6.040   0.744   3.466  0.5442 -1.5404 -1.9687
    6MOL   H199 1909   6.084   0.989   3.532 -0.0340 -0.1144 -0.1052
    6MOL   H200 1910   6.217   0.987   3.765 -1.0049  0.0323 -0.2937
    6MOL   H201 1911   6.108   0.851   3.745  0.1750 -0.8417  1.3523
    6MOL   H202 1912   6.363   0.866   3.866 -0.2006 -0.0650 -0.5295
    6MOL   H203 1913   6.245   0.732   3.875  0.5860 -0.0858  0.7237
    6MOL   H204 1914   6.496   0.756   3.732  0.4706  3.3721 -2.0893
    6MOL   H205 1915   6.371   0.622   3.715 -0.6895  0.1483  0.7269
    6MOL   C206 1916   6.237   1.012   3.383  0.7067  0.3477 -0.2696
    6MOL   C207 1917   6.313   1.136   3.429 -0.0800  0.0727  0.6817
    6MOL   N208 1918   6.411   1.179   3.329 -0.1364  0.6317 -0.1480
    6MOL   C209 1919   6.552   1.204   3.368 -0.7903  0.2912 -0.2956
    6MOL   C210 1920   6.632   1.195   3.240 -0.1052 -1.1879  0.7038
    6MOL   C211 1921   6.526   1.207   3.128 -0.4014  0.4169 -0.1591
    6MOL   C212 1922   6.398   1.176   3.197 -0.4141  0.0872  0.0070
    6MOL   O213 1923   6.307   1.141   3.129 -0.0719 -0.7053 -0.1290
    6MOL   H214 1924   6.178   1.040   3.296 -0.5564 -1.6026 -0.0776
    6MOL   H215 1925   6.306   0.940   3.339  0.2763 -0.9916  1.2217
    6MOL   H216 1926   6.373   1.095   3.511  0.4144  1.3522  0.9845
    6MOL   H217 1927   6.567   1.303   3.412  1.6791 -0.2748  0.2436
    6MOL   H218 1928   6.579   1.130   3.444  0.2567  1.6320  0.6664
    6MOL   H219 1929   6.710   1.271   3.236 -0.3333 -0.9420  0.8843
    6MOL   H220 1930   6.681   1.098   3.232  0.8376 -0.6321 -0.2313
    6MOL   H221 1931   6.515   1.303   3.077 -2.7447  0.1975 -0.1446
    6MOL   H222 1932   6.574   1.136   3.061  1.6985  0.9949  0.6969
    6MOL   C223 1933   6.215   1.248   3.464  0.5437 -0.9146 -0.4893
    6MOL   C224 1934   6.281   1.338   3.567  0.5337  0.8933 -0.0048
    6MOL   N225 1935   6.237   1.478   3.549 -0.2194  0.1568 -0.0058
    6MOL   C226 1936   6.331   1.570   3.506 -0.9149 -0.2036  0.3663
    6MOL   C227 1937   6.257   1.699   3.488  0.4183  0.6081  0.7712
    6MOL   C228 1938   6.113   1.677   3.525  0.1687  0.0555  0.2022
    6MOL   C229 1939   6.127   1.542   3.589  0.2954 -0.0978 -0.1913
    6MOL   O230 1940   6.041   1.488   3.658  0.3378 -0.2721  0.5604
    6MOL   H231 1941   6.122   1.206   3.502  1.2413 -1.1613  0.9875
    6MOL   H232 1942   6.181   1.301   3.376 -2.3548 -2.3600 -0.2943
    6MOL   H233 1943   6.388   1.341   3.542  0.0809  0.0767 -2.1909
    6MOL   H234 1944   6.404   1.585   3.585 -0.2485  0.0848 -0.2994
    6MOL   H235 1945   6.394   1.535   3.424 -1.3567 -1.1604  0.4172
    6MOL   H236 1946   6.291   1.785   3.546 -2.2253  2.0036  0.3376
    6MOL   H237 1947   6.266   1.737   3.386 -2.8076  0.4467  0.3855
    6MOL   H238 1948   6.077   1.758   3.588  1.7170  1.7038 -0.9598
    6MOL   H239 1949   6.045   1.671   3.440 -0.1659 -1.2225  0.5548
    6MOL   C240 1950   6.281   1.287   3.713  0.3000  0.2463  0.6826
    6MOL   C241 1951   6.403   1.324   3.795 -0.5610  0.4672 -0.1906
    6MOL   N242 1952   6.371   1.309   3.944 -0.5214 -0.1234  0.2688
    6MOL   C243 1953   6.359   1.429   4.025 -0.1734  0.2057 -0.1448
    6MOL   C244 1954   6.378   1.382   4.172 -0.2257 -0.3964  0.3289
    6MOL   C245 1955   6.345   1.237   4.169 -0.4129 -0.0906  0.2101
    6MOL   C246 1956   6.365   1.200   4.024 -0.1476  0.5993 -0.6006
    6MOL   O247 1957   6.389   1.083   3.983  0.3821 -0.4617 -0.2466
    6MOL   H248 1958   6.286   1.179   3.702  1.5357  0.4236 -0.7367
    6MOL   H249 1959   6.182   1.304   3.756 -0.1818 -0.7244 -0.0376
    6MOL   H250 1960   6.426   1.430   3.782  2.1501 -0.2496 -1.6097
    6MOL   H251 1961   6.428   1.508   3.996 -1.2677  0.7979 -1.2227
    6MOL   H252 1962   6.262   1.474   4.004 -0.5381 -0.7048 -0.4467
    6MOL   H253 1963   6.474   1.415   4.214  0.2689 -0.3277 -0.8467
    6MOL   H254 1964   6.304   1.426   4.239 -0.1161  0.5266 -0.1571
    6MOL   H255 1965   6.409   1.170   4.226 -1.5940 -0.3723  1.2244
    6MOL   H256 1966   6.243   1.210   4.198 -0.8792 -1.2262 -2.4120
    6MOL   C257 1967   6.525   1.242   3.749  1.0736 -0.1698  0.2197
    6MOL   C258 1968   6.644   1.241   3.845 -0.2513  0.1639  0.8883
    6MOL   N259 1969   6.752   1.150   3.800  0.7078  0.9785  0.2846
    6MOL   C260 1970   6.770   1.025   3.871 -0.0451 -0.6051  0.1583
    6MOL   C261 1971   6.849   0.931   3.781  0.1552 -0.1681 -0.2961
    6MOL   C262 1972   6.895   1.023   3.663 -0.2688 -0.3254 -0.4788
    6MOL   C263 1973   6.811   1.148   3.684 -0.5026  0.8880  0.4705
    6MOL   O264 1974   6.802   1.230   3.596 -0.1500  0.2990 -0.0605
    6MOL   H265 1975   6.561   1.276   3.652  0.1664 -0.2432 -0.1425
    6MOL   H266 1976   6.500   1.136   3.751 -0.5384  0.1735 -0.5223
    6MOL   H267 1977   6.610   1.210   3.944 -0.1354  0.3553  0.9878
    6MOL   H268 1978   6.825   1.045   3.963 -0.9215 -1.8025  0.9574
    6MOL   H269 1979   6.671   0.988   3.897  0.7065 -1.0367  2.6110
    6MOL   H270 1980   6.931   0.875   3.826  1.8066  1.7532 -0.7863
    6MOL   H271 1981   6.775   0.862   3.742 -0.6068  1.1494 -1.2466
    6MOL   H272 1982   6.990   1.072   3.682  0.0692 -0.4120 -1.8294
    6MOL   H273 1983   6.895   0.973   3.565  0.0279  0.0870 -0.6930
    6MOL   C274 1984   6.706   1.383   3.852  0.2219  0.4252 -0.4497
    6MOL   C275 1985   6.809   1.402   3.959  0.2897 -0.1999 -0.4599
    6MOL   N276 1986   6.882   1.519   3.936 -0.3407  0.3954  0.9963
    6MOL   C277 1987   7.029   1.514   3.900  0.3530  0.0887  0.1626
    6MOL   C278 1988   7.075   1.661   3.894  0.6380  0.2617  0.0933
    6MOL   C279 1989   6.947   1.744   3.923  0.6241 -0.2390  1.0157
    6MOL   C280 1990   6.837   1.645   3.938 -0.9558  0.1987  0.4761
    6MOL   O281 1991   6.721   1.677   3.959  0.3823  0.2529  0.0844
    6MOL   H282 1992   6.628   1.454   3.880 -0.2434 -1.3351  2.9675
    6MOL   H283 1993   6.751   1.415   3.758 -1.5943  1.5535 -0.9621
    6MOL   H284 1994   6.876   1.317   3.952 -1.4487 -1.6653  0.2990
    6MOL   H285 1995   7.085   1.464   3.978  0.9467 -1.1530 -1.0267
    6MOL   H286 1996   7.044   1.455   3.809  0.6144  0.2501  0.1009
    6MOL   H287 1997   7.140   1.685   3.978 -1.7029  0.6919  1.8318
    6MOL   H288 1998   7.120   1.681   3.797  1.2541 -2.1235 -0.1525
    6MOL   H289 1999   6.962   1.808   4.010  0.4037  1.3510 -0.0851
    6MOL   H290 2000   6.929   1.802   3.833  2.9579  3.1964  2.6720
    6MOL   C291 2001   6.746   1.402   4.101 -0.0172 -0.6479  0.8607
    6MOL   C292 2002   6.857   1.406   4.214 -0.2868  0.0366  0.5062
    6MOL   N293 2003   6.799   1.451   4.344 -0.4236 -0.7314 -0.2783
    6MOL   C294 2004   6.839   1.587   4.390 -0.0572  0.0322  0.0236
    6MOL   C295 2005   6.753   1.614   4.519 -0.1450  0.0916  0.0806
    6MOL   C296 2006   6.674   1.488   4.540  1.0885  0.4043  0.2486
    6MOL   C297 2007   6.703   1.397   4.424  0.2615 -0.5703  0.8659
    6MOL   O298 2008   6.645   1.289   4.410  0.0212 -0.2632  0.2067
    6MOL   H299 2009   6.689   1.314   4.128 -2.2817  0.0123 -1.5199
    6MOL   H300 2010   6.689   1.492   4.122  1.0704  0.0530  0.8630
    6MOL   H301 2011   6.920   1.491   4.189  0.8324 -1.4677 -1.9193
    6MOL   H302 2012   6.947   1.588   4.403 -0.0003 -1.1123 -0.3327
    6MOL   H303 2013   6.823   1.654   4.306 -0.2934  0.5647  0.4885
    6MOL   H304 2014   6.813   1.639   4.606 -0.1643 -1.3480  0.5204
    6MOL   H305 2015   6.685   1.699   4.507 -2.0304 -1.4298 -0.2396
    6MOL   H306 2016   6.692   1.429   4.630 -0.3396 -0.2320  0.1242
    6MOL   H307 2017   6.569   1.512   4.529  1.4395  1.1453 -1.6764
    6MOL   C308 2018   6.948   1.285   4.225  0.4350  0.0886 -0.4798
    6MOL   C309 2019   7.060   1.296   4.342  0.0207 -0.3082 -0.4731
    6MOL   N310 2020   7.102   1.161   4.389  0.4341  0.4643  0.3967
    6MOL   C311 2021   7.087   1.124   4.530 -0.0808  0.1311  0.6234
    6MOL   C312 2022   7.152   0.980   4.535 -0.3780  0.0774  0.5633
    6MOL   C313 2023   7.196   0.942   4.393  0.1814  0.2973 -0.7024
    6MOL   C314 2024   7.170   1.070   4.315  0.3830  0.1242 -0.4121
    6MOL   O315 2025   7.187   1.087   4.200 -0.7902  0.1129  0.2813
    6MOL   H316 2026   7.004   1.267   4.133  0.4677  0.8372 -0.6047
    6MOL   H317 2027   6.886   1.199   4.252 -0.2981  0.3849 -1.2029
    6MOL   H318 2028   7.011   1.326   4.435  0.4747 -1.1486  0.0363
    6MOL   H319 2029   7.132   1.201   4.593 -0.2134  0.3050  0.5057
    6MOL   H320 2030   6.986   1.120   4.570  0.1603  3.2840  1.6738
    6MOL   H321 2031   7.235   0.977   4.606  0.0124  0.8310  0.1440
    6MOL   H322 2032   7.072   0.911   4.564  0.6617 -0.5832  1.9123
    6MOL   H323 2033   7.302   0.932   4.373 -0.1969 -2.7803 -1.4189
    6MOL   H324 2034   7.136   0.865   4.344  1.4389 -0.4539 -1.0835
    6MOL   C325 2035   7.171   1.395   4.307  1.0196  0.4557  0.1240
    6MOL   C326 2036   7.220   1.478   4.423 -0.9436 -0.2692  0.1877
    6MOL   N327 2037   7.304   1.592   4.386 -0.3435 -0.3697 -0.2684
    6MOL   C328 2038   7.440   1.565   4.368  0.4319  0.1912  0.9761
    6MOL   C329 2039   7.495   1.684   4.279 -0.2669  0.0451  0.3081
    6MOL   C330 2040   7.378   1.783   4.277 -0.2008  0.3579 -0.1126
    6MOL   C331 2041   7.261   1.698   4.323 -0.5224 -0.9455 -0.0827
    6MOL   O332 2042   7.142   1.722   4.299 -0.1471  0.2614 -0.9646
    6MOL   H333 2043   7.135   1.467   4.234  1.5220  0.0785 -0.5054
    6MOL   H334 2044   7.254   1.346   4.256 -0.5887 -1.2906 -0.9074
    6MOL   H335 2045   7.272   1.414   4.495  0.1320  1.6089  1.1197
    6MOL   H336 2046   7.492   1.570   4.464  0.8181 -1.0774  0.8432
    6MOL   H337 2047   7.457   1.470   4.319 -0.6736 -0.0386  1.0379
    6MOL   H338 2048   7.592   1.718   4.315 -0.1285 -0.6614  0.6017
    6MOL   H339 2049   7.509   1.637   4.182 -4.6909 -0.4755 -0.2075
    6MOL   H340 2050   7.390   1.870   4.341  0.4036  0.9468 -1.0221
    6MOL   H341 2051   7.347   1.829   4.184 -0.8628  2.1036  0.9496
    6MOL   H342 2052   7.145   1.535   4.477 -1.0406  0.1583 -0.3938
    7MOL     C1 2053   2.141   3.999   2.875 -0.0030 -0.2152 -0.0016
    7MOL     C2 2054   2.281   4.069   2.854  0.6085 -0.3994  0.0192
    7MOL     N3 2055   2.364   3.988   2.762 -0.1671 -0.3591  0.8401
    7MOL     C4 2056   2.325   3.968   2.623 -0.2930 -0.0130 -0.7668
    7MOL     C5 2057   2.417   3.860   2.564  0.4468 -0.2888 -0.3588
    7MOL     C6 2058   2.530   3.847   2.669 -0.2080  0.0841 -0.5471
    7MOL     C7 2059   2.480   3.927   2.786 -0.5319 -0.5148 -0.6686
    7MOL     O8 2060   2.545   3.939   2.888 -0.1105  0.0010  0.3973
    7MOL     H9 2061   2.157   3.896   2.907 -1.4369  0.0074  1.4709
    7MOL    H10 2062   2.101   4.051   2.962 -0.5312 -0.0977 -0.3111
    7MOL    H11 2063   2.327   4.068   2.953 -1.7831 -2.1853  1.1392
    7MOL    H12 2064   2.219   3.952   2.604 -0.7928  1.6586  0.5517
    7MOL    H13 2065   2.357   4.059   2.573 -1.3193 -0.4616 -2.2652
    7MOL    H14 2066   2.358   3.770   2.550 -0.8761  0.0585  2.7394
    7MOL    H15 2067   2.448   3.896   2.466  0.1004  0.8210 -0.0715
    7MOL    H16 2068   2.542   3.743   2.699 -0.0752  0.4190  0.5699
    7MOL    H17 2069   2.627   3.884   2.636 -0.0843 -1.2060 -1.6595
    7MOL    H18 2070   2.071   4.001   2.792 -1.3721  1.9207  1.1677
    7MOL    C19 2071   2.251   4.212   2.808 -0.2122  0.0521 -0.7168
    7MOL    C20 2072   2.360   4.323   2.821 -0.0273 -0.2875  0.2692
    7MOL    N21 2073   2.481   4.280   2.747  0.4386  0.2097  0.3642
    7MOL    C22 2074   2.607   4.277   2.822 -0.4002 -0.3082  0.0718
    7MOL    C23 2075   2.722   4.272   2.719 -0.2347 -0.2038  0.3746
    7MOL    C24 2076   2.658   4.261   2.586  0.1205  0.3725 -0.3342
    7MOL    C25 2077   2.510   4.278   2.618 -0.4921  0.0731 -0.2260
    7MOL    O26 2078   2.431   4.301   2.525  0.0602 -0.6918 -0.1443
    7MOL    H27 2079   2.171   4.249   2.872 -0.4725 -1.7208  0.0051
    7MOL    H28 2080   2.208   4.211   2.708 -1.0337  0.7824 -0.3775
    7MOL    H29 2081   2.383   4.324   2.928 -0.7431 -0.0029  0.4188
    7MOL    H30 2082   2.616   4.364   2.887  1.6223  1.1180 -2.0431
    7MOL    H31 2083   2.604   4.194   2.893  0.5283 -0.2728  0.1611
    7MOL    H32 2084   2.781   4.364   2.725  0.6698 -0.6176 -1.6684
    7MOL    H33 2085   2.794   4.194   2.745  1.3440  0.4468 -1.8701
    7MOL    H34 2086   2.683   4.330   2.505  1.2480 -1.0420 -1.2206
    7MOL    H35 2087   2.666   4.163   2.538  0.5870  0.6918 -0.9224
    7MOL    C36 2088   2.317   4.461   2.782 -0.4740 -0.5172 -0.4379
    7MOL    C37 2089   2.216   4.522   2.884 -0.5088 -0.3429 -0.6094
    7MOL    N38 2090   2.274   4.536   3.021  0.4115 -0.4123  0.0682
    7MOL    C39 2091   2.223   4.450   3.122 -0.6030 -1.1132  0.6851
    7MOL    C40 2092   2.323   4.475   3.242 -0.3199  0.3039  0.0909
    7MOL    C41 2093   2.428   4.575   3.192  0.7823  0.6551 -0.3946
    7MOL    C42 2094   2.382   4.604   3.052  0.0263 -0.4602  1.0521
    7MOL    O43 2095   2.447   4.680   2.977 -0.4526 -0.6569 -0.4588
    7MOL    H44 2096   2.284   4.454   2.678  0.9031 -0.5433 -0.8833
    7MOL    H45 2097   2.407   4.523   2.779 -1.0863  0.3527 -1.8530
    7MOL    H46 2098   2.128   4.458   2.895 -0.1382 -1.1500 -2.2054
    7MOL    H47 2099   2.118   4.468   3.146 -0.9213 -0.2341 -1.2601
    7MOL    H48 2100   2.218   4.344   3.096 -1.3410 -0.9195  0.0146
    7MOL    H49 2101   2.268   4.519   3.325  0.0408 -0.0905  0.5389
    7MOL    H50 2102   2.376   4.392   3.290 -1.3357 -0.0332  0.6485
    7MOL    H51 2103   2.455   4.663   3.251 -1.1332 -0.0076  1.5329
    7MOL    H52 2104   2.521   4.519   3.188  0.3645  0.0408 -1.7559
    7MOL    C53 2105   2.157   4.660   2.847 -0.0343  0.0393  0.9482
    7MOL    C54 2106   2.072   4.670   2.721  0.0243  0.0401  0.1895
    7MOL    N55 2107   1.962   4.572   2.707 -0.0598  0.2225  0.1820
    7MOL    C56 2108   1.972   4.463   2.613 -0.3048 -0.3558  0.5066
    7MOL    C57 2109   1.836   4.393   2.622 -0.3572  0.0540  0.4617
    7MOL    C58 2110   1.760   4.451   2.739  0.0978  0.4399  0.3918
    7MOL    C59 2111   1.854   4.561   2.787  0.0593  0.4095 -0.6188
    7MOL    O60 2112   1.824   4.631   2.883  0.0992 -0.0824 -0.2554
    7MOL    H61 2113   2.242   4.726   2.834 -0.1520 -0.1226 -0.6720
    7MOL    H62 2114   2.090   4.688   2.929 -3.8504 -0.8644 -1.7102
    7MOL    H63 2115   2.141   4.650   2.639  1.2509  4.0784  0.1238
    7MOL    H64 2116   1.999   4.495   2.513  0.0222 -0.2195  0.6386
    7MOL    H65 2117   2.049   4.395   2.651 -0.8114 -1.3007 -0.1354
    7MOL    H66 2118   1.780   4.425   2.534  1.8261  1.9773 -0.2786
    7MOL    H67 2119   1.842   4.285   2.624 -1.5408 -0.0149  0.9479
    7MOL    H68 2120   1.664   4.490   2.706  0.9821 -1.1971 -4.4877
    7MOL    H69 2121   1.744   4.382   2.821 -1.2597 -2.7064 -2.4158
    7MOL    C70 2122   2.018   4.808   2.701  0.2381 -0.3248  0.3468
    7MOL    C71 2123   2.115   4.917   2.660 -0.0762 -0.2203 -0.4464
    7MOL    N72 2124   2.181   4.887   2.529 -0.0364 -0.3093 -0.5590
    7MOL    C73 2125   2.325   4.907   2.516 -0.1487  0.7938  0.6915
    7MOL    C74 2126   2.353   4.892   2.369 -0.3661  0.3620  0.3685
    7MOL    C75 2127   2.223   4.879   2.302 -1.1159  0.2037 -0.5379
    7MOL    C76 2128   2.121   4.862   2.413 -0.6768 -0.1942 -0.3849
    7MOL    O77 2129   2.003   4.846   2.393  0.1154  0.1916  0.2292
    7MOL    H78 2130   1.962   4.838   2.790  0.1681  0.4901  0.0337
    7MOL    H79 2131   1.938   4.805   2.627 -1.1568  2.4532  1.6459
    7MOL    H80 2132   2.194   4.925   2.735  0.4370 -0.4919 -0.9608
    7MOL    H81 2133   2.345   5.010   2.545 -0.7008  1.1964 -0.3118
    7MOL    H82 2134   2.379   4.833   2.575 -1.8000 -1.4496 -0.5565
    7MOL    H83 2135   2.393   4.989   2.338 -1.6978  0.7548 -0.1605
    7MOL    H84 2136   2.425   4.818   2.335  0.0256  0.7761  0.2872
    7MOL    H85 2137   2.201   4.970   2.247  1.2852 -0.3847 -2.5230
    7MOL    H86 2138   2.213   4.796   2.233 -2.4216 -0.1903  0.0921
    7MOL    C87 2139   2.074   5.068   2.664  0.5352 -0.3025  0.6007
    7MOL    C88 2140   2.039   5.136   2.800 -0.0244 -0.5048 -0.0440
    7MOL    N89 2141   2.139   5.115   2.905  0.2449 -0.3858  0.1909
    7MOL    C90 2142   2.092   5.024   3.013  0.4626 -0.3259  0.3113
    7MOL    C91 2143   2.222   4.956   3.066 -0.0087 -0.1643  0.0864
    7MOL    C92 2144   2.335   5.040   2.997 -0.0871  0.9069 -0.0919
    7MOL    C93 2145   2.273   5.121   2.890 -0.3038  0.3611  0.4815
    7MOL    O94 2146   2.338   5.172   2.795  0.2027  0.4933  0.5318
    7MOL    H95 2147   1.989   5.079   2.597  1.8793 -2.3516 -1.5087
    7MOL    H96 2148   2.141   5.131   2.605  1.0202  1.8420  3.3179
    7MOL    H97 2149   1.945   5.088   2.827 -1.3381  2.2574  0.4663
    7MOL    H98 2150   2.056   5.086   3.095 -0.2784 -1.9283  1.2090
    7MOL    H99 2151   2.010   4.955   2.994 -0.3158  0.6529  0.1262
    7MOL   H100 2152   2.221   4.948   3.175  1.1076  0.7472  0.1692
    7MOL   H101 2153   2.221   4.858   3.018 -2.6937  0.2099 -0.6884
    7MOL   H102 2154   2.377   5.111   3.068 -1.2627  1.5958 -0.0879
    7MOL   H103 2155   2.418   4.974   2.969 -1.0738 -0.6749  0.6346
    7MOL   C104 2156   2.020   5.284   2.785  0.6351  0.2687 -0.0562
    7MOL   C105 2157   1.944   5.351   2.908 -0.1719  0.3072 -0.4451
    7MOL   N106 2158   1.946   5.492   2.900 -0.4946 -0.2827 -0.1814
    7MOL   C107 2159   1.876   5.560   2.788  0.3082  0.4613 -0.1273
    7MOL   C108 2160   1.911   5.716   2.805 -0.0208 -0.5116 -0.5192
    7MOL   C109 2161   2.005   5.723   2.926  0.2977 -0.0671  0.4006
    7MOL   C110 2162   2.008   5.583   2.981 -0.3435  0.8570  0.3218
    7MOL   O111 2163   2.046   5.559   3.094  0.0881 -0.1695 -0.1834
    7MOL   H112 2164   1.967   5.301   2.691  1.6704  3.1033 -0.1779
    7MOL   H113 2165   2.115   5.333   2.765  0.4388 -0.2440 -2.4583
    7MOL   H114 2166   1.997   5.321   2.999  1.1309 -0.3320 -1.3804
    7MOL   H115 2167   1.910   5.531   2.689 -0.6491 -0.8043 -0.1138
    7MOL   H116 2168   1.769   5.540   2.782  0.2111  1.0901 -0.4382
    7MOL   H117 2169   1.947   5.758   2.711  0.0288 -3.2782 -1.7915
    7MOL   H118 2170   1.816   5.763   2.829 -0.9366 -2.4963 -0.1539
    7MOL   H119 2171   1.961   5.777   3.010 -1.0720  0.6960 -0.7893
    7MOL   H120 2172   2.105   5.750   2.891  0.5213 -0.4259  0.7481
    7MOL   C121 2173   1.796   5.293   2.915 -0.5308 -0.3573  0.7546
    7MOL   C122 2174   1.713   5.345   3.032 -0.6188 -0.0421  0.2503
    7MOL   N123 2175   1.569   5.316   3.005 -0.2471  0.0774  0.1024
    7MOL   C124 2176   1.482   5.430   2.974 -0.2702 -0.3323 -0.6265
    7MOL   C125 2177   1.340   5.367   2.966  0.1203 -0.2510 -0.4006
    7MOL   C126 2178   1.353   5.222   2.980  0.2749 -0.1117  0.9480
    7MOL   C127 2179   1.500   5.198   2.992 -0.3627 -0.0658 -0.0978
    7MOL   O128 2180   1.546   5.081   2.983 -0.1251  0.0246  0.2592
    7MOL   H129 2181   1.785   5.185   2.918  1.9723 -0.7359 -1.5409
    7MOL   H130 2182   1.745   5.326   2.825  0.6056  2.5359  1.1137
    7MOL   H131 2183   1.743   5.450   3.033  2.1194 -0.7623 -0.6259
    7MOL   H132 2184   1.514   5.479   2.882  1.9555 -3.0826 -1.3804
    7MOL   H133 2185   1.485   5.507   3.051  0.8885 -0.5217 -0.4681
    7MOL   H134 2186   1.286   5.401   3.055 -1.0308  0.4217 -1.3462
    7MOL   H135 2187   1.297   5.385   2.868  0.3420  4.1229  0.1861
    7MOL   H136 2188   1.303   5.180   3.067  0.0885 -0.1693  0.8140
    7MOL   H137 2189   1.309   5.169   2.895  1.2318  0.9407 -0.2178
    7MOL   C138 2190   1.763   5.275   3.164 -0.8356  0.1935  0.8863
    7MOL   C139 2191   1.811   5.363   3.271  0.1887  0.1420  0.7145
    7MOL   N140 2192   1.705   5.470   3.298 -0.5888  0.2455 -0.1626
    7MOL   C141 2193   1.733   5.610   3.290 -0.2607  0.4442  0.0006
    7MOL   C142 2194   1.618   5.687   3.363 -0.1162  0.0310  0.1326
    7MOL   C143 2195   1.507   5.588   3.371 -0.1051  0.0101  0.4008
    7MOL   C144 2196   1.573   5.459   3.339 -0.6817 -0.0765 -0.3122
    7MOL   O145 2197   1.503   5.354   3.342 -0.3041 -0.3113 -0.7398
    7MOL   H146 2198   1.842   5.201   3.151 -0.9403  0.3426 -0.7247
    7MOL   H147 2199   1.679   5.212   3.194 -1.9216  1.0377 -0.3596
    7MOL   H148 2200   1.898   5.417   3.233 -0.0101 -0.1309 -0.1198
    7MOL   H149 2201   1.828   5.628   3.341 -1.4139  0.0309  2.3666
    7MOL   H150 2202   1.746   5.650   3.189  1.1369  1.5991  0.6122
    7MOL   H151 2203   1.651   5.715   3.463  0.7947 -2.2167  0.5043
    7MOL   H152 2204   1.599   5.778   3.308  0.9619  0.2044  0.0289
    7MOL   H153 2205   1.433   5.613   3.296  0.7623 -0.8705 -0.7656
    7MOL   H154 2206   1.451   5.591   3.464  0.5936  1.3568  0.7968
    7MOL   C155 2207   1.854   5.278   3.398 -0.1292 -0.4057  0.2544
    7MOL   C156 2208   1.988   5.217   3.393 -0.3256 -0.7401 -0.4344
    7MOL   N157 2209   2.096   5.325   3.387 -0.5756 -0.4962 -0.3036
    7MOL   C158 2210   2.196   5.316   3.290 -0.2263 -0.1303  0.0256
    7MOL   C159 2211   2.293   5.427   3.329 -0.5659 -0.1429 -0.8321
    7MOL   C160 2212   2.219   5.523   3.424 -0.3206  0.1997  0.3435
    7MOL   C161 2213   2.110   5.428   3.470  0.1053 -0.2294  0.0799
    7MOL   O162 2214   2.039   5.449   3.568  0.4064 -0.0968  0.3688
    7MOL   H163 2215   1.772   5.209   3.416 -2.2239  1.2054 -2.5447
    7MOL   H164 2216   1.847   5.344   3.485  0.4192 -0.4717  0.3517
    7MOL   H165 2217   1.987   5.159   3.300  0.0430  2.3659 -2.4543
    7MOL   H166 2218   2.242   5.217   3.280  0.8250  0.4012 -0.5094
    7MOL   H167 2219   2.151   5.328   3.192  0.2929  2.0519  0.0413
    7MOL   H168 2220   2.375   5.389   3.390 -2.0619 -3.2608 -0.6834
    7MOL   H169 2221   2.341   5.475   3.244 -0.9970  0.5608 -0.6902
    7MOL   H170 2222   2.287   5.553   3.504 -0.5474 -2.0939  1.4262
    7MOL   H171 2223   2.175   5.612   3.378 -1.2215 -1.1122 -1.3629
    7MOL   C172 2224   2.020   5.118   3.505  0.0920  0.4197 -0.2321
    7MOL   C173 2225   1.928   4.994   3.524 -0.1895  0.5189 -0.1006
    7MOL   N174 2226   1.901   4.922   3.402 -0.5273 -0.1613  0.5443
    7MOL   C175 2227   1.770   4.926   3.344 -0.0268 -0.2076 -0.3247
    7MOL   C176 2228   1.779   4.840   3.212  0.0767  0.0148  0.4545
    7MOL   C177 2229   1.908   4.757   3.223  0.2221 -0.5236  0.2282
    7MOL   C178 2230   1.975   4.827   3.342 -0.0238 -0.2702  0.2794
    7MOL   O179 2231   2.085   4.787   3.382 -0.2786 -0.2171  0.0881
    7MOL   H180 2232   2.016   5.177   3.596  0.9115  1.2671 -0.7435
    7MOL   H181 2233   2.122   5.090   3.481 -0.2860 -0.9925 -0.2422
    7MOL   H182 2234   1.828   5.031   3.551  0.3206  0.3214  2.1540
    7MOL   H183 2235   1.694   4.872   3.400  2.9767 -2.2997  1.9516
    7MOL   H184 2236   1.731   5.026   3.329 -1.0901 -0.4774  0.5624
    7MOL   H185 2237   1.793   4.911   3.130  0.8926 -1.7839 -0.9841
    7MOL   H186 2238   1.685   4.789   3.191  0.4761 -0.2631 -0.6641
    7MOL   H187 2239   1.871   4.659   3.253 -0.4019 -0.6151 -0.8141
    7MOL   H188 2240   1.972   4.755   3.135  2.2984  0.4814  1.6840
    7MOL   C189 2241   1.974   4.895   3.641  0.7306 -0.0375  0.8288
    7MOL   C190 2242   1.889   4.771   3.662  0.7023  0.0655  0.1179
    7MOL   N191 2243   1.959   4.675   3.745  0.3658  0.1279  0.2066
    7MOL   C192 2244   2.012   4.560   3.669 -0.5035 -0.1840 -0.4714
    7MOL   C193 2245   2.060   4.462   3.777  0.0460 -0.4223  0.0364
    7MOL   C194 2246   2.068   4.544   3.906  0.1844  0.6065 -0.4201
    7MOL   C195 2247   2.000   4.671   3.870  0.3916 -0.2596 -0.0442
    7MOL   O196 2248   1.988   4.765   3.949 -0.0794 -0.3733  0.6672
    7MOL   H197 2249   1.988   4.949   3.735 -0.3506  1.6655  0.0322
    7MOL   H198 2250   2.079   4.869   3.628  0.5766 -0.8238  1.1256
    7MOL   H199 2251   1.885   4.727   3.562 -2.5626 -0.9753  0.6461
    7MOL   H200 2252   1.939   4.522   3.598 -0.8915  2.1444 -1.3769
    7MOL   H201 2253   2.105   4.591   3.622 -0.5384 -0.6917 -0.8773
    7MOL   H202 2254   1.986   4.389   3.809 -0.7466  0.8911  1.2987
    7MOL   H203 2255   2.152   4.411   3.752  1.3511  1.3450  1.0954
    7MOL   H204 2256   2.005   4.498   3.982  4.2677 -1.1345  2.0836
    7MOL   H205 2257   2.172   4.548   3.939  0.8729  0.3707 -2.5406
    7MOL   C206 2258   1.745   4.803   3.716 -0.5812  0.7191  0.4147
    7MOL   C207 2259   1.625   4.720   3.659 -0.5156  0.4312 -0.1589
    7MOL   N208 2260   1.635   4.579   3.685  0.2321  0.1079 -0.0308
    7MOL   C209 2261   1.648   4.477   3.579  0.3748 -0.3309  0.1324
    7MOL   C210 2262   1.662   4.344   3.657  0.9277 -0.1462  0.3611
    7MOL   C211 2263   1.595   4.371   3.792  0.3164  0.2249  0.4219
    7MOL   C212 2264   1.605   4.519   3.800  0.1083  0.2116  0.4750
    7MOL   O213 2265   1.583   4.582   3.902 -0.3411  0.1895 -0.0615
    7MOL   H214 2266   1.720   4.903   3.682 -1.1610 -0.1298 -1.7136
    7MOL   H215 2267   1.737   4.798   3.825  1.0208  0.3912  0.5326
    7MOL   H216 2268   1.634   4.724   3.550 -1.8450 -0.6706 -0.3311
    7MOL   H217 2269   1.554   4.477   3.524 -0.5494  1.1531  1.6615
    7MOL   H218 2270   1.738   4.487   3.517  0.8751  0.5123  0.9697
    7MOL   H219 2271   1.611   4.261   3.608 -1.0753  0.7789  0.8319
    7MOL   H220 2272   1.769   4.322   3.659  1.1124  0.8214  1.5959
    7MOL   H221 2273   1.492   4.340   3.804  0.3611  0.6470  2.0379
    7MOL   H222 2274   1.649   4.325   3.875 -0.4163  1.3084  1.5064
    7MOL   C223 2275   1.482   4.764   3.701  0.9611 -0.4657  0.8781
    7MOL   C224 2276   1.423   4.899   3.644  0.5787 -0.0115  0.3014
    7MOL   N225 2277   1.438   4.912   3.498 -0.3426  0.0887 -0.0750
    7MOL   C226 2278   1.451   5.054   3.458  0.3410  0.3387  0.4238
    7MOL   C227 2279   1.433   5.053   3.308 -0.0826 -0.3181 -0.1448
    7MOL   C228 2280   1.377   4.916   3.272  0.1995  0.2192 -0.2451
    7MOL   C229 2281   1.390   4.834   3.399 -0.2094 -0.2476 -0.3249
    7MOL   O230 2282   1.345   4.718   3.412 -0.1096 -0.5138  0.0641
    7MOL   H231 2283   1.477   4.769   3.810  1.7508 -0.8638  0.9394
    7MOL   H232 2284   1.413   4.691   3.659 -0.1541  0.0024  1.8823
    7MOL   H233 2285   1.475   4.982   3.692  0.6356 -0.8695  1.7392
    7MOL   H234 2286   1.370   5.119   3.490 -2.0280 -1.9440 -0.7842
    7MOL   H235 2287   1.543   5.105   3.489  0.5106  0.0912  0.3329
    7MOL   H236 2288   1.357   5.130   3.293 -0.2708 -0.3687  0.5296
    7MOL   H237 2289   1.525   5.060   3.251 -0.1608 -1.5480 -0.4467
    7MOL   H238 2290   1.268   4.916   3.262  0.1371  0.0686  0.4273
    7MOL   H239 2291   1.416   4.872   3.180  2.6108  1.5731  0.0945
    7MOL   C240 2292   1.275   4.902   3.680  0.2660  0.0873  0.1508
    7MOL   C241 2293   1.232   4.909   3.828  0.5368  0.6700  0.3535
    7MOL   N242 2294   1.291   5.014   3.904 -0.1987  0.0896 -0.7602
    7MOL   C243 2295   1.371   4.980   4.019 -0.2178  0.4805 -0.5673
    7MOL   C244 2296   1.429   5.108   4.082 -0.1100 -1.0369 -0.7974
    7MOL   C245 2297   1.376   5.222   3.988  0.3230 -0.2240 -0.4253
    7MOL   C246 2298   1.291   5.147   3.883  0.3855  0.5855 -0.0239
    7MOL   O247 2299   1.231   5.204   3.790 -0.4602  0.1846 -0.0344
    7MOL   H248 2300   1.236   4.807   3.644  1.7431 -0.7863  0.8233
    7MOL   H249 2301   1.223   4.979   3.622  2.1629  1.3230  0.0280
    7MOL   H250 2302   1.263   4.817   3.878  0.3648  0.7516  0.6152
    7MOL   H251 2303   1.295   4.937   4.085 -0.5568 -1.4183 -2.1494
    7MOL   H252 2304   1.460   4.920   3.999  1.6476  2.8576  0.3979
    7MOL   H253 2305   1.397   5.121   4.186  0.6290 -0.0675 -0.6860
    7MOL   H254 2306   1.535   5.085   4.071  0.3377 -0.4227  1.7837
    7MOL   H255 2307   1.300   5.288   4.030  0.4925  0.3915 -1.0826
    7MOL   H256 2308   1.445   5.295   3.948  0.1680 -1.1733 -2.5272
    7MOL   C257 2309   1.076   4.905   3.847 -0.5752 -0.2813  0.0993
    7MOL   C258 2310   1.010   4.773   3.799 -0.2835 -0.5860  0.2034
    7MOL   N259 2311   1.061   4.655   3.872  0.3899  0.3781 -0.4999
    7MOL   C260 2312   1.128   4.545   3.796 -0.7889 -0.1241 -0.2448
    7MOL   C261 2313   1.168   4.444   3.899  0.0721 -0.2425 -0.3870
    7MOL   C262 2314   1.146   4.510   4.037 -0.1961 -0.6595 -0.2329
    7MOL   C263 2315   1.069   4.633   4.005 -0.7917  0.2237  0.0812
    7MOL   O264 2316   1.018   4.711   4.089 -0.8027 -0.5018  0.0198
    7MOL   H265 2317   1.045   4.985   3.780  0.7176 -1.5071 -1.9934
    7MOL   H266 2318   1.059   4.921   3.954 -0.0378  0.0796  0.1299
    7MOL   H267 2319   1.036   4.764   3.693 -1.5653  0.7744 -0.2501
    7MOL   H268 2320   1.071   4.496   3.717 -1.0524  1.6475 -1.1687
    7MOL   H269 2321   1.220   4.581   3.748 -0.9812  0.0294 -0.4983
    7MOL   H270 2322   1.117   4.348   3.891  0.8540 -0.7304  0.4171
    7MOL   H271 2323   1.271   4.412   3.887  0.3262  0.9028 -1.3166
    7MOL   H272 2324   1.091   4.453   4.111 -2.3113  0.6849 -0.6908
    7MOL   H273 2325   1.239   4.538   4.085  0.7663 -0.7598 -1.9957
    7MOL   C274 2326   0.862   4.785   3.794 -0.2439 -0.5045  0.1102
    7MOL   C275 2327   0.792   4.890   3.696 -0.4395 -0.3845  0.4568
    7MOL   N276 2328   0.835   4.863   3.556  0.3802 -0.2454  0.2737
    7MOL   C277 2329   0.913   4.963   3.491  0.2902  0.1549 -0.6803
    7MOL   C278 2330   0.961   4.903   3.356  0.5833  0.0242 -0.0388
    7MOL   C279 2331   0.875   4.775   3.342  0.1914 -0.1004 -0.1129
    7MOL   C280 2332   0.809   4.756   3.478 -0.7115  0.6556  0.2224
    7MOL   O281 2333   0.744   4.653   3.508 -0.5533 -0.3589 -0.2626
    7MOL   H282 2334   0.838   4.797   3.900  2.6113  2.4441  0.5062
    7MOL   H283 2335   0.832   4.684   3.763  0.2003 -0.2894 -1.0317
    7MOL   H284 2336   0.825   4.990   3.722 -0.8353  0.2364 -1.3687
    7MOL   H285 2337   0.848   5.050   3.480 -2.6994 -1.7886  1.0492
    7MOL   H286 2338   1.005   4.988   3.544  0.2317  1.2037 -1.0586
    7MOL   H287 2339   0.945   4.957   3.263 -0.2223  0.1417  0.1607
    7MOL   H288 2340   1.067   4.878   3.365  0.9078  0.0302 -3.3544
    7MOL   H289 2341   0.801   4.794   3.264 -0.6761  2.2274  1.2274
    7MOL   H290 2342   0.922   4.683   3.308 -1.3165 -1.4331  1.2893
    7MOL   C291 2343   0.630   4.893   3.713 -0.0039 -0.3222 -0.2263
    7MOL   C292 2344   0.575   4.955   3.839  0.1264  0.0176  0.3102
    7MOL   N293 2345   0.651   5.070   3.886 -0.2453 -0.4484 -0.2331
    7MOL   C294 2346   0.702   5.065   4.017 -0.0512  0.1660  0.5494
    7MOL   C295 2347   0.802   5.180   4.032  0.8496  0.0201 -0.1088
    7MOL   C296 2348   0.784   5.262   3.905  0.2885 -1.1092 -0.0247
    7MOL   C297 2349   0.687   5.181   3.824 -0.3006  0.3617  0.1663
    7MOL   O298 2350   0.648   5.223   3.714 -0.2954 -0.3100 -0.4173
    7MOL   H299 2351   0.589   4.799   3.677  0.8899 -0.9771  0.4202
    7MOL   H300 2352   0.606   4.961   3.632 -1.6877 -1.8916 -1.0810
    7MOL   H301 2353   0.577   4.879   3.917  1.1968 -0.9445 -0.6404
    7MOL   H302 2354   0.620   5.084   4.087 -0.7340 -1.4234  0.2131
    7MOL   H303 2355   0.754   4.972   4.039  2.5213  0.3442 -4.1820
    7MOL   H304 2356   0.777   5.231   4.125  3.7187  1.1073  0.1236
    7MOL   H305 2357   0.905   5.149   4.045  0.8049 -0.0618  0.0482
    7MOL   H306 2358   0.748   5.360   3.934 -2.0952 -1.2739 -2.2137
    7MOL   H307 2359   0.880   5.273   3.853 -0.3508 -1.3872 -1.2760
    7MOL   C308 2360   0.427   4.998   3.812  0.0046 -0.6168  0.6829
    7MOL   C309 2361   0.322   4.889   3.833 -0.5530 -0.2470  0.6762
    7MOL   N310 2362   0.307   4.851   3.974 -0.4087  0.0819 -0.5617
    7MOL   C311 2363   0.307   4.713   4.017  0.2967 -0.5332 -1.0239
    7MOL   C312 2364   0.271   4.711   4.167  0.3543  0.5313  1.3712
    7MOL   C313 2365   0.270   4.855   4.211  0.2382 -0.0949  0.0370
    7MOL   C314 2366   0.301   4.932   4.082  0.0196 -0.2759 -0.5842
    7MOL   O315 2367   0.307   5.054   4.090 -0.6223  0.0588 -0.1178
    7MOL   H316 2368   0.430   5.047   3.715  1.0784 -0.3152  0.8616
    7MOL   H317 2369   0.397   5.083   3.873 -0.2377 -0.5896  0.5263
    7MOL   H318 2370   0.364   4.793   3.802  0.3725 -0.4290  2.4345
    7MOL   H319 2371   0.241   4.650   3.956 -0.3814 -0.9345  0.1177
    7MOL   H320 2372   0.403   4.663   4.003 -0.5511 -2.2440 -0.8109
    7MOL   H321 2373   0.178   4.662   4.196  2.0154 -3.1137  0.8485
    7MOL   H322 2374   0.338   4.657   4.235  1.2073 -0.4656 -0.2233
    7MOL   H323 2375   0.175   4.878   4.258  0.5634  1.5559 -0.0738
    7MOL   H324 2376   0.356   4.873   4.276 -0.0089 -0.6570  0.5214
    7MOL   C325 2377   0.189   4.935   3.771 -0.1796 -0.4613  0.3053
    7MOL   C326 2378   0.064   4.844   3.786  0.3168  1.3174  0.0546
    7MOL   N327 2379   0.034   4.736   3.695 -0.6336  0.6942 -0.5200
    7MOL   C328 2380   0.121   4.617   3.690 -0.4320 -0.4204  0.4901
    7MOL   C329 2381   0.057   4.520   3.592 -0.4956  0.2287  1.1226
    7MOL   C330 2382   7.823   4.571   3.565 -0.0523 -0.9121 -0.2068
    7MOL   C331 2383   7.825   4.706   3.638 -0.1503  0.6790  0.2987
    7MOL   O332 2384   7.728   4.776   3.645  0.3699 -0.7773  0.7475
    7MOL   H333 2385   0.196   4.953   3.664 -0.5603 -0.4014  0.2868
    7MOL   H334 2386   0.169   5.030   3.820 -0.2664 -0.2897 -0.0678
    7MOL   H335 2387   7.886   4.914   3.786  0.9783  2.1292 -2.0778
    7MOL   H336 2388   0.222   4.651   3.671  0.2194 -1.8313  1.3437
    7MOL   H337 2389   0.138   4.577   3.790  3.2562  0.2842  0.2098
    7MOL   H338 2390   0.120   4.515   3.504  0.1528 -2.2443  1.6906
    7MOL   H339 2391   0.059   4.413   3.615  3.3964 -0.5064 -2.1429
    7MOL   H340 2392   7.788   4.569   3.462  0.3834  0.5717 -0.4013
    7MOL   H341 2393   7.741   4.522   3.618  0.4116 -0.1411  1.2508
    7MOL   H342 2394   0.055   4.791   3.881  1.2838  1.6465  0.3306
    8MOL     C1 2395   2.678   6.921   1.657  0.0558 -0.0920  0.3172
    8MOL     C2 2396   2.616   6.878   1.784  0.2041 -0.0007 -0.4487
    8MOL     N3 2397   2.539   6.987   1.842 -0.0778 -0.5943 -0.0837
    8MOL     C4 2398   2.546   7.017   1.988 -0.0522  0.0912  0.3283
    8MOL     C5 2399   2.430   7.106   2.019  0.8433 -0.5629  0.2645
    8MOL     C6 2400   2.375   7.147   1.880 -0.1357  0.4578  0.2633
    8MOL     C7 2401   2.449   7.067   1.785  0.2037  0.0917 -0.0237
    8MOL     O8 2402   2.425   7.078   1.665  0.0126  0.5528  0.2527
    8MOL     H9 2403   2.602   6.911   1.580  0.7011  0.8913 -0.4546
    8MOL    H10 2404   2.721   7.021   1.663 -0.8565  0.3631 -0.7340
    8MOL    H11 2405   2.703   6.855   1.846 -0.5253 -0.2893  0.4839
    8MOL    H12 2406   2.542   6.935   2.061 -0.7210 -0.3090 -0.1496
    8MOL    H13 2407   2.639   7.067   2.013 -0.2221  0.3047  0.5408
    8MOL    H14 2408   2.353   7.055   2.077  1.3821  0.4623  1.9095
    8MOL    H15 2409   2.471   7.185   2.081 -1.1205 -1.1655  2.4080
    8MOL    H16 2410   2.267   7.143   1.866 -0.0582  0.1088 -0.2243
    8MOL    H17 2411   2.407   7.250   1.864  2.2486 -0.3513 -0.3703
    8MOL    H18 2412   2.753   6.846   1.630  0.1096  0.8330 -2.2594
    8MOL    C19 2413   2.523   6.755   1.764  0.3807 -0.0076 -0.0756
    8MOL    C20 2414   2.575   6.623   1.690 -0.3408  0.2586 -0.6906
    8MOL    N21 2415   2.706   6.585   1.740  0.2811 -0.3530 -0.0724
    8MOL    C22 2416   2.800   6.533   1.646 -0.0597 -0.6023  0.4053
    8MOL    C23 2417   2.928   6.512   1.729  0.6159  0.2518  0.2290
    8MOL    C24 2418   2.882   6.496   1.874 -0.4200 -0.5665  0.6320
    8MOL    C25 2419   2.745   6.553   1.867  0.0878 -0.0049  0.7906
    8MOL    O26 2420   2.665   6.555   1.964  0.1736 -0.7314  0.0664
    8MOL    H27 2421   2.437   6.798   1.714  0.3878  0.6730  0.4958
    8MOL    H28 2422   2.486   6.726   1.863  0.5347  1.6848  0.4908
    8MOL    H29 2423   2.587   6.644   1.584  1.9175  2.0552 -0.1402
    8MOL    H30 2424   2.777   6.434   1.607 -0.0051 -0.4942  0.0979
    8MOL    H31 2425   2.819   6.602   1.564 -1.6160  0.0597  0.5807
    8MOL    H32 2426   2.994   6.435   1.690  1.4395  0.7476  0.6312
    8MOL    H33 2427   2.991   6.601   1.737 -0.6190  1.1460  0.2409
    8MOL    H34 2428   2.865   6.390   1.894 -0.1753 -1.3162 -2.9311
    8MOL    H35 2429   2.945   6.524   1.958  0.0585 -1.9131  0.7356
    8MOL    C36 2430   2.472   6.511   1.702  0.7187 -0.2139 -0.2181
    8MOL    C37 2431   2.349   6.539   1.622  0.1619 -0.3793 -0.0269
    8MOL    N38 2432   2.368   6.550   1.473 -0.2680  0.4555 -0.1189
    8MOL    C39 2433   2.331   6.671   1.408 -0.4291  0.1483  0.2429
    8MOL    C40 2434   2.390   6.659   1.268 -0.8334 -0.1547  0.3053
    8MOL    C41 2435   2.476   6.535   1.261  0.1758  1.1092 -0.1092
    8MOL    C42 2436   2.449   6.473   1.399 -0.1751 -0.0335 -0.5577
    8MOL    O43 2437   2.497   6.362   1.423 -0.1554  0.0323  0.3721
    8MOL    H44 2438   2.440   6.488   1.804 -2.1657 -1.3475 -1.3130
    8MOL    H45 2439   2.503   6.411   1.671 -0.9447 -0.7680 -0.1711
    8MOL    H46 2440   2.316   6.638   1.651  2.7490  0.0355  1.6509
    8MOL    H47 2441   2.222   6.683   1.402 -0.4807 -0.8113 -0.9112
    8MOL    H48 2442   2.364   6.757   1.465 -0.0682  0.5951 -0.6298
    8MOL    H49 2443   2.310   6.652   1.194 -1.6859  0.9137  1.1068
    8MOL    H50 2444   2.457   6.740   1.241  1.5382 -2.2670 -0.3474
    8MOL    H51 2445   2.456   6.469   1.176 -0.7178 -0.6740  1.4311
    8MOL    H52 2446   2.584   6.549   1.257  0.5727 -1.4809  0.7384
    8MOL    C53 2447   2.237   6.435   1.659  0.2722 -0.1741 -0.7005
    8MOL    C54 2448   2.175   6.464   1.803  0.1988  0.3322 -0.1334
    8MOL    N55 2449   2.155   6.611   1.834  0.0151  0.2912 -0.1302
    8MOL    C56 2450   2.213   6.664   1.958 -0.5955 -0.3383  0.3107
    8MOL    C57 2451   2.193   6.820   1.950 -0.8513 -0.1360 -0.1023
    8MOL    C58 2452   2.087   6.834   1.842  0.9647  0.2923  0.1623
    8MOL    C59 2453   2.093   6.704   1.763 -0.0097  0.4875 -0.0260
    8MOL    O60 2454   2.027   6.687   1.663 -0.0062 -0.2022 -0.0767
    8MOL    H61 2455   2.266   6.331   1.645  1.2013  0.1876 -1.4853
    8MOL    H62 2456   2.158   6.451   1.586 -0.2343 -1.3380 -0.4226
    8MOL    H63 2457   2.238   6.430   1.885 -0.2843 -0.3162 -0.0287
    8MOL    H64 2458   2.147   6.615   2.029 -1.3027 -1.4556 -1.0987
    8MOL    H65 2459   2.318   6.639   1.978 -0.6918 -0.5026  0.6065
    8MOL    H66 2460   2.161   6.866   2.043  0.4160 -0.1957  0.3729
    8MOL    H67 2461   2.288   6.863   1.918  0.3381 -1.6495  1.3017
    8MOL    H68 2462   1.990   6.848   1.891  1.1185  3.8441 -0.4756
    8MOL    H69 2463   2.110   6.919   1.778  0.7154  0.7431  0.6745
    8MOL    C70 2464   2.036   6.389   1.817 -0.3348  0.3593  0.2528
    8MOL    C71 2465   2.066   6.235   1.841  0.4335 -0.0780 -0.2836
    8MOL    N72 2466   2.113   6.212   1.974  0.1324 -0.5020  0.7484
    8MOL    C73 2467   2.227   6.132   1.992  0.7628  0.4328  0.1098
    8MOL    C74 2468   2.230   6.077   2.141 -0.0623  0.0073  0.0522
    8MOL    C75 2469   2.114   6.159   2.205  0.5419  0.0011  0.0051
    8MOL    C76 2470   2.049   6.231   2.086  0.3354 -0.1955  0.1007
    8MOL    O77 2471   1.944   6.293   2.102 -0.2793 -0.1792 -0.1821
    8MOL    H78 2472   1.997   6.407   1.717  0.1861  0.7677  0.1158
    8MOL    H79 2473   1.973   6.437   1.892 -1.6934  0.4937 -0.9565
    8MOL    H80 2474   2.147   6.208   1.773  1.6741 -0.2089  1.2213
    8MOL    H81 2475   2.239   6.050   1.922  0.2638  0.6372 -0.2176
    8MOL    H82 2476   2.317   6.194   1.982  1.1257 -0.1558 -0.2981
    8MOL    H83 2477   2.216   5.969   2.138 -0.4302  0.0502  0.1697
    8MOL    H84 2478   2.322   6.102   2.195 -0.4971  1.3429  0.2082
    8MOL    H85 2479   2.042   6.091   2.251 -1.5621 -0.2435 -3.5015
    8MOL    H86 2480   2.150   6.237   2.272  1.9718 -0.8960  0.3226
    8MOL    C87 2481   1.939   6.150   1.817 -0.6888 -0.2605 -0.0735
    8MOL    C88 2482   1.926   6.083   1.677  0.6569  0.5072 -0.1780
    8MOL    N89 2483   2.050   6.011   1.642  0.2976  0.6230  0.1735
    8MOL    C90 2484   2.134   6.044   1.527 -0.8393 -0.1669  0.1996
    8MOL    C91 2485   2.260   5.959   1.542  0.2529 -0.2764  0.2343
    8MOL    C92 2486   2.219   5.848   1.636 -0.0238  0.3623  0.6549
    8MOL    C93 2487   2.089   5.896   1.701  0.7005 -0.4526 -0.7182
    8MOL    O94 2488   2.036   5.832   1.793 -0.3673  0.3910 -0.5684
    8MOL    H95 2489   1.850   6.209   1.832 -1.4663 -1.6549  0.8965
    8MOL    H96 2490   1.930   6.071   1.891 -0.8304 -0.9793 -0.8392
    8MOL    H97 2491   1.906   6.156   1.598  1.5726  0.2779 -0.6320
    8MOL    H98 2492   2.084   6.025   1.432 -1.5733  0.8140  0.3915
    8MOL    H99 2493   2.148   6.152   1.525  3.6520 -0.6485  0.5599
    8MOL   H100 2494   2.307   5.932   1.447 -1.5366 -0.4185 -0.6362
    8MOL   H101 2495   2.331   6.020   1.597  0.9823 -1.5830  0.7598
    8MOL   H102 2496   2.187   5.762   1.577  0.3692 -0.0371  1.0190
    8MOL   H103 2497   2.305   5.821   1.697  0.2715 -0.6173 -0.1750
    8MOL   C104 2498   1.795   5.996   1.684 -0.2391 -0.4649 -0.0745
    8MOL   C105 2499   1.751   5.954   1.545  0.8136 -0.5350 -0.0552
    8MOL   N106 2500   1.742   5.811   1.509 -0.3115 -0.1286  0.2176
    8MOL   C107 2501   1.842   5.765   1.415  0.6636  0.1601 -0.6359
    8MOL   C108 2502   1.821   5.617   1.414  0.8976  0.5792 -0.2110
    8MOL   C109 2503   1.691   5.584   1.477 -0.3401 -0.0170  0.5337
    8MOL   C110 2504   1.656   5.716   1.545  0.5380 -0.2795  0.1678
    8MOL   O111 2505   1.555   5.730   1.613 -0.0547  0.2600 -0.5058
    8MOL   H112 2506   1.713   6.054   1.727 -0.8916 -1.2473 -0.2655
    8MOL   H113 2507   1.800   5.907   1.746 -0.6530  0.5871  1.5193
    8MOL   H114 2508   1.825   5.989   1.473  0.8171 -1.2935 -0.4276
    8MOL   H115 2509   1.832   5.801   1.313  0.9148 -2.2660 -1.5267
    8MOL   H116 2510   1.943   5.781   1.453  0.8200  1.6248 -1.6113
    8MOL   H117 2511   1.822   5.576   1.313  0.8883 -1.1298  0.4605
    8MOL   H118 2512   1.906   5.578   1.471  1.8920  1.3562 -1.1516
    8MOL   H119 2513   1.706   5.509   1.555 -0.3459 -1.9507 -1.2486
    8MOL   H120 2514   1.612   5.550   1.410 -0.1624 -4.9986  2.6410
    8MOL   C121 2515   1.615   6.011   1.509 -0.2930 -0.6081  0.2936
    8MOL   C122 2516   1.598   6.171   1.496 -0.6176 -0.0881  0.4984
    8MOL   N123 2517   1.688   6.244   1.403 -0.1676 -0.3887 -0.2155
    8MOL   C124 2518   1.722   6.384   1.447  0.1878 -0.2015 -0.8738
    8MOL   C125 2519   1.793   6.443   1.326  0.1613 -0.4180  0.4576
    8MOL   C126 2520   1.776   6.335   1.206 -0.3182 -0.1797  0.5585
    8MOL   C127 2521   1.719   6.216   1.277  0.7415  0.3270 -0.0532
    8MOL   O128 2522   1.681   6.108   1.225  0.0900  0.2302 -0.2337
    8MOL   H129 2523   1.541   5.977   1.582  1.2480 -0.9316  1.7233
    8MOL   H130 2524   1.574   5.959   1.421  1.9230 -0.2106 -1.0022
    8MOL   H131 2525   1.603   6.216   1.595 -1.0652  1.1209 -0.0136
    8MOL   H132 2526   1.791   6.384   1.532 -0.0031 -0.1069 -0.7181
    8MOL   H133 2527   1.637   6.447   1.475  1.0886  1.3619 -1.6280
    8MOL   H134 2528   1.753   6.536   1.286 -0.0878 -1.2697 -1.3017
    8MOL   H135 2529   1.900   6.457   1.344  0.7059 -2.6935 -0.6954
    8MOL   H136 2530   1.722   6.356   1.113  0.4336 -1.9266 -0.2918
    8MOL   H137 2531   1.877   6.299   1.185 -1.3176 -1.7153 -1.8246
    8MOL   C138 2532   1.443   6.184   1.453  0.0600  0.2158 -0.0291
    8MOL   C139 2533   1.331   6.160   1.558  0.1749  0.1772  0.1562
    8MOL   N140 2534   1.352   6.252   1.671 -0.5652  0.0914 -0.7822
    8MOL   C141 2535   1.342   6.191   1.805 -0.0392  0.7478 -0.4695
    8MOL   C142 2536   1.361   6.305   1.907  0.3721 -0.1994 -0.1292
    8MOL   C143 2537   1.378   6.427   1.819  0.1888  0.2136 -0.1524
    8MOL   C144 2538   1.358   6.388   1.673 -0.0846 -0.4339  0.3206
    8MOL   O145 2539   1.364   6.470   1.582  0.1388  0.1377  0.3106
    8MOL   H146 2540   1.425   6.121   1.367 -1.3072  1.9761 -1.0771
    8MOL   H147 2541   1.422   6.282   1.411  2.0558  1.4528  1.7227
    8MOL   H148 2542   1.333   6.061   1.604 -0.3548  1.1316  2.3224
    8MOL   H149 2543   1.250   6.135   1.822  1.0410 -0.5876  1.1097
    8MOL   H150 2544   1.415   6.111   1.815  0.1161  1.0388  0.7164
    8MOL   H151 2545   1.269   6.318   1.964  0.9752 -0.3707  0.8914
    8MOL   H152 2546   1.447   6.289   1.971 -0.4398 -1.5592  0.6437
    8MOL   H153 2547   1.479   6.467   1.830 -0.4187  2.0670 -1.0945
    8MOL   H154 2548   1.308   6.508   1.838  0.2899 -0.2016  2.1073
    8MOL   C155 2549   1.196   6.177   1.488 -0.1435 -0.1171 -0.1041
    8MOL   C156 2550   1.129   6.036   1.452  0.3825 -0.7849 -0.0057
    8MOL   N157 2551   0.992   6.059   1.406  0.0160 -0.3346 -0.0573
    8MOL   C158 2552   0.884   5.974   1.456  0.3376  0.6163 -0.4575
    8MOL   C159 2553   0.758   6.031   1.394  0.1449  0.0204  0.6223
    8MOL   C160 2554   0.803   6.145   1.296  1.4248  0.3834  0.0332
    8MOL   C161 2555   0.948   6.150   1.313 -0.0682 -0.0639  0.0586
    8MOL   O162 2556   1.013   6.212   1.236  0.2627  0.3349 -0.2228
    8MOL   H163 2557   1.194   6.251   1.408 -1.9008 -0.5046 -0.4368
    8MOL   H164 2558   1.144   6.221   1.573 -0.8105  0.3011 -0.7319
    8MOL   H165 2559   1.127   5.982   1.547 -1.2994  0.9538  0.9840
    8MOL   H166 2560   0.902   5.876   1.414 -0.0528 -0.0834  0.9856
    8MOL   H167 2561   0.875   5.968   1.564  1.3286  1.8624 -0.2859
    8MOL   H168 2562   0.708   5.949   1.341  1.9187 -0.0648 -0.9613
    8MOL   H169 2563   0.690   6.073   1.468 -1.3977 -0.9512 -0.2067
    8MOL   H170 2564   0.767   6.117   1.197 -0.5412  1.5622  0.3753
    8MOL   H171 2565   0.751   6.241   1.308 -0.6543 -0.9914  2.6540
    8MOL   C172 2566   1.208   5.951   1.352  0.3763  0.3864  0.2323
    8MOL   C173 2567   1.161   5.797   1.329  0.2970  0.4902 -0.6941
    8MOL   N174 2568   1.238   5.733   1.219 -0.2717  0.1438  0.2666
    8MOL   C175 2569   1.377   5.702   1.235 -0.4805 -0.5225 -0.1226
    8MOL   C176 2570   1.429   5.698   1.095 -0.3214 -0.5649  0.8118
    8MOL   C177 2571   1.307   5.661   1.004 -0.7309 -0.6425  0.1291
    8MOL   C178 2572   1.191   5.693   1.096  0.2165 -0.5321  0.1492
    8MOL   O179 2573   1.072   5.692   1.068  0.8682  0.6997 -0.1269
    8MOL   H180 2574   1.313   5.951   1.380  0.0279 -0.2984  1.5900
    8MOL   H181 2575   1.204   6.003   1.256  2.0834  1.1582  0.5694
    8MOL   H182 2576   1.059   5.818   1.295  0.1807  0.4597 -0.3632
    8MOL   H183 2577   1.440   5.774   1.288 -0.3253 -1.1378  0.5309
    8MOL   H184 2578   1.399   5.609   1.287 -0.6054  0.9441  2.6002
    8MOL   H185 2579   1.501   5.618   1.079 -0.5261 -0.3642 -1.2999
    8MOL   H186 2580   1.477   5.793   1.073 -0.4391 -0.8312 -0.6414
    8MOL   H187 2581   1.299   5.734   0.923  2.8040 -1.1008 -0.7034
    8MOL   H188 2582   1.307   5.556   0.973  1.7623  0.1550 -2.7486
    8MOL   C189 2583   1.176   5.712   1.456  0.0371  0.2588 -0.2368
    8MOL   C190 2584   1.123   5.564   1.439  0.5549 -0.0802 -0.0314
    8MOL   N191 2585   1.191   5.486   1.543 -0.0509  0.2878  0.3284
    8MOL   C192 2586   1.173   5.513   1.686  0.6295  0.1478  0.0154
    8MOL   C193 2587   1.260   5.412   1.751 -0.1533  0.0497 -0.0992
    8MOL   C194 2588   1.351   5.358   1.649 -0.1391  0.8908  0.3688
    8MOL   C195 2589   1.296   5.405   1.518  0.6823 -0.0918  0.4312
    8MOL   O196 2590   1.339   5.385   1.401  0.3964 -0.2348  0.3727
    8MOL   H197 2591   1.117   5.754   1.538  1.4870 -0.5445  1.2569
    8MOL   H198 2592   1.274   5.711   1.504 -0.8625 -0.8304  1.6252
    8MOL   H199 2593   1.164   5.529   1.344  0.0524 -0.2232 -0.1948
    8MOL   H200 2594   1.206   5.614   1.709 -0.1210  0.2281  0.7460
    8MOL   H201 2595   1.069   5.498   1.715 -0.1434  2.4235 -1.4491
    8MOL   H202 2596   1.310   5.444   1.842  0.8813  0.0024 -0.6427
    8MOL   H203 2597   1.197   5.330   1.785 -0.2588  0.8740  1.7761
    8MOL   H204 2598   1.455   5.378   1.673 -0.1194 -0.2686  1.3269
    8MOL   H205 2599   1.329   5.251   1.646  2.9100  0.2517 -0.7579
    8MOL   C206 2600   0.964   5.574   1.447 -0.6313 -0.7718 -0.2266
    8MOL   C207 2601   0.891   5.455   1.388  0.3949  0.6903  0.2187
    8MOL   N208 2602   0.925   5.328   1.453  0.0585 -0.1445 -0.2829
    8MOL   C209 2603   0.989   5.224   1.380  0.2699 -0.1570  0.5448
    8MOL   C210 2604   1.021   5.120   1.481  0.7084  0.2995  0.0131
    8MOL   C211 2605   0.985   5.165   1.621 -0.4033 -0.1647  0.0437
    8MOL   C212 2606   0.906   5.298   1.583  0.3062 -0.8811  0.6955
    8MOL   O213 2607   0.837   5.363   1.661 -0.4317  0.1229  0.1110
    8MOL   H214 2608   0.925   5.660   1.393  1.1792  1.1297  1.4383
    8MOL   H215 2609   0.939   5.601   1.550  0.1897 -1.7074  0.2266
    8MOL   H216 2610   0.930   5.459   1.286  0.8776 -0.0132  0.3741
    8MOL   H217 2611   0.920   5.199   1.300  2.4092 -0.8187 -1.1146
    8MOL   H218 2612   1.073   5.258   1.320  0.5121 -0.2450  0.8334
    8MOL   H219 2613   0.992   5.018   1.454  0.7210  0.8276 -2.0945
    8MOL   H220 2614   1.129   5.110   1.489  0.7081 -1.6265 -1.8669
    8MOL   H221 2615   0.914   5.092   1.661  1.6350 -1.3851  1.4987
    8MOL   H222 2616   1.069   5.185   1.687 -0.0588 -2.8445  0.4644
    8MOL   C223 2617   0.734   5.467   1.387  0.2964 -0.4260 -0.1243
    8MOL   C224 2618   0.682   5.593   1.310  1.2071  0.6177 -0.4164
    8MOL   N225 2619   0.724   5.604   1.166  0.9923 -0.0782  0.1259
    8MOL   C226 2620   0.746   5.736   1.106  0.0140 -1.1161 -0.2637
    8MOL   C227 2621   0.772   5.701   0.957  0.0886 -0.1431  0.0400
    8MOL   C228 2622   0.763   5.545   0.944 -0.3163  0.3971  1.1574
    8MOL   C229 2623   0.741   5.499   1.081 -0.2958 -0.0114 -0.1769
    8MOL   O230 2624   0.717   5.383   1.111 -0.1390  0.3445 -0.5448
    8MOL   H231 2625   0.691   5.464   1.487  0.6979 -0.3418  0.0529
    8MOL   H232 2626   0.688   5.373   1.353 -1.8028  0.8370 -0.8691
    8MOL   H233 2627   0.715   5.688   1.352 -1.1738  0.9668  0.7806
    8MOL   H234 2628   0.660   5.802   1.118 -0.1779 -1.3551 -0.3216
    8MOL   H235 2629   0.834   5.775   1.157 -0.3855 -2.5225  1.5275
    8MOL   H236 2630   0.712   5.761   0.888  1.6852  0.5399 -0.7960
    8MOL   H237 2631   0.873   5.716   0.918 -0.6673  0.0651 -1.9141
    8MOL   H238 2632   0.673   5.517   0.889 -0.3597  0.1365  1.3627
    8MOL   H239 2633   0.860   5.506   0.915  0.2989  2.1348  0.8181
    8MOL   C240 2634   0.526   5.598   1.311  1.0474  0.3682 -0.2790
    8MOL   C241 2635   0.458   5.573   1.449 -0.1142  0.2043 -0.3968
    8MOL   N242 2636   0.517   5.651   1.561 -0.9119  0.0566  0.3666
    8MOL   C243 2637   0.546   5.581   1.686 -0.4044 -0.0672  0.2236
    8MOL   C244 2638   0.639   5.677   1.759 -0.0529  0.5460 -0.5376
    8MOL   C245 2639   0.616   5.815   1.694 -0.3589  0.2679 -0.2203
    8MOL   C246 2640   0.545   5.782   1.566  0.3004  0.0768  0.7126
    8MOL   O247 2641   0.508   5.870   1.486 -0.2963 -0.3981 -0.1670
    8MOL   H248 2642   0.488   5.518   1.248  2.0773 -0.3462 -0.0091
    8MOL   H249 2643   0.489   5.692   1.269  3.9528  0.5613 -2.6036
    8MOL   H250 2644   0.468   5.465   1.460 -1.6182  0.1897  1.0216
    8MOL   H251 2645   0.444   5.563   1.720 -1.2021  1.9501 -1.0126
    8MOL   H252 2646   0.596   5.485   1.674  0.0055  0.1124  0.4743
    8MOL   H253 2647   0.607   5.676   1.864 -0.5164  0.9530 -0.6734
    8MOL   H254 2648   0.741   5.644   1.742  0.0409 -0.7498  2.2130
    8MOL   H255 2649   0.554   5.890   1.745 -1.2128 -0.6406  0.0959
    8MOL   H256 2650   0.701   5.876   1.664 -0.4095  0.3578 -0.1797
    8MOL   C257 2651   0.314   5.622   1.441  0.3905 -0.0634  0.1644
    8MOL   C258 2652   0.225   5.579   1.314 -0.0518 -0.1431  0.1702
    8MOL   N259 2653   0.208   5.435   1.308 -0.9026  0.1933 -0.1941
    8MOL   C260 2654   0.258   5.362   1.193 -0.0026 -0.5471 -0.0571
    8MOL   C261 2655   0.181   5.236   1.185 -0.3784 -0.1863  0.0297
    8MOL   C262 2656   0.107   5.224   1.321  0.1079 -0.3334  0.5394
    8MOL   C263 2657   0.140   5.358   1.383  0.6451 -0.5375  0.0163
    8MOL   O264 2658   0.084   5.386   1.491  0.2030  0.1996  0.2958
    8MOL   H265 2659   0.303   5.729   1.461 -0.2400  0.3447 -2.2371
    8MOL   H266 2660   0.260   5.577   1.525 -0.9081  0.9477 -0.1118
    8MOL   H267 2661   0.266   5.605   1.217  0.0317 -1.1918 -0.0785
    8MOL   H268 2662   0.238   5.416   1.100 -0.4073 -0.6067 -0.0094
    8MOL   H269 2663   0.365   5.346   1.203  0.0984  0.3492  0.2809
    8MOL   H270 2664   0.106   5.219   1.108  2.5400 -0.0976 -2.9773
    8MOL   H271 2665   0.259   5.162   1.168  0.5996  0.6660  0.6986
    8MOL   H272 2666   7.904   5.213   1.314  0.3458 -1.0576 -2.8099
    8MOL   H273 2667   0.151   5.134   1.365 -0.2356 -0.8573 -0.1680
    8MOL   C274 2668   0.093   5.652   1.316 -0.0765 -0.5654 -0.7109
    8MOL   C275 2669   0.002   5.636   1.191  0.7618  0.8910  0.7817
    8MOL   N276 2670   7.776   5.681   1.225 -0.1045  0.4489  1.0541
    8MOL   C277 2671   7.683   5.591   1.272  0.5516 -0.1715  0.6946
    8MOL   C278 2672   7.567   5.673   1.336  0.6581 -0.2163 -0.3400
    8MOL   C279 2673   7.597   5.824   1.313 -0.1507  0.3657  0.1288
    8MOL   C280 2674   7.736   5.814   1.246  0.0680  0.8845  0.5344
    8MOL   O281 2675   7.812   5.909   1.227 -0.4752 -0.1920  0.2823
    8MOL   H282 2676   0.116   5.757   1.332  0.7040 -0.4215 -2.7421
    8MOL   H283 2677   0.021   5.634   1.396  0.4532 -0.6600 -0.2495
    8MOL   H284 2678   7.899   5.527   1.184  0.7491  0.9035  0.6229
    8MOL   H285 2679   7.652   5.540   1.181  0.4495  2.6848 -0.9449
    8MOL   H286 2680   7.721   5.526   1.351  2.3529 -0.4024 -0.3621
    8MOL   H287 2681   7.476   5.642   1.284  2.7107 -2.4671 -2.7494
    8MOL   H288 2682   7.567   5.650   1.443  0.7597  1.0559 -0.0592
    8MOL   H289 2683   7.525   5.875   1.249 -1.4275 -0.4480  0.9004
    8MOL   H290 2684   7.605   5.874   1.410 -1.1595  0.3773  0.2112
    8MOL   C291 2685   0.063   5.693   1.053  0.1935 -0.2033 -0.3819
    8MOL   C292 2686   7.868   5.682   0.935 -0.5064  0.2655 -0.2494
    8MOL   N293 2687   0.032   5.751   0.825 -0.2103  0.2907 -0.5319
    8MOL   C294 2688   7.893   5.886   0.790 -0.2276  0.1821  0.6229
    8MOL   C295 2689   0.070   5.934   0.672  0.1869 -0.9283  0.6138
    8MOL   C296 2690   0.191   5.842   0.671 -0.2257 -0.0267 -0.2201
    8MOL   C297 2691   0.150   5.727   0.761  0.4218  0.0322 -0.7558
    8MOL   O298 2692   0.226   5.625   0.771  0.0998 -0.2138  0.2951
    8MOL   H299 2693   0.155   5.643   1.023 -0.3566 -0.3026 -1.9723
    8MOL   H300 2694   0.082   5.799   1.068 -0.2588  0.2664 -2.7870
    8MOL   H301 2695   7.773   5.734   0.949 -0.5497  0.5901 -1.7151
    8MOL   H302 2696   7.784   5.882   0.779  0.0173  0.1677 -2.0799
    8MOL   H303 2697   0.003   5.947   0.880 -0.9662  2.5276 -0.7982
    8MOL   H304 2698   0.029   5.907   0.574 -0.6919 -0.5670  0.8808
    8MOL   H305 2699   0.103   6.038   0.673 -0.9047 -0.5792  1.8827
    8MOL   H306 2700   0.241   5.815   0.578  0.2970  0.6466 -0.1369
    8MOL   H307 2701   0.275   5.894   0.718 -0.7239  0.9444 -0.3900
    8MOL   C308 2702   7.829   5.539   0.892 -0.1671 -0.6208  0.0573
    8MOL   C309 2703   7.689   5.525   0.826 -0.2752  0.6614 -0.1209
    8MOL   N310 2704   7.674   5.606   0.705 -0.6567 -0.5124 -0.4504
    8MOL   C311 2705   7.552   5.686   0.695 -0.2673  0.1692  0.0876
    8MOL   C312 2706   7.548   5.759   0.561 -0.2503  0.3312  0.3853
    8MOL   C313 2707   7.676   5.714   0.498  0.0020  0.1849 -0.4963
    8MOL   C314 2708   7.736   5.608   0.592  0.5194  0.0847  0.7246
    8MOL   O315 2709   7.839   5.542   0.570  0.3031 -0.0986 -0.6829
    8MOL   H316 2710   7.830   5.480   0.983 -2.4758 -2.6818 -1.1770
    8MOL   H317 2711   0.002   5.479   0.846 -0.1582 -0.9605  0.5124
    8MOL   H318 2712   7.619   5.559   0.902  0.9450 -1.5337  2.0562
    8MOL   H319 2713   7.457   5.641   0.724  0.0286  0.4723  1.5416
    8MOL   H320 2714   7.556   5.757   0.777  1.3648  0.4016 -0.1778
    8MOL   H321 2715   7.463   5.732   0.500 -0.1542  1.9374 -0.4784
    8MOL   H322 2716   7.555   5.867   0.577  3.2830  0.0617  1.0985
    8MOL   H323 2717   7.660   5.677   0.397  1.8029  0.6637 -0.9714
    8MOL   H324 2718   7.750   5.794   0.504  1.8802 -1.5478 -0.1641
    8MOL   C325 2719   7.658   5.377   0.794 -0.3319  0.2912  0.3908
    8MOL   C326 2720   7.672   5.272   0.905 -0.3318  0.3500 -0.5127
    8MOL   N327 2721   7.591   5.291   1.026 -0.2362 -0.6647 -0.7841
    8MOL   C328 2722   7.632   5.240   1.156 -0.0396  0.4400  0.0069
    8MOL   C329 2723   7.516   5.250   1.256 -0.0522 -0.4781  0.4581
    8MOL   C330 2724   7.400   5.304   1.167  0.8930 -1.0391 -0.2951
    8MOL   C331 2725   7.460   5.326   1.031 -0.2132  0.0679  0.3522
    8MOL   O332 2726   7.395   5.380   0.940  0.2137 -0.1886  0.1744
    8MOL   H333 2727   7.737   5.357   0.721 -0.0040  0.0715  0.8091
    8MOL   H334 2728   7.559   5.377   0.748  0.0348  0.5518 -0.4121
    8MOL   H335 2729   7.773   5.268   0.945 -1.1400 -0.0240  1.5141
    8MOL   H336 2730   7.673   5.139   1.145 -0.0052  0.4383  0.1501
    8MOL   H337 2731   7.712   5.304   1.191  1.2241 -1.0043 -0.1852
    8MOL   H338 2732   7.496   5.152   1.300 -0.1425  0.2998  2.1943
    8MOL   H339 2733   7.543   5.321   1.335 -0.7710 -0.4679  0.6955
    8MOL   H340 2734   7.316   5.235   1.175  0.0329  0.1329  1.0591
    8MOL   H341 2735   7.371   5.404   1.200 -2.8224 -1.8425 -0.9678
    8MOL   H342 2736   7.639   5.175   0.868 -0.3959 -0.1187  0.7665
    9MOL     C1 2737   7.805   0.984   1.247  0.4897 -0.3555  0.4305
    9MOL     C2 2738   7.698   1.076   1.187 -0.1251 -0.4602 -0.2722
    9MOL     N3 2739   7.587   1.009   1.121  0.1779  0.5884  0.7880
    9MOL     C4 2740   7.574   1.006   0.974 -0.1319 -0.3934 -0.5001
    9MOL     C5 2741   7.440   0.929   0.952 -0.0492  0.5011 -0.2410
    9MOL     C6 2742   7.389   0.888   1.089 -0.4604  0.0430 -1.2028
    9MOL     C7 2743   7.495   0.934   1.185 -0.1524 -0.2040 -0.5519
    9MOL     O8 2744   7.493   0.901   1.303  0.1764  0.3817 -0.5030
    9MOL     H9 2745   7.760   0.897   1.294  0.8164 -0.2989  0.8519
    9MOL    H10 2746   7.873   0.955   1.166  1.5395  1.6288  0.5594
    9MOL    H11 2747   7.758   1.120   1.107 -0.6993  0.6730 -0.0791
    9MOL    H12 2748   7.590   1.104   0.930 -0.5091 -0.1707 -0.1474
    9MOL    H13 2749   7.652   0.941   0.934 -0.2722 -2.3971  2.3329
    9MOL    H14 2750   7.373   1.008   0.916 -0.5098  1.2699  2.2111
    9MOL    H15 2751   7.452   0.845   0.884  0.9704 -0.8173  1.5405
    9MOL    H16 2752   7.296   0.930   1.127  0.2549 -0.6063  1.3570
    9MOL    H17 2753   7.371   0.782   1.107 -0.6752  0.4368  1.0504
    9MOL    H18 2754   7.860   1.028   1.330  0.7361  0.4541 -0.1558
    9MOL    C19 2755   7.658   1.180   1.284 -0.0249  0.5562  0.2165
    9MOL    C20 2756   7.598   1.304   1.216 -0.2355 -0.6234 -0.5741
    9MOL    N21 2757   7.461   1.297   1.176  0.2279 -0.4665  0.5530
    9MOL    C22 2758   7.431   1.345   1.044  0.0540  0.1519  0.0671
    9MOL    C23 2759   7.287   1.303   1.014  0.0478  0.3736 -0.2547
    9MOL    C24 2760   7.236   1.233   1.143 -0.0004 -0.7326 -0.3678
    9MOL    C25 2761   7.354   1.249   1.243 -0.0476 -0.1740 -0.7878
    9MOL    O26 2762   7.349   1.205   1.360  0.2510 -0.0849  0.6332
    9MOL    H27 2763   7.745   1.201   1.347  0.7305 -3.6293  0.6912
    9MOL    H28 2764   7.584   1.154   1.360 -1.0444 -1.1200 -1.3202
    9MOL    H29 2765   7.666   1.320   1.132  2.1211 -0.7746  1.2644
    9MOL    H30 2766   7.436   1.453   1.033  2.2257  0.1962  1.2593
    9MOL    H31 2767   7.496   1.306   0.966 -1.3104  1.6262 -1.8964
    9MOL    H32 2768   7.224   1.378   0.965 -0.5536 -0.0188 -0.0770
    9MOL    H33 2769   7.282   1.224   0.939 -0.6924  0.0775  0.1030
    9MOL    H34 2770   7.140   1.279   1.166 -0.1716 -2.0832  1.8172
    9MOL    H35 2771   7.226   1.125   1.141  0.3355 -0.7614 -0.4941
    9MOL    C36 2772   7.606   1.437   1.293 -0.2661 -0.5718 -0.0002
    9MOL    C37 2773   7.745   1.490   1.329  0.4614 -0.1483 -0.0730
    9MOL    N38 2774   7.812   1.525   1.202 -0.2641  0.2850  0.4610
    9MOL    C39 2775   0.016   1.437   1.166 -0.5969  0.5882 -0.3906
    9MOL    C40 2776   0.049   1.466   1.020 -0.5013  0.4860 -0.9613
    9MOL    C41 2777   7.884   1.604   0.986  0.2861  0.2210  0.1784
    9MOL    C42 2778   7.783   1.608   1.098 -0.7828 -0.0455  0.1580
    9MOL    O43 2779   7.676   1.665   1.077  0.0037  0.1875 -0.8349
    9MOL    H44 2780   7.555   1.415   1.386 -1.2820 -0.9869 -0.6459
    9MOL    H45 2781   7.549   1.512   1.238  0.3000  0.4119  0.7445
    9MOL    H46 2782   7.802   1.417   1.387 -1.0520 -0.4864  0.9938
    9MOL    H47 2783   0.106   1.443   1.228 -0.8674 -0.5455  0.1303
    9MOL    H48 2784   7.896   1.332   1.182 -2.6882  1.2179  0.4537
    9MOL    H49 2785   0.156   1.480   1.002 -0.0483  0.3744  1.4765
    9MOL    H50 2786   0.005   1.386   0.960  0.8948 -0.1083 -1.2105
    9MOL    H51 2787   0.042   1.692   0.982 -0.4668  0.9270  2.6715
    9MOL    H52 2788   7.824   1.589   0.896 -0.4161  0.1949  0.6441
    9MOL    C53 2789   7.734   1.614   1.420 -0.3054 -0.2017 -0.0129
    9MOL    C54 2790   7.690   1.581   1.568 -0.0222 -0.1496  0.2129
    9MOL    N55 2791   7.791   1.633   1.667  0.6986  0.3186 -0.2471
    9MOL    C56 2792   7.895   1.536   1.706  0.1646  0.2106  0.2081
    9MOL    C57 2793   0.097   1.618   1.776 -0.3219  0.0002  0.6349
    9MOL    C58 2794   0.043   1.764   1.780  0.0840 -0.0366  0.0074
    9MOL    C59 2795   7.810   1.760   1.712 -0.5829 -0.0377 -0.1655
    9MOL    O60 2796   7.739   1.858   1.695 -0.7003  0.0820  0.2053
    9MOL    H61 2797   7.671   1.690   1.372 -3.8589 -1.5411  2.2984
    9MOL    H62 2798   7.836   1.651   1.420 -0.7604  1.1276 -1.4661
    9MOL    H63 2799   7.704   1.474   1.581  2.0859  0.0609 -0.0983
    9MOL    H64 2800   7.852   1.458   1.770 -1.3764 -0.1500 -1.2270
    9MOL    H65 2801   0.042   1.490   1.622  1.2867 -1.1880  1.6495
    9MOL    H66 2802   0.099   1.577   1.877  1.0920 -1.2693  0.1092
    9MOL    H67 2803   0.190   1.598   1.724 -0.1104  1.4252  0.4376
    9MOL    H68 2804   0.039   1.803   1.881  1.6234 -0.7359  0.3650
    9MOL    H69 2805   0.109   1.833   1.727  0.8536  0.6786  1.8658
    9MOL    C70 2806   7.550   1.633   1.594 -0.0103  0.1260  0.0715
    9MOL    C71 2807   7.496   1.604   1.737  0.8315  0.2927  0.1077
    9MOL    N72 2808   7.401   1.708   1.778 -0.1488 -0.2794 -0.0150
    9MOL    C73 2809   7.424   1.793   1.889  0.1302  0.1771  0.7817
    9MOL    C74 2810   7.310   1.890   1.909 -0.4058 -0.5476 -0.2064
    9MOL    C75 2811   7.217   1.853   1.794 -0.5090 -0.0301 -0.6191
    9MOL    C76 2812   7.285   1.733   1.723  0.1208 -0.2602  0.8386
    9MOL    O77 2813   7.240   1.679   1.620 -0.0431  0.2734 -0.1537
    9MOL    H78 2814   7.485   1.591   1.517 -0.0139  2.0894 -1.0190
    9MOL    H79 2815   7.540   1.740   1.576 -0.8833 -0.3791 -2.6253
    9MOL    H80 2816   7.577   1.626   1.807  1.5185  0.9696 -0.8935
    9MOL    H81 2817   7.441   1.729   1.976  1.6608 -1.5110 -0.7387
    9MOL    H82 2818   7.517   1.849   1.874 -0.9597  1.2115 -2.3976
    9MOL    H83 2819   7.272   1.869   2.009  2.2443  1.2361  1.2395
    9MOL    H84 2820   7.336   1.996   1.903  0.5152 -0.8155 -1.1303
    9MOL    H85 2821   7.116   1.824   1.824 -0.7942 -0.9143 -2.4008
    9MOL    H86 2822   7.208   1.927   1.715 -1.4445 -0.0578 -0.5452
    9MOL    C87 2823   7.437   1.463   1.755  0.4107 -0.6083  0.7188
    9MOL    C88 2824   7.411   1.410   1.893  0.2425 -0.1470  0.7022
    9MOL    N89 2825   7.307   1.315   1.877  0.5455 -0.0106 -0.3294
    9MOL    C90 2826   7.336   1.187   1.809  1.3095 -0.5978  0.1313
    9MOL    C91 2827   7.202   1.109   1.788 -0.1541 -0.3914 -0.0192
    9MOL    C92 2828   7.108   1.190   1.881  0.1293 -0.3521 -0.4420
    9MOL    C93 2829   7.179   1.326   1.898 -0.5142 -0.4735  0.3687
    9MOL    O94 2830   7.126   1.426   1.955 -0.4114 -0.4954  0.0005
    9MOL    H95 2831   7.499   1.388   1.706  0.0041  0.1002 -0.9424
    9MOL    H96 2832   7.348   1.474   1.694  1.8450  0.6484 -1.2270
    9MOL    H97 2833   7.377   1.492   1.956 -2.6908 -0.4847 -0.3735
    9MOL    H98 2834   7.397   1.185   1.718 -0.7201 -2.2419 -1.2299
    9MOL    H99 2835   7.389   1.127   1.883  0.7159  0.6322  1.5726
    9MOL   H100 2836   7.181   1.108   1.681  2.8224 -1.3025 -0.6280
    9MOL   H101 2837   7.217   1.009   1.827  0.0190 -0.2579  0.2608
    9MOL   H102 2838   7.008   1.203   1.839 -0.5336  0.6259  1.3791
    9MOL   H103 2839   7.087   1.152   1.981 -2.8431 -2.5388 -1.8218
    9MOL   C104 2840   7.543   1.351   1.946 -0.2753 -0.0208  0.2319
    9MOL   C105 2841   7.545   1.325   2.099  0.6402 -0.0703 -0.4222
    9MOL   N106 2842   7.659   1.239   2.138 -0.1083  0.2178  0.0645
    9MOL   C107 2843   7.635   1.110   2.199 -0.1639  0.1628 -0.2729
    9MOL   C108 2844   7.770   1.040   2.184  0.2884  0.1243  0.1170
    9MOL   C109 2845   7.867   1.139   2.131 -0.5851 -0.1127 -0.0145
    9MOL   C110 2846   7.790   1.268   2.106  0.6283  0.1934 -0.6365
    9MOL   O111 2847   7.836   1.376   2.064  0.1280 -0.2678 -0.0462
    9MOL   H112 2848   7.621   1.426   1.933 -0.1615 -0.4560 -1.8215
    9MOL   H113 2849   7.571   1.265   1.885  2.8218 -0.2409  1.8831
    9MOL   H114 2850   7.455   1.267   2.123 -1.4502  2.4405 -1.8835
    9MOL   H115 2851   7.601   1.108   2.302 -0.9540 -1.7143 -0.5399
    9MOL   H116 2852   7.562   1.058   2.137  1.0507  0.0945 -1.6923
    9MOL   H117 2853   7.813   0.998   2.274 -1.2282 -0.7547  0.4493
    9MOL   H118 2854   7.767   0.958   2.112 -0.3871  0.7712 -0.6088
    9MOL   H119 2855   0.007   1.094   2.042 -0.7909  1.7074 -1.0556
    9MOL   H120 2856   0.039   1.168   2.202 -0.1888  0.0224 -0.5001
    9MOL   C121 2857   7.543   1.448   2.184 -0.6136 -0.8839  0.2153
    9MOL   C122 2858   7.405   1.496   2.248  0.0429  0.3077  0.4688
    9MOL   N123 2859   7.376   1.402   2.360 -0.3040  0.3834  0.1179
    9MOL   C124 2860   7.266   1.306   2.363  0.4411  0.4724 -0.0310
    9MOL   C125 2861   7.257   1.242   2.504 -0.7139  0.1112  0.7503
    9MOL   C126 2862   7.393   1.274   2.560  0.0855 -0.5925 -0.2612
    9MOL   C127 2863   7.453   1.376   2.462 -0.4396 -0.4417 -1.0431
    9MOL   O128 2864   7.554   1.440   2.490 -0.0087  0.2681  0.4838
    9MOL   H129 2865   7.593   1.525   2.126 -1.2519  2.3062  3.6873
    9MOL   H130 2866   7.617   1.460   2.263 -0.7238  0.7712  0.0925
    9MOL   H131 2867   7.315   1.502   2.187 -0.7968 -1.7437  1.4694
    9MOL   H132 2868   7.295   1.229   2.292  1.1940 -0.1568  0.9520
    9MOL   H133 2869   7.165   1.340   2.341  1.1130  1.0172 -2.4517
    9MOL   H134 2870   7.191   1.282   2.581 -2.1628  0.5315 -0.6766
    9MOL   H135 2871   7.235   1.138   2.483 -3.3631  0.7488  0.1941
    9MOL   H136 2872   7.378   1.319   2.658  0.0299 -1.1823 -0.0008
    9MOL   H137 2873   7.465   1.194   2.577  3.9895  2.1171 -2.9023
    9MOL   C138 2874   7.417   1.646   2.297  0.3525 -0.1051  0.0872
    9MOL   C139 2875   7.281   1.698   2.361  0.1240  0.6369  0.3781
    9MOL   N140 2876   7.304   1.814   2.445 -0.5869  0.4448  0.3449
    9MOL   C141 2877   7.280   1.812   2.590  0.4127 -0.8591  0.0589
    9MOL   C142 2878   7.271   1.960   2.627  0.0290  0.9963 -0.4934
    9MOL   C143 2879   7.323   2.042   2.514 -0.7555 -0.7953  0.5361
    9MOL   C144 2880   7.349   1.933   2.405  0.1295 -0.2875  0.1642
    9MOL   O145 2881   7.364   1.968   2.287  0.0162  0.5596 -0.2293
    9MOL   H146 2882   7.430   1.704   2.205 -2.1945 -1.7683 -1.4005
    9MOL   H147 2883   7.502   1.663   2.362 -0.2228  1.2009  0.5170
    9MOL   H148 2884   7.241   1.619   2.425 -0.4340  0.6159  0.0043
    9MOL   H149 2885   7.193   1.753   2.619  0.2657 -0.1531  1.0712
    9MOL   H150 2886   7.357   1.751   2.639  0.5703  0.3510  1.3419
    9MOL   H151 2887   7.165   1.978   2.642 -0.4817 -1.4646 -1.0391
    9MOL   H152 2888   7.329   1.973   2.719  2.4900 -0.0278 -1.8551
    9MOL   H153 2889   7.420   2.086   2.538 -0.5941 -1.1177  0.4868
    9MOL   H154 2890   7.254   2.118   2.478 -1.6514 -0.3792  2.9959
    9MOL   C155 2891   7.174   1.721   2.250  0.0887 -0.2435 -0.3078
    9MOL   C156 2892   7.038   1.659   2.271  0.3492 -1.0303 -0.3887
    9MOL   N157 2893   6.983   1.691   2.403  0.5386  0.3671  0.7719
    9MOL   C158 2894   6.923   1.820   2.440  0.4063 -0.0593 -0.5484
    9MOL   C159 2895   6.895   1.814   2.587 -0.1959  0.0245  0.1123
    9MOL   C160 2896   6.883   1.669   2.622  0.0823 -1.2248 -0.3338
    9MOL   C161 2897   6.958   1.607   2.506  0.4965  0.2241 -0.5964
    9MOL   O162 2898   6.996   1.491   2.508 -0.2053 -0.8798 -0.0777
    9MOL   H163 2899   7.203   1.680   2.154 -0.1282 -2.5070  0.5690
    9MOL   H164 2900   7.158   1.827   2.231  1.5914 -0.0196 -0.3938
    9MOL   H165 2901   7.051   1.551   2.268  2.4018 -0.8144  0.1316
    9MOL   H166 2902   7.001   1.896   2.432  0.7166 -0.0001  2.3771
    9MOL   H167 2903   6.841   1.837   2.371 -0.7590 -0.5664  0.6860
    9MOL   H168 2904   6.961   1.874   2.650  1.8202 -2.4146  0.4198
    9MOL   H169 2905   6.798   1.863   2.588  0.0912  0.7150 -2.4048
    9MOL   H170 2906   6.923   1.657   2.723 -0.8103  4.8248  0.9531
    9MOL   H171 2907   6.778   1.638   2.618 -0.4432  0.5241 -0.6241
    9MOL   C172 2908   6.936   1.694   2.162 -0.6759  0.2216  0.4988
    9MOL   C173 2909   6.806   1.618   2.155 -0.3033 -0.1833  0.2789
    9MOL   N174 2910   6.709   1.698   2.070  0.6839  0.0535 -0.5384
    9MOL   C175 2911   6.732   1.719   1.935 -0.1214 -0.7481  0.1276
    9MOL   C176 2912   6.610   1.786   1.877  0.9188 -0.8898  0.2823
    9MOL   C177 2913   6.542   1.850   2.002 -0.4235  0.1995  0.0366
    9MOL   C178 2914   6.604   1.774   2.111  0.1651 -1.0177 -0.8205
    9MOL   O179 2915   6.575   1.797   2.228  0.5926  0.1396 -0.3130
    9MOL   H180 2916   6.983   1.683   2.064 -0.7068  0.1179  0.4948
    9MOL   H181 2917   6.919   1.801   2.171  0.6058  0.5759 -1.0733
    9MOL   H182 2918   6.763   1.624   2.254 -0.5892 -0.9649  0.2072
    9MOL   H183 2919   6.825   1.774   1.922  0.0712 -0.9128  0.7848
    9MOL   H184 2920   6.753   1.631   1.874  1.7307 -0.2645  0.0226
    9MOL   H185 2921   6.539   1.710   1.845  0.6498  0.2874 -1.9908
    9MOL   H186 2922   6.631   1.856   1.796 -1.8625  0.7518  0.9302
    9MOL   H187 2923   6.580   1.952   2.005 -1.0554  0.4064  1.2253
    9MOL   H188 2924   6.433   1.852   1.996 -0.3919  2.3418  0.0594
    9MOL   C189 2925   6.820   1.478   2.105 -0.2673 -0.0394  0.3516
    9MOL   C190 2926   6.697   1.385   2.139 -0.3542  0.2542 -0.1229
    9MOL   N191 2927   6.727   1.253   2.083 -0.1393 -0.6534 -0.3161
    9MOL   C192 2928   6.652   1.224   1.963 -0.1725  0.2453 -0.2640
    9MOL   C193 2929   6.698   1.088   1.912 -0.5457  0.4469 -0.2181
    9MOL   C194 2930   6.771   1.025   2.031 -0.5091 -0.3436 -0.2960
    9MOL   C195 2931   6.800   1.147   2.120 -0.1955 -0.1037  0.4052
    9MOL   O196 2932   6.873   1.135   2.220 -0.4206 -0.2550 -0.0933
    9MOL   H197 2933   6.907   1.435   2.154 -1.7237 -3.1316  0.3302
    9MOL   H198 2934   6.842   1.473   1.998 -0.5908  1.5646  0.2005
    9MOL   H199 2935   6.604   1.426   2.099  0.1500  0.9742 -0.5548
    9MOL   H200 2936   6.545   1.231   1.981  0.1492 -0.3875  2.1307
    9MOL   H201 2937   6.678   1.303   1.893  1.8062 -0.3420 -0.2232
    9MOL   H202 2938   6.618   1.025   1.874 -0.8172  0.8302 -0.2830
    9MOL   H203 2939   6.766   1.109   1.829 -1.4781  2.3861 -0.5132
    9MOL   H204 2940   6.710   0.952   2.083 -1.8256 -0.4451 -1.9515
    9MOL   H205 2941   6.862   0.978   1.994 -1.0843 -2.5037  0.9859
    9MOL   C206 2942   6.679   1.380   2.294  0.4921 -0.6603 -0.3621
    9MOL   C207 2943   6.583   1.275   2.358 -0.3010  0.6443  0.2690
    9MOL   N208 2944   6.581   1.280   2.507  0.2622 -0.0697 -0.1857
    9MOL   C209 2945   6.627   1.163   2.589  0.3335  0.1466  0.1903
    9MOL   C210 2946   6.585   1.195   2.731 -0.1990  0.2412  0.6374
    9MOL   C211 2947   6.513   1.329   2.728 -0.5433  0.5431 -0.4054
    9MOL   C212 2948   6.530   1.376   2.585 -0.1884  0.1442  0.2886
    9MOL   O213 2949   6.498   1.488   2.553  0.4080  0.3130 -0.2039
    9MOL   H214 2950   6.655   1.475   2.342  1.7440 -1.7188  2.4787
    9MOL   H215 2951   6.779   1.368   2.337 -0.0243  0.2900  1.1431
    9MOL   H216 2952   6.632   1.179   2.339 -1.0690 -0.1067  1.9556
    9MOL   H217 2953   6.574   1.073   2.556 -1.6600  2.2984 -2.8231
    9MOL   H218 2954   6.735   1.155   2.586  0.1492 -3.7778  0.5918
    9MOL   H219 2955   6.518   1.115   2.763  1.1412 -0.6610  1.2108
    9MOL   H220 2956   6.681   1.195   2.783  0.1957  2.7145 -0.0550
    9MOL   H221 2957   6.408   1.335   2.757 -0.1143  0.9161  1.1122
    9MOL   H222 2958   6.566   1.401   2.790 -2.6373  0.0376  2.0984
    9MOL   C223 2959   6.434   1.269   2.308 -0.1909  0.4469  0.1609
    9MOL   C224 2960   6.368   1.128   2.323 -0.3487 -0.6910 -0.1971
    9MOL   N225 2961   6.230   1.140   2.375  0.1372  0.3323 -0.5941
    9MOL   C226 2962   6.193   1.088   2.505 -1.3669 -0.9869  0.3564
    9MOL   C227 2963   6.058   1.153   2.543  0.1602  0.7812  0.7067
    9MOL   C228 2964   6.022   1.240   2.415  0.0231 -0.1319 -0.1240
    9MOL   C229 2965   6.140   1.220   2.316 -0.2139 -0.3317 -0.4658
    9MOL   O230 2966   6.144   1.276   2.203 -0.1482  0.1156 -0.6168
    9MOL   H231 2967   6.438   1.270   2.199  2.5909 -3.8169  0.1405
    9MOL   H232 2968   6.375   1.355   2.340 -1.0198  0.0196 -0.2117
    9MOL   H233 2969   6.423   1.064   2.392 -0.0642 -1.5185 -1.1804
    9MOL   H234 2970   6.189   0.980   2.490 -1.1496 -0.7728 -1.4063
    9MOL   H235 2971   6.275   1.117   2.571 -1.0668 -0.8302 -0.0843
    9MOL   H236 2972   5.981   1.079   2.563  0.3693  0.4003  0.1227
    9MOL   H237 2973   6.076   1.221   2.626  0.4700  0.7612  0.6584
    9MOL   H238 2974   5.931   1.210   2.364 -0.1184 -0.6848  0.4424
    9MOL   H239 2975   6.010   1.342   2.451  1.7194  0.7841 -2.0432
    9MOL   C240 2976   6.366   1.058   2.184 -0.5097 -0.3448  0.8184
    9MOL   C241 2977   6.308   0.910   2.185  0.7164  0.0795 -0.3885
    9MOL   N242 2978   6.272   0.861   2.052 -0.2373 -0.3190  0.7439
    9MOL   C243 2979   6.143   0.821   2.014 -0.2442 -0.2022  0.1680
    9MOL   C244 2980   6.146   0.790   1.866 -0.0404 -0.5171  0.4081
    9MOL   C245 2981   6.289   0.812   1.831 -0.7391 -0.1023 -0.6610
    9MOL   C246 2982   6.364   0.844   1.956  0.9393 -0.0040 -0.0825
    9MOL   O247 2983   6.485   0.849   1.964 -0.5644  0.4859  0.4667
    9MOL   H248 2984   6.470   1.047   2.153 -0.7632  1.5548 -0.8438
    9MOL   H249 2985   6.318   1.119   2.108 -1.1275 -0.5437  1.0523
    9MOL   H250 2986   6.212   0.914   2.236 -0.3708 -1.4713 -2.2315
    9MOL   H251 2987   6.098   0.735   2.064 -0.2784 -0.2885 -0.0132
    9MOL   H252 2988   6.069   0.901   2.023  0.8299  0.6798  1.5587
    9MOL   H253 2989   6.124   0.685   1.847 -1.5529 -0.1706  0.1337
    9MOL   H254 2990   6.067   0.839   1.808 -0.2826  1.2276  2.1378
    9MOL   H255 2991   6.335   0.721   1.791  1.4758  0.1300  1.1879
    9MOL   H256 2992   6.307   0.888   1.756 -2.5120 -0.7345 -1.7494
    9MOL   C257 2993   6.409   0.818   2.258  1.0649  0.0364  0.5866
    9MOL   C258 2994   6.377   0.665   2.263 -0.4822 -0.8385 -1.3326
    9MOL   N259 2995   6.505   0.581   2.241  0.7386  0.0827  0.5820
    9MOL   C260 2996   6.523   0.483   2.137  0.1686 -0.4440  0.6274
    9MOL   C261 2997   6.676   0.453   2.129  0.4506  0.1969 -0.3684
    9MOL   C262 2998   6.735   0.535   2.247 -0.2870  0.1774 -0.3369
    9MOL   C263 2999   6.611   0.581   2.319 -0.6349 -0.4036  0.0786
    9MOL   O264 3000   6.616   0.640   2.422  0.0200  0.0035 -0.1863
    9MOL   H265 3001   6.430   0.854   2.358  1.3690  0.8394  0.2353
    9MOL   H266 3002   6.507   0.827   2.211  0.1927  3.1090 -0.7627
    9MOL   H267 3003   6.318   0.643   2.174 -0.9566 -1.2430 -0.9185
    9MOL   H268 3004   6.469   0.393   2.166 -1.7899  0.5439  0.1551
    9MOL   H269 3005   6.485   0.509   2.037 -3.1938 -0.5637  1.7953
    9MOL   H270 3006   6.693   0.347   2.152 -0.9684 -0.4551 -2.1695
    9MOL   H271 3007   6.726   0.482   2.037 -1.3295  2.1240 -0.7487
    9MOL   H272 3008   6.800   0.475   2.310 -0.9382  0.0520  0.2149
    9MOL   H273 3009   6.795   0.617   2.206 -0.3977 -0.2268 -1.3360
    9MOL   C274 3010   6.300   0.621   2.389 -0.1365 -0.0243 -0.7425
    9MOL   C275 3011   6.224   0.487   2.374  0.3073  0.2527  0.6527
    9MOL   N276 3012   6.194   0.446   2.511  0.0869 -0.0914  0.2895
    9MOL   C277 3013   6.294   0.362   2.583  0.1283 -0.6997 -0.7366
    9MOL   C278 3014   6.239   0.349   2.720  0.1499  0.4517 -0.5674
    9MOL   C279 3015   6.113   0.435   2.730  0.3464 -0.6034 -0.0971
    9MOL   C280 3016   6.113   0.505   2.602  0.1572  0.4532  0.1921
    9MOL   O281 3017   6.034   0.594   2.580 -0.1321  0.5140  0.2933
    9MOL   H282 3018   6.215   0.690   2.398 -0.0357  0.0165 -0.0959
    9MOL   H283 3019   6.357   0.632   2.481 -1.6418  0.2818  0.1713
    9MOL   H284 3020   6.291   0.407   2.341 -1.5388 -1.2023  0.3278
    9MOL   H285 3021   6.270   0.263   2.543  0.7270 -0.2522 -2.2501
    9MOL   H286 3022   6.398   0.393   2.578 -0.2698  0.4749 -1.9631
    9MOL   H287 3023   6.216   0.246   2.747  1.7351  0.0441 -0.6809
    9MOL   H288 3024   6.312   0.380   2.795 -0.2072  0.4496 -0.2182
    9MOL   H289 3025   6.020   0.381   2.746 -0.3338 -0.0625 -2.1507
    9MOL   H290 3026   6.131   0.507   2.811  2.5914  0.7847 -1.7575
    9MOL   C291 3027   6.102   0.490   2.281  0.7163  0.3440 -0.2086
    9MOL   C292 3028   6.059   0.354   2.211  0.8946  1.1290  0.0399
    9MOL   N293 3029   5.921   0.359   2.160 -0.5912  0.2339  0.2464
    9MOL   C294 3030   5.811   0.297   2.237  0.1589 -0.1074  0.7919
    9MOL   C295 3031   5.684   0.360   2.182  0.3185  0.1009  0.5195
    9MOL   C296 3032   5.727   0.407   2.051  0.3310  0.0458 -0.6097
    9MOL   C297 3033   5.871   0.435   2.057  0.5184  0.5431  0.0523
    9MOL   O298 3034   5.940   0.514   1.985 -0.0139  0.2799  0.0679
    9MOL   H299 3035   6.115   0.558   2.196 -2.2956 -0.1115 -1.0965
    9MOL   H300 3036   6.015   0.525   2.337  0.9917  0.7814 -0.0591
    9MOL   H301 3037   6.068   0.282   2.293  1.0165  1.7420  0.5754
    9MOL   H302 3038   5.813   0.188   2.239  1.0262 -0.1446 -0.7087
    9MOL   H303 3039   5.835   0.328   2.338  2.1810 -2.0688  0.9678
    9MOL   H304 3040   5.587   0.311   2.182  0.5214 -0.3328 -0.7746
    9MOL   H305 3041   5.667   0.447   2.246 -1.3210 -0.8050  1.3232
    9MOL   H306 3042   5.731   0.320   1.986  0.7650  0.8315 -1.6577
    9MOL   H307 3043   5.668   0.483   2.000 -3.1466 -0.3685  2.5509
    9MOL   C308 3044   6.163   0.302   2.107  0.2049 -0.4533  0.4813
    9MOL   C309 3045   6.113   0.207   1.988 -0.5550 -0.1217  0.2160
    9MOL   N310 3046   6.197   0.242   1.870  1.1981 -0.1332 -0.8949
    9MOL   C311 3047   6.142   0.313   1.754  0.5302 -0.1055 -0.0609
    9MOL   C312 3048   6.258   0.321   1.652  0.4129  0.5286  0.2448
    9MOL   C313 3049   6.385   0.292   1.736 -0.2503  0.1166  0.2937
    9MOL   C314 3050   6.329   0.232   1.862  0.4922 -0.3267 -0.0672
    9MOL   O315 3051   6.403   0.177   1.941 -0.2300 -0.0668  0.1089
    9MOL   H316 3052   6.253   0.270   2.159 -0.3964  0.4813  2.1395
    9MOL   H317 3053   6.194   0.400   2.069  2.5354 -0.9912  0.9258
    9MOL   H318 3054   6.010   0.226   1.961  0.0195  1.3510 -0.9857
    9MOL   H319 3055   6.044   0.278   1.721  0.5329  1.6290 -1.9831
    9MOL   H320 3056   6.133   0.417   1.784  0.5777 -0.2925  0.5957
    9MOL   H321 3057   6.247   0.240   1.580 -1.4785  1.2764 -0.3360
    9MOL   H322 3058   6.258   0.412   1.593 -0.9640  0.0295 -0.5517
    9MOL   H323 3059   6.457   0.237   1.676 -1.3284  1.4678 -2.3469
    9MOL   H324 3060   6.432   0.387   1.762 -1.1226  1.0179 -1.3070
    9MOL   C325 3061   6.126   0.056   2.021 -0.3440 -0.3225 -0.2191
    9MOL   C326 3062   6.032   0.008   2.130 -0.2620  0.9790  0.4106
    9MOL   N327 3063   6.026   7.771   2.158 -0.3909  0.0336  0.9766
    9MOL   C328 3064   6.025   7.731   2.292  0.3558 -0.0422 -0.4696
    9MOL   C329 3065   5.988   7.586   2.291 -0.6892  0.3722  0.4340
    9MOL   C330 3066   5.996   7.537   2.147 -0.2908  0.1426 -0.3135
    9MOL   C331 3067   6.010   7.670   2.071 -0.2577  0.2168 -0.4409
    9MOL   O332 3068   6.005   7.683   1.950  0.1776  0.0181 -0.2091
    9MOL   H333 3069   6.231   0.056   2.049 -0.3034 -1.0944 -0.3547
    9MOL   H334 3070   6.117   0.001   1.927 -0.5185 -0.8540  0.1122
    9MOL   H335 3071   5.931   0.044   2.109 -0.5096  0.0534  0.0233
    9MOL   H336 3072   6.124   7.747   2.335 -0.2158 -0.7595  1.1481
    9MOL   H337 3073   5.950   7.792   2.343 -0.7467 -1.1177 -0.7803
    9MOL   H338 3074   6.074   7.542   2.343 -0.2023 -0.6023 -1.1599
    9MOL   H339 3075   5.895   7.564   2.342 -0.1865 -1.4929  0.5804
    9MOL   H340 3076   6.081   7.472   2.127 -1.0970 -1.5133  1.5345
    9MOL   H341 3077   5.901   7.499   2.111  0.4391 -1.2293 -0.8303
    9MOL   H342 3078   6.058   0.052   2.227  1.2578  1.7208 -0.3154
   10MOL     C1 3079   5.838   4.172   6.803  0.2495 -0.2825 -0.2122
   10MOL     C2 3080   5.876   4.157   6.665 -0.0272 -0.0107  0.2421
   10MOL     N3 3081   5.970   4.266   6.626  0.3895 -0.5242 -0.7778
   10MOL     C4 3082   5.931   4.342   6.503  0.5753  0.6543  0.0683
   10MOL     C5 3083   6.044   4.439   6.477  0.4048  0.7130  0.8631
   10MOL     C6 3084   6.145   4.421   6.593  0.3941 -0.0056  0.2002
   10MOL     C7 3085   6.089   4.303   6.674  0.8382  0.3157  0.1316
   10MOL     O8 3086   6.145   4.259   6.771  0.0401  0.9134 -0.1248
   10MOL     H9 3087   5.907   4.121   6.869  0.7243 -0.7014 -1.0285
   10MOL    H10 3088   5.819   4.275   6.835 -0.3168 -0.3100 -0.4551
   10MOL    H11 3089   5.787   4.172   6.604 -0.0768  1.7845  0.7008
   10MOL    H12 3090   5.929   4.269   6.422  1.2732  0.6873  0.0197
   10MOL    H13 3091   5.832   4.388   6.513 -0.3958 -0.9031 -2.0953
   10MOL    H14 3092   6.094   4.423   6.382  1.1286  1.9275  1.0356
   10MOL    H15 3093   6.022   4.545   6.481 -1.8455  0.2640  0.9223
   10MOL    H16 3094   6.246   4.404   6.555  0.8062  1.1060  0.7865
   10MOL    H17 3095   6.141   4.512   6.653 -1.6831 -1.2978  2.0567
   10MOL    H18 3096   5.752   4.105   6.814  0.6464 -0.9127 -0.8893
   10MOL    C19 3097   5.939   4.019   6.622 -0.0066  0.0293  0.5285
   10MOL    C20 3098   5.850   3.897   6.652  0.3843 -0.7197 -0.0207
   10MOL    N21 3099   5.757   3.865   6.543 -0.1985 -0.1137  0.0305
   10MOL    C22 3100   5.617   3.875   6.571  0.5340 -0.1002  0.0698
   10MOL    C23 3101   5.544   3.858   6.435 -0.0123 -1.0107 -0.1223
   10MOL    C24 3102   5.654   3.871   6.333 -0.2276  0.0381 -0.3525
   10MOL    C25 3103   5.778   3.849   6.416 -0.4991 -0.1997  0.4206
   10MOL    O26 3104   5.887   3.828   6.360  0.1945  0.6405  0.7640
   10MOL    H27 3105   6.033   4.019   6.677 -0.3182  1.0041  1.0812
   10MOL    H28 3106   5.965   4.025   6.516 -1.3863  0.7026  0.2178
   10MOL    H29 3107   5.793   3.911   6.744 -0.4023  0.9168 -0.7277
   10MOL    H30 3108   5.591   3.797   6.643 -3.2263  0.1805 -0.8638
   10MOL    H31 3109   5.605   3.975   6.613  2.0367 -0.2671  0.9405
   10MOL    H32 3110   5.491   3.764   6.425 -2.0466  0.1108 -0.2456
   10MOL    H33 3111   5.477   3.943   6.420  1.3256  0.2139  0.6152
   10MOL    H34 3112   5.642   3.791   6.260 -0.0951 -0.6289  0.3587
   10MOL    H35 3113   5.657   3.962   6.273  0.7304 -0.5207 -1.1819
   10MOL    C36 3114   5.948   3.778   6.679  0.5216 -0.2082  0.5883
   10MOL    C37 3115   6.025   3.780   6.816  0.3458  0.0806  0.4752
   10MOL    N38 3116   5.931   3.791   6.935 -0.4137 -0.5425  0.4063
   10MOL    C39 3117   5.964   3.881   7.042  0.1542 -0.2042 -0.5901
   10MOL    C40 3118   5.880   3.856   7.163  0.5748 -0.6173  0.0206
   10MOL    C41 3119   5.773   3.763   7.117  0.7510  0.5091  0.2604
   10MOL    C42 3120   5.821   3.724   6.969 -0.4265  0.0898  1.0166
   10MOL    O43 3121   5.771   3.638   6.905 -0.6379  0.2107 -0.1608
   10MOL    H44 3122   6.030   3.778   6.607  0.5650  1.0844  0.6210
   10MOL    H45 3123   5.891   3.685   6.675  1.0524 -0.5102 -0.0216
   10MOL    H46 3124   6.097   3.862   6.815  0.3551  0.0571 -1.3234
   10MOL    H47 3125   6.066   3.850   7.066  0.5184  1.7953  0.5367
   10MOL    H48 3126   5.951   3.978   6.995  0.1503  0.2239  0.3011
   10MOL    H49 3127   5.927   3.798   7.242  0.1221  0.5530  1.1717
   10MOL    H50 3128   5.848   3.951   7.206 -0.9769 -1.8181  1.6328
   10MOL    H51 3129   5.756   3.675   7.178  2.1329  1.6999  2.4061
   10MOL    H52 3130   5.672   3.804   7.115  0.9730  1.1352  1.6979
   10MOL    C53 3131   6.096   3.645   6.840  0.1577 -0.0279 -0.3918
   10MOL    C54 3132   6.219   3.641   6.757 -0.4858  0.6001  0.2121
   10MOL    N55 3133   6.313   3.742   6.805  0.5627 -0.5245  0.6998
   10MOL    C56 3134   6.371   3.822   6.697 -0.1752 -0.6557  0.0178
   10MOL    C57 3135   6.469   3.915   6.768  0.2681 -0.6108 -0.7271
   10MOL    C58 3136   6.503   3.856   6.906  0.3540 -0.6010 -0.4586
   10MOL    C59 3137   6.381   3.766   6.923  0.4823  0.2935 -0.1621
   10MOL    O60 3138   6.343   3.716   7.030  0.1009  0.6762 -0.0117
   10MOL    H61 3139   6.027   3.565   6.816  0.0292 -0.3012  0.8539
   10MOL    H62 3140   6.136   3.636   6.941  0.6412 -2.2215 -0.7578
   10MOL    H63 3141   6.199   3.663   6.653 -0.6927  0.9491  0.3235
   10MOL    H64 3142   6.440   3.761   6.637  2.6105 -0.1779  2.6023
   10MOL    H65 3143   6.307   3.886   6.637 -0.1005  1.0936  1.7692
   10MOL    H66 3144   6.553   3.928   6.701  2.3305 -0.2764  1.8319
   10MOL    H67 3145   6.423   4.010   6.795 -0.1316 -0.7160 -1.0232
   10MOL    H68 3146   6.575   3.774   6.902  0.0168 -0.8317 -2.2586
   10MOL    H69 3147   6.508   3.928   6.987 -2.3614 -2.4759  1.4827
   10MOL    C70 3148   6.275   3.496   6.771 -0.0589  0.7467  0.5893
   10MOL    C71 3149   6.207   3.404   6.663  0.4101  0.1669  0.1481
   10MOL    N72 3150   6.238   3.441   6.529 -0.9231 -0.0487  0.0749
   10MOL    C73 3151   6.129   3.484   6.439  0.0342 -0.1923  0.4271
   10MOL    C74 3152   6.203   3.541   6.319 -0.8622  0.1427  0.2834
   10MOL    C75 3153   6.348   3.520   6.347 -0.6885 -0.6082  0.0872
   10MOL    C76 3154   6.359   3.441   6.473 -0.0691 -0.1839  0.3140
   10MOL    O77 3155   6.468   3.396   6.514  0.7547  0.3284 -0.2850
   10MOL    H78 3156   6.257   3.458   6.872  1.8292 -2.2498 -0.1456
   10MOL    H79 3157   6.383   3.488   6.762 -0.0471  0.7158  0.7638
   10MOL    H80 3158   6.099   3.415   6.671  0.3824  1.0798 -1.4174
   10MOL    H81 3159   6.082   3.386   6.424  0.2361 -0.5081  1.7756
   10MOL    H82 3160   6.055   3.552   6.482  1.1085  0.1359  1.7628
   10MOL    H83 3161   6.179   3.485   6.229  2.8494  1.1067 -1.4127
   10MOL    H84 3162   6.176   3.643   6.295  0.5163  0.1167 -1.4805
   10MOL    H85 3163   6.400   3.463   6.269 -3.3308 -1.1867 -1.3380
   10MOL    H86 3164   6.399   3.614   6.364  0.8045 -0.9863 -2.0454
   10MOL    C87 3165   6.243   3.255   6.689 -0.6083 -0.6368 -0.1625
   10MOL    C88 3166   6.161   3.193   6.801 -0.5563 -0.4802  0.1809
   10MOL    N89 3167   6.013   3.216   6.785 -0.1240 -0.3950 -0.8970
   10MOL    C90 3168   5.932   3.280   6.892  0.1757 -0.1079  0.1979
   10MOL    C91 3169   5.806   3.321   6.825 -0.1101 -0.5203 -0.5484
   10MOL    C92 3170   5.797   3.237   6.698 -0.0476 -0.2245  0.1621
   10MOL    C93 3171   5.936   3.181   6.681  0.2103  0.0523 -0.5917
   10MOL    O94 3172   5.969   3.129   6.573 -0.0273 -0.4775 -0.3870
   10MOL    H95 3173   6.350   3.242   6.705 -0.6483  0.4818  1.1370
   10MOL    H96 3174   6.230   3.202   6.595 -0.4314  0.1413 -0.6273
   10MOL    H97 3175   6.195   3.249   6.888  0.2140  1.0367 -1.0600
   10MOL    H98 3176   5.916   3.200   6.964 -2.8810  0.8317  0.6147
   10MOL    H99 3177   5.981   3.370   6.930 -0.6159  0.6458 -0.5696
   10MOL   H100 3178   5.716   3.319   6.885  1.3000  2.6554  1.8144
   10MOL   H101 3179   5.815   3.425   6.794  1.7763 -0.3841  0.3218
   10MOL   H102 3180   5.722   3.161   6.718 -2.2385  2.2652  1.7832
   10MOL   H103 3181   5.759   3.296   6.615  1.0903 -0.3652 -0.4626
   10MOL   C104 3182   6.197   3.037   6.808  0.6415 -0.0447 -0.0006
   10MOL   C105 3183   6.116   2.939   6.894  0.3132  0.2652  0.0821
   10MOL   N106 3184   6.136   2.805   6.828  0.1067 -0.1331 -0.8861
   10MOL   C107 3185   6.021   2.734   6.785  0.4290  0.1503  0.6498
   10MOL   C108 3186   6.075   2.625   6.697 -0.2150  0.5581  0.6741
   10MOL   C109 3187   6.229   2.640   6.689 -0.3600  0.0457 -0.3965
   10MOL   C110 3188   6.252   2.749   6.787 -0.0899  0.5275 -0.3472
   10MOL   O111 3189   6.363   2.784   6.825  0.3980 -0.1660  0.2903
   10MOL   H112 3190   6.303   3.028   6.829  0.6262 -2.6542 -0.9495
   10MOL   H113 3191   6.185   3.007   6.704 -1.0193 -1.1195  0.4850
   10MOL   H114 3192   6.010   2.963   6.900  0.2622 -0.1033  0.6671
   10MOL   H115 3193   5.970   2.698   6.874 -1.9700 -0.9245 -1.1184
   10MOL   H116 3194   5.961   2.810   6.736 -2.1106 -1.4112  1.2273
   10MOL   H117 3195   6.047   2.528   6.738  2.8429 -1.0720 -0.9696
   10MOL   H118 3196   6.034   2.633   6.597  0.8267 -2.5767 -0.0474
   10MOL   H119 3197   6.255   2.676   6.590 -2.3133 -0.1530 -0.9988
   10MOL   H120 3198   6.280   2.549   6.721  0.5815  0.5708 -0.3561
   10MOL   C121 3199   6.179   2.917   7.036  0.2426 -0.0258  0.2288
   10MOL   C122 3200   6.168   3.036   7.137  0.6688  0.3498  0.0392
   10MOL   N123 3201   6.028   3.064   7.179 -0.5348 -0.1181  0.0847
   10MOL   C124 3202   6.004   3.202   7.226  0.2151  0.2756  0.0420
   10MOL   C125 3203   5.855   3.202   7.265 -0.1198  0.2227 -0.6389
   10MOL   C126 3204   5.809   3.057   7.272 -0.3883 -0.2955 -0.1488
   10MOL   C127 3205   5.928   2.983   7.213  0.3578 -0.0091 -0.4962
   10MOL   O128 3206   5.927   2.860   7.195 -0.6788 -0.2523 -0.2010
   10MOL   H129 3207   6.281   2.883   7.021 -0.7965 -1.3464 -4.3832
   10MOL   H130 3208   6.121   2.836   7.080 -0.7200  0.1106 -0.7762
   10MOL   H131 3209   6.217   3.126   7.101  1.1468 -0.1479 -0.5509
   10MOL   H132 3210   6.034   3.273   7.149 -0.4822 -1.4469 -1.8498
   10MOL   H133 3211   6.072   3.220   7.309  0.7442 -0.0575 -0.3155
   10MOL   H134 3212   5.838   3.256   7.359 -1.9212  1.3362 -1.5906
   10MOL   H135 3213   5.794   3.259   7.195  2.1880  1.4151 -1.7294
   10MOL   H136 3214   5.791   3.019   7.372 -1.1049  0.5618  0.0607
   10MOL   H137 3215   5.711   3.050   7.225 -0.0638 -1.5177 -0.6596
   10MOL   C138 3216   6.246   3.007   7.263  0.4748 -0.2126  0.1720
   10MOL   C139 3217   6.405   2.999   7.244  0.3908  0.7148 -0.0815
   10MOL   N140 3218   6.471   3.117   7.192 -0.3833  0.1162 -0.5400
   10MOL   C141 3219   6.562   3.110   7.080  0.3850 -0.5873  0.6608
   10MOL   C142 3220   6.592   3.259   7.052  0.3205  0.0423 -0.2728
   10MOL   C143 3221   6.474   3.335   7.109 -0.2412 -1.0061  0.1381
   10MOL   C144 3222   6.436   3.243   7.222 -0.7667 -1.0612 -0.2182
   10MOL   O145 3223   6.368   3.283   7.314  0.5783 -0.0497 -0.0241
   10MOL   H146 3224   6.198   2.922   7.312 -0.6808 -0.4026 -1.2512
   10MOL   H147 3225   6.228   3.075   7.346  0.5955 -1.3499  1.1349
   10MOL   H148 3226   6.436   2.924   7.171  1.8689  2.4694 -1.3013
   10MOL   H149 3227   6.657   3.061   7.102 -0.1651 -1.2238  1.6347
   10MOL   H150 3228   6.514   3.058   6.998  1.2257 -0.6483  0.2011
   10MOL   H151 3229   6.685   3.281   7.105  0.6368  0.2174 -0.9025
   10MOL   H152 3230   6.595   3.267   6.944 -2.3381 -2.5863 -0.6032
   10MOL   H153 3231   6.393   3.342   7.036  0.3507  1.3689 -0.3249
   10MOL   H154 3232   6.514   3.433   7.137  1.4208 -1.2897 -1.1782
   10MOL   C155 3233   6.465   2.955   7.382  0.1509 -0.1827 -0.4933
   10MOL   C156 3234   6.436   2.818   7.439  0.8108  0.4126 -0.3467
   10MOL   N157 3235   6.496   2.720   7.342  0.2089  0.4770 -0.4675
   10MOL   C158 3236   6.409   2.644   7.256  0.0681 -0.1646 -0.8044
   10MOL   C159 3237   6.508   2.552   7.175 -0.1366 -0.1578 -0.0581
   10MOL   C160 3238   6.639   2.623   7.193 -0.5429  0.0115  0.4207
   10MOL   C161 3239   6.624   2.717   7.310 -0.5240 -0.1753  0.1332
   10MOL   O162 3240   6.715   2.775   7.360  0.1596  0.0480 -1.0222
   10MOL   H163 3241   6.425   3.022   7.458  0.4963 -1.2424  0.6573
   10MOL   H164 3242   6.572   2.973   7.373  0.5654 -2.2266  0.0677
   10MOL   H165 3243   6.328   2.812   7.437  0.7590  1.5440 -1.0797
   10MOL   H166 3244   6.340   2.584   7.315  0.8841 -3.2152 -2.8391
   10MOL   H167 3245   6.355   2.710   7.189 -1.7022 -0.6000  0.1847
   10MOL   H168 3246   6.510   2.454   7.222  3.7179 -0.9230 -1.5999
   10MOL   H169 3247   6.478   2.540   7.071  2.0802 -0.7376 -0.6678
   10MOL   H170 3248   6.729   2.564   7.212  0.1608  0.9076 -0.1011
   10MOL   H171 3249   6.664   2.684   7.106 -2.0890 -0.1616 -0.1550
   10MOL   C172 3250   6.486   2.794   7.582 -0.5919  0.0906  0.5632
   10MOL   C173 3251   6.453   2.657   7.645 -0.3582 -0.6718  0.1363
   10MOL   N174 3252   6.553   2.630   7.751  0.0239 -0.5991  0.4556
   10MOL   C175 3253   6.541   2.692   7.887 -0.1788 -0.0275  0.7584
   10MOL   C176 3254   6.671   2.645   0.054  0.2264  0.0231 -0.0589
   10MOL   C177 3255   6.732   2.536   7.869 -0.5781  0.0618 -0.0038
   10MOL   C178 3256   6.649   2.541   7.743 -1.4154  0.5605 -0.2460
   10MOL   O179 3257   6.674   2.464   7.651  0.2322 -0.1661 -0.4275
   10MOL   H180 3258   6.459   2.867   7.659 -0.8282 -1.1414  1.6697
   10MOL   H181 3259   6.594   2.804   7.581 -0.4181 -1.5795 -1.3565
   10MOL   H182 3260   6.472   2.589   7.563 -0.4881 -0.9989  0.3735
   10MOL   H183 3261   6.516   2.798   7.891 -0.0836  0.0372 -0.2965
   10MOL   H184 3262   6.459   2.641   0.032  1.4199 -3.1315  0.3700
   10MOL   H185 3263   6.646   2.588   0.144  0.3452 -0.2839 -0.2175
   10MOL   H186 3264   6.746   2.720   0.082 -0.6755  0.1016  2.3289
   10MOL   H187 3265   6.839   2.542   7.852 -0.8071  1.1860 -1.1026
   10MOL   H188 3266   6.723   2.435   0.004  0.2040 -2.0787 -4.7091
   10MOL   C189 3267   6.310   2.625   7.685 -0.0275 -0.4627 -0.6116
   10MOL   C190 3268   6.274   2.486   7.743  0.0247  0.0175  0.1286
   10MOL   N191 3269   6.190   2.502   7.861  0.6407 -0.3113 -0.7071
   10MOL   C192 3270   6.208   2.403   0.064  0.8309  0.3299  0.4380
   10MOL   C193 3271   6.089   2.418   0.157  0.1197  0.8077 -0.8574
   10MOL   C194 3272   6.007   2.533   0.105 -0.3257  0.4136  0.2597
   10MOL   C195 3273   6.090   2.589   7.892  0.1126 -0.0516  0.2340
   10MOL   O196 3274   6.061   2.680   7.820 -0.3838 -0.0509 -0.2283
   10MOL   H197 3275   6.244   2.634   7.598 -2.0494  2.6679  1.1421
   10MOL   H198 3276   6.287   2.708   7.752  0.7082 -1.4401  0.8707
   10MOL   H199 3277   6.359   2.426   7.774 -1.2573 -1.4030  0.9746
   10MOL   H200 3278   6.207   2.300   0.027 -1.7234  0.9334 -1.3658
   10MOL   H201 3279   6.304   2.423   0.110  0.4561  3.1959  0.0418
   10MOL   H202 3280   6.028   2.328   0.156  1.6417 -0.2358 -1.3127
   10MOL   H203 3281   6.121   2.447   0.256  0.6653  0.0687 -0.8153
   10MOL   H204 3282   5.914   2.494   0.063  1.5348 -1.7092 -2.0379
   10MOL   H205 3283   5.985   2.607   0.183  1.4372 -0.7043  1.8530
   10MOL   C206 3284   6.194   2.385   7.652  0.1245  0.4072  0.0401
   10MOL   C207 3285   6.262   2.313   7.535 -0.6497  0.7934  0.4160
   10MOL   N208 3286   6.390   2.255   7.575  0.3819 -0.3710 -0.3241
   10MOL   C209 3287   6.496   2.264   7.474  0.2772 -0.6146  0.0303
   10MOL   C210 3288   6.609   2.172   7.526 -0.0676  0.1632  0.2116
   10MOL   C211 3289   6.569   2.139   7.669 -0.4732 -0.1519 -0.4857
   10MOL   C212 3290   6.425   2.182   7.681 -0.6858 -0.1007  0.2011
   10MOL   O213 3291   6.347   2.132   7.762  0.0943  0.4007 -0.3668
   10MOL   H214 3292   6.112   2.429   7.595  1.6958  1.1309 -1.7030
   10MOL   H215 3293   6.138   2.308   7.706 -0.4697 -0.2780 -1.5329
   10MOL   H216 3294   6.292   2.388   7.463  2.1681 -0.8358 -0.1594
   10MOL   H217 3295   6.463   2.237   7.373  0.9516 -0.9599 -0.1017
   10MOL   H218 3296   6.537   2.365   7.482 -0.8758 -0.2665  1.6609
   10MOL   H219 3297   6.609   2.078   7.470 -3.1312 -0.1243  0.5772
   10MOL   H220 3298   6.710   2.211   7.515  0.4495 -1.2316 -0.0258
   10MOL   H221 3299   6.587   2.036   7.701 -0.1737  0.0917  0.1318
   10MOL   H222 3300   6.623   2.207   7.735  2.3681 -2.7742  0.0250
   10MOL   C223 3301   6.175   2.205   7.458 -0.2565  0.2760  0.3775
   10MOL   C224 3302   6.060   2.256   7.372  0.3418 -0.2587 -0.1386
   10MOL   N225 3303   6.099   2.352   7.273  0.1105 -0.4354  0.4400
   10MOL   C226 3304   6.042   2.487   7.282 -0.0248  0.3268 -0.2078
   10MOL   C227 3305   6.073   2.556   7.148  0.7014 -0.3196 -0.1490
   10MOL   C228 3306   6.167   2.466   7.075 -0.0331  0.0277  0.9564
   10MOL   C229 3307   6.188   2.348   7.171 -0.0922 -0.6077 -0.6861
   10MOL   O230 3308   6.273   2.260   7.159 -0.3595  0.4122 -0.0559
   10MOL   H231 3309   6.126   2.141   7.531 -0.7318 -1.9756 -1.8583
   10MOL   H232 3310   6.243   2.141   7.402  1.7122  0.7007  2.1737
   10MOL   H233 3311   5.986   2.311   7.432 -1.0082  1.1748 -3.0183
   10MOL   H234 3312   5.935   2.472   7.300  0.5641 -2.7858  1.0676
   10MOL   H235 3313   6.082   2.544   7.366  0.9832 -2.2781  1.1486
   10MOL   H236 3314   5.981   2.568   7.091  0.3717  1.0723  0.6516
   10MOL   H237 3315   6.107   2.657   7.169 -0.3024  0.4156 -1.9563
   10MOL   H238 3316   6.125   2.434   6.980 -1.9312 -0.6271  1.9872
   10MOL   H239 3317   6.259   2.519   7.050 -0.6734  0.5788 -0.2928
   10MOL   C240 3318   5.986   2.136   7.304 -0.2112  0.7485 -0.2020
   10MOL   C241 3319   5.849   2.172   7.238 -0.3014 -0.5452 -0.3878
   10MOL   N242 3320   5.807   2.066   7.133  0.8883 -0.3232  0.4824
   10MOL   C243 3321   5.809   1.924   7.158  0.9329  0.2363  0.8303
   10MOL   C244 3322   5.741   1.861   7.037  1.1679  0.9282 -1.0499
   10MOL   C245 3323   5.736   1.967   6.926 -0.8462  0.0371 -0.3394
   10MOL   C246 3324   5.773   2.090   7.006  0.0709  0.3216 -0.1298
   10MOL   O247 3325   5.786   2.200   6.956  0.0084 -0.5123 -0.4034
   10MOL   H248 3326   5.978   2.053   7.374  1.5329  2.3498  1.9975
   10MOL   H249 3327   6.052   2.096   7.226  1.3557  0.9268  0.9924
   10MOL   H250 3328   5.851   2.264   7.179  0.0593 -0.8344 -0.8352
   10MOL   H251 3329   5.909   1.882   7.159  0.1879 -1.6807 -0.5083
   10MOL   H252 3330   5.754   1.899   7.249  0.0419  0.4662  0.3654
   10MOL   H253 3331   5.787   1.766   7.009  0.0776 -0.6400  2.1274
   10MOL   H254 3332   5.640   1.844   7.073  1.8143 -0.1666  0.3222
   10MOL   H255 3333   5.816   1.944   6.856  1.4421  0.4330  2.0449
   10MOL   H256 3334   5.642   1.982   6.873 -1.4928 -0.8719  0.5232
   10MOL   C257 3335   5.739   2.176   7.345  0.3785 -0.7816 -0.0746
   10MOL   C258 3336   5.619   2.266   7.313  0.2542 -0.8833  0.0838
   10MOL   N259 3337   5.542   2.228   7.187 -1.0100 -0.3490 -0.1940
   10MOL   C260 3338   5.502   2.333   7.101  0.4052  0.0955  0.3104
   10MOL   C261 3339   5.381   2.277   7.026  0.4138 -0.0614  0.8776
   10MOL   C262 3340   5.378   2.126   7.053  0.4504  0.5854 -0.1178
   10MOL   C263 3341   5.483   2.111   7.162 -0.3287 -0.1659  0.0462
   10MOL   O264 3342   5.508   2.006   7.224  0.1634 -0.3709  0.3032
   10MOL   H265 3343   5.784   2.202   7.441 -0.2676  0.4880 -0.0977
   10MOL   H266 3344   5.687   2.082   7.363 -2.7439  0.8790 -0.0555
   10MOL   H267 3345   5.670   2.359   7.290  0.8140 -0.9075  1.1639
   10MOL   H268 3346   5.483   2.425   7.156 -0.0034  0.7734 -0.9341
   10MOL   H269 3347   5.584   2.356   7.032 -0.9231  0.5847 -1.1468
   10MOL   H270 3348   5.287   2.324   7.054 -0.3306 -0.1382 -1.4013
   10MOL   H271 3349   5.398   2.286   6.918  0.1922  1.8995  0.9836
   10MOL   H272 3350   5.278   2.094   7.081  0.1459 -0.6631 -2.4592
   10MOL   H273 3351   5.404   2.067   6.965  0.6240  1.4621 -0.6624
   10MOL   C274 3352   5.519   2.299   7.431  0.2589 -0.3990 -0.8499
   10MOL   C275 3353   5.571   2.357   7.565 -0.5891 -0.3731 -0.3946
   10MOL   N276 3354   5.639   2.484   7.536 -0.3077  0.0619 -0.6286
   10MOL   C277 3355   5.598   2.589   7.444 -0.6758 -0.7047 -0.0904
   10MOL   C278 3356   5.710   2.693   7.430  0.4998  0.2498  0.6343
   10MOL   C279 3357   5.816   2.645   7.528 -0.1140  0.5952 -0.3698
   10MOL   C280 3358   5.767   2.513   7.582 -0.3857  0.1093  0.0510
   10MOL   O281 3359   5.843   2.438   7.643  0.0801 -0.5235  0.0225
   10MOL   H282 3360   5.466   2.207   7.454  0.5367 -0.8697 -2.0474
   10MOL   H283 3361   5.437   2.354   7.387  0.1304 -1.1965 -1.6232
   10MOL   H284 3362   5.656   2.295   7.594  0.7649  0.6440 -2.0381
   10MOL   H285 3363   5.564   2.558   7.345  1.6759 -1.8733 -0.5621
   10MOL   H286 3364   5.515   2.634   7.498  1.2509  2.5487  0.3248
   10MOL   H287 3365   5.753   2.709   7.331 -1.0032  1.0745  0.0883
   10MOL   H288 3366   5.667   2.790   7.455  1.5804  0.6710  0.8982
   10MOL   H289 3367   5.909   2.635   7.472 -0.9468 -0.2684 -1.6167
   10MOL   H290 3368   5.843   2.711   7.610 -0.1726 -1.1222  1.0738
   10MOL   C291 3369   5.479   2.362   7.690 -0.0244 -0.3331 -0.4773
   10MOL   C292 3370   5.550   2.361   7.830  0.8328 -0.2975 -0.0668
   10MOL   N293 3371   5.481   2.422   0.037  0.4392 -0.2854  0.3167
   10MOL   C294 3372   5.545   2.531   0.115 -0.4786 -0.3826 -0.1329
   10MOL   C295 3373   5.467   2.549   0.242 -0.1458 -0.0168 -0.3205
   10MOL   C296 3374   5.334   2.465   0.215 -0.5598 -0.5480 -0.1330
   10MOL   C297 3375   5.375   2.366   0.106 -0.1799 -0.2497 -0.1313
   10MOL   O298 3376   5.310   2.261   0.076  0.0736  0.5922 -0.1260
   10MOL   H299 3377   5.405   2.283   7.677 -0.9745  0.6975 -1.4278
   10MOL   H300 3378   5.428   2.458   7.683  1.1559  0.1528 -3.0603
   10MOL   H301 3379   5.638   2.425   7.817 -0.1114  1.2434  1.0028
   10MOL   H302 3380   5.649   2.501   0.122  0.3634  2.0058 -1.5576
   10MOL   H303 3381   5.550   2.624   0.057 -1.2522  0.1661  0.6738
   10MOL   H304 3382   5.525   2.526   0.331  0.1587 -2.1410 -1.0419
   10MOL   H305 3383   5.430   2.651   0.249  0.9879  0.4515 -1.1815
   10MOL   H306 3384   5.308   2.420   0.311 -1.9383 -1.9936 -1.1641
   10MOL   H307 3385   5.251   2.526   0.180  0.0697  0.2748 -0.2176
   10MOL   C308 3386   5.601   2.218   7.859  0.1199 -0.6424  0.4081
   10MOL   C309 3387   5.703   2.209   0.061 -0.2841  0.1052  0.0361
   10MOL   N310 3388   5.643   2.183   0.197  0.0733  0.1695  0.0873
   10MOL   C311 3389   5.553   2.073   0.230 -0.6162 -0.6764 -0.0920
   10MOL   C312 3390   5.547   2.067   0.385  0.5494  0.6176 -0.7732
   10MOL   C313 3391   5.592   2.203   0.427  0.5729 -0.6809 -0.4763
   10MOL   C314 3392   5.675   2.252   0.308  0.1760  0.6531 -0.1709
   10MOL   O315 3393   5.748   2.350   0.305 -0.5221 -0.2486  0.1161
   10MOL   H316 3394   5.649   2.175   7.771  0.8756  2.0052 -0.5366
   10MOL   H317 3395   5.521   2.145   7.874  0.9885 -1.4916  0.9856
   10MOL   H318 3396   5.762   2.301   0.068 -0.6114  0.3727 -0.6283
   10MOL   H319 3397   5.451   2.075   0.191 -0.9821 -1.0182  0.8572
   10MOL   H320 3398   5.618   1.992   0.198  1.2727  1.6323 -2.3232
   10MOL   H321 3399   5.447   2.040   0.419  0.9336 -0.5196 -0.5205
   10MOL   H322 3400   5.616   1.991   0.420  1.6803  1.2367 -1.6245
   10MOL   H323 3401   5.503   2.263   0.443  0.1580 -0.7942 -2.2242
   10MOL   H324 3402   5.645   2.194   0.522  0.4522 -0.4599 -0.3862
   10MOL   C325 3403   5.814   2.104   0.040  0.7588  0.2098  0.3375
   10MOL   C326 3404   5.912   2.144   7.843  0.1603  0.1414 -1.1503
   10MOL   N327 3405   6.004   2.034   7.809 -0.4391 -0.5253  0.3556
   10MOL   C328 3406   5.971   1.948   7.696  0.1243 -0.0255 -0.0085
   10MOL   C329 3407   6.101   1.864   7.678 -0.3259 -0.5501  0.5290
   10MOL   C330 3408   6.177   1.883   7.806  0.3724 -0.2664 -0.6460
   10MOL   C331 3409   6.107   1.995   7.880 -0.3109  0.1977  0.6013
   10MOL   O332 3410   6.150   2.050   0.077 -0.8604  0.5466  0.2227
   10MOL   H333 3411   5.765   2.012   0.008 -1.2983  1.6565 -0.8126
   10MOL   H334 3412   5.872   2.082   0.129  0.5466  0.5890  0.5706
   10MOL   H335 3413   5.963   2.231   7.884 -0.3329 -0.0180 -0.1830
   10MOL   H336 3414   5.887   1.885   7.726 -0.0194  0.4582  0.6293
   10MOL   H337 3415   5.938   2.011   7.614 -1.1680 -1.6950 -0.7750
   10MOL   H338 3416   6.069   1.760   7.673 -3.0794  0.3763 -2.0536
   10MOL   H339 3417   6.164   1.883   7.591 -1.2643  0.6415  0.1126
   10MOL   H340 3418   6.183   1.797   7.873  3.6176  0.9345  0.7223
   10MOL   H341 3419   6.280   1.899   7.772  0.5002 -0.9098 -0.5595
   10MOL   H342 3420   5.865   2.170   7.748 -2.6174 -0.8016 -0.1068
   11MOL     C1 3421   2.842   2.169   4.376 -0.6895  0.3183  0.0278
   11MOL     C2 3422   2.900   2.175   4.524  0.5235  0.3543 -0.0342
   11MOL     N3 3423   2.862   2.054   4.594 -0.4549 -0.1270  0.0967
   11MOL     C4 3424   2.794   2.067   4.718  0.3585 -0.3967  0.1960
   11MOL     C5 3425   2.763   1.928   4.763  0.6559 -0.7634 -0.4817
   11MOL     C6 3426   2.859   1.838   4.684 -0.0203  0.3442 -0.1038
   11MOL     C7 3427   2.903   1.927   4.572 -0.0807 -0.8585 -0.0793
   11MOL     O8 3428   2.954   1.888   4.469  0.5033 -0.7204  0.1744
   11MOL     H9 3429   2.870   2.086   4.311  0.7277 -0.2337  1.3270
   11MOL    H10 3430   2.733   2.165   4.383 -0.7579  1.0897 -0.4571
   11MOL    H11 3431   2.858   2.266   4.566 -0.3830 -0.0873  0.0186
   11MOL    H12 3432   2.866   2.102   4.791  2.1343 -1.9818 -0.7346
   11MOL    H13 3433   2.711   2.138   4.716  1.3078  0.6702 -2.6094
   11MOL    H14 3434   2.781   1.925   4.870  0.9962 -1.8541 -0.5669
   11MOL    H15 3435   2.657   1.909   4.752  0.2181  1.7945 -0.9212
   11MOL    H16 3436   2.947   1.822   4.746 -1.8674 -1.4385  2.1689
   11MOL    H17 3437   2.814   1.742   4.658 -0.6816  0.4943  0.4378
   11MOL    H18 3438   2.852   2.261   4.317  0.3386 -0.1703 -0.5824
   11MOL    C19 3439   3.054   2.203   4.518 -0.6524  0.2642 -0.1442
   11MOL    C20 3440   3.134   2.189   4.650  0.2875  0.1223 -0.2845
   11MOL    N21 3441   3.263   2.139   4.610  0.5796 -0.5365 -0.5955
   11MOL    C22 3442   3.364   2.210   4.525 -0.4499  0.4778  0.5751
   11MOL    C23 3443   3.476   2.107   4.499  0.2975 -0.2563 -0.2391
   11MOL    C24 3444   3.449   1.994   4.592  0.3869 -0.1746  0.7353
   11MOL    C25 3445   3.304   2.018   4.640 -0.0538  0.4387  0.0405
   11MOL    O26 3446   3.241   1.930   4.699  0.3292  0.2002  0.1894
   11MOL    H27 3447   3.073   2.299   4.471  1.3528  0.2285  0.5663
   11MOL    H28 3448   3.096   2.137   4.441 -2.4009  1.3451 -2.0720
   11MOL    H29 3449   3.089   2.123   4.724 -1.0999 -1.0920 -2.1771
   11MOL    H30 3450   3.320   2.242   4.431  0.7502  0.6999  0.0835
   11MOL    H31 3451   3.410   2.296   4.574 -0.6249 -1.3748  4.2361
   11MOL    H32 3452   3.462   2.078   4.395  1.4220  1.5996 -0.9449
   11MOL    H33 3453   3.576   2.144   4.519 -0.1414  0.4722  0.6449
   11MOL    H34 3454   3.470   1.898   4.544  0.9566 -0.3775  1.3729
   11MOL    H35 3455   3.515   2.012   4.677 -0.4292 -0.8328  1.5211
   11MOL    C36 3456   3.168   2.325   4.719  0.4765  0.7223 -0.2818
   11MOL    C37 3457   3.053   2.374   4.811 -0.4820 -0.4278  0.0181
   11MOL    N38 3458   3.014   2.283   4.921  0.2566  0.0273 -0.0139
   11MOL    C39 3459   2.878   2.300   4.974  0.1861  0.3449 -0.1015
   11MOL    C40 3460   2.858   2.177   5.056  0.0046  0.2856 -0.2329
   11MOL    C41 3461   2.997   2.125   5.087 -0.3418 -0.5338  0.5483
   11MOL    C42 3462   3.081   2.190   4.987 -0.0665 -0.1335  0.7791
   11MOL    O43 3463   3.193   2.156   4.961  0.0954 -0.3073  0.0716
   11MOL    H44 3464   3.185   2.397   4.639  1.9167  1.6512  0.8362
   11MOL    H45 3465   3.262   2.320   4.774  0.1953  0.3398  0.1671
   11MOL    H46 3466   2.969   2.360   4.742 -0.3869  0.6237 -0.3262
   11MOL    H47 3467   2.867   2.380   5.047 -1.3858  2.1776 -2.2677
   11MOL    H48 3468   2.802   2.318   4.898 -0.6342 -0.2816  0.5560
   11MOL    H49 3469   2.801   2.205   5.144 -2.2264  1.2706 -1.9500
   11MOL    H50 3470   2.804   2.101   4.999  2.1406 -1.2373 -0.2739
   11MOL    H51 3471   3.032   2.153   5.186 -0.1166 -0.9586  0.5924
   11MOL    H52 3472   3.014   2.017   5.080  1.6585 -0.2428  0.6895
   11MOL    C53 3473   3.085   2.515   4.865 -0.0005  0.8336  0.1648
   11MOL    C54 3474   3.079   2.626   4.762 -0.3870  0.3705 -0.0897
   11MOL    N55 3475   2.951   2.620   4.692  0.0454 -0.0404 -0.2005
   11MOL    C56 3476   2.951   2.605   4.551  0.0928  0.4926 -0.1073
   11MOL    C57 3477   2.806   2.590   4.501 -0.1345  0.3509 -0.2522
   11MOL    C58 3478   2.720   2.593   4.634  0.1362  1.1477  0.7966
   11MOL    C59 3479   2.825   2.621   4.735 -0.5581 -0.0414 -0.2375
   11MOL    O60 3480   2.794   2.635   4.849  0.1859  0.0877 -0.5533
   11MOL    H61 3481   3.180   2.520   4.919 -1.1833 -0.7559  2.4673
   11MOL    H62 3482   3.010   2.541   4.940 -1.7877  0.0451 -1.3123
   11MOL    H63 3483   3.162   2.615   4.693  0.1048 -0.5923  0.6448
   11MOL    H64 3484   3.005   2.687   4.505  0.0342  1.7641  2.0133
   11MOL    H65 3485   3.013   2.516   4.540 -0.4589  0.1414 -0.3819
   11MOL    H66 3486   2.779   2.681   4.447  1.4035  1.3012  0.5547
   11MOL    H67 3487   2.787   2.504   4.436  0.1925  0.6954 -0.8131
   11MOL    H68 3488   2.639   2.666   4.640  0.1004  1.2041 -0.2967
   11MOL    H69 3489   2.673   2.495   4.640  2.9486 -0.3401 -0.5144
   11MOL    C70 3490   3.103   2.754   4.839  0.4937  0.2215  0.0987
   11MOL    C71 3491   3.061   2.881   4.753  0.1264  0.9210 -0.3777
   11MOL    N72 3492   2.940   2.953   4.801  0.4281 -0.0250 -0.1574
   11MOL    C73 3493   2.824   2.977   4.719 -1.3521 -0.0873  1.3400
   11MOL    C74 3494   2.712   3.023   4.807 -0.0765  0.5039  0.4439
   11MOL    C75 3495   2.781   3.059   4.937  0.8198 -0.1106 -0.0761
   11MOL    C76 3496   2.920   2.998   4.923  0.5199 -0.3711 -0.2524
   11MOL    O77 3497   3.002   3.005   5.006  0.1563  0.3878  0.0755
   11MOL    H78 3498   3.206   2.749   4.874  1.1363  0.3566 -1.7104
   11MOL    H79 3499   3.038   2.754   4.926 -1.5304 -1.0465 -1.3715
   11MOL    H80 3500   3.052   2.848   4.650  1.0462  1.2015 -0.5530
   11MOL    H81 3501   2.851   3.069   4.667 -1.9667  0.1275  1.3924
   11MOL    H82 3502   2.806   2.897   4.648 -0.2018  0.7136  0.1231
   11MOL    H83 3503   2.663   3.109   4.762  0.4077  1.4408  1.6897
   11MOL    H84 3504   2.639   2.946   4.832 -0.0802 -0.6714 -2.9772
   11MOL    H85 3505   2.779   3.168   4.947 -0.3229  0.1957 -3.1236
   11MOL    H86 3506   2.740   3.021   5.030  0.6303  0.1492 -0.0528
   11MOL    C87 3507   3.175   2.993   4.756 -0.1062 -0.0714 -0.4079
   11MOL    C88 3508   3.267   2.998   4.636 -0.0052  0.1226 -0.0826
   11MOL    N89 3509   3.366   3.109   4.640  0.1606 -0.1284 -0.3241
   11MOL    C90 3510   3.475   3.097   4.736 -0.8576 -0.2239  0.3924
   11MOL    C91 3511   3.530   3.237   4.745 -0.4218 -0.0565  0.6123
   11MOL    C92 3512   3.473   3.318   4.623  0.2004 -0.1290 -0.2439
   11MOL    C93 3513   3.358   3.228   4.580 -0.1154  0.0629  0.2919
   11MOL    O94 3514   3.274   3.269   4.499 -0.0756  0.2821 -0.2435
   11MOL    H95 3515   3.227   2.996   4.852  0.5989  0.8423 -0.8124
   11MOL    H96 3516   3.137   3.095   4.755  1.7122  0.6239 -1.8703
   11MOL    H97 3517   3.205   3.015   4.548  1.0650 -0.4138 -0.9641
   11MOL    H98 3518   3.449   3.058   4.835 -1.0952  1.8986  1.1961
   11MOL    H99 3519   3.554   3.032   4.700  1.1180  1.8538  0.8169
   11MOL   H100 3520   3.516   3.276   4.845 -0.5387 -2.1196  1.4240
   11MOL   H101 3521   3.638   3.239   4.727 -0.2828  0.0878  1.4363
   11MOL   H102 3522   3.433   3.413   4.657 -0.4750 -0.1319 -1.0141
   11MOL   H103 3523   3.544   3.338   4.544  1.2098  0.6320  0.8337
   11MOL   C104 3524   3.326   2.861   4.605 -0.0686 -0.3615  0.0471
   11MOL   C105 3525   3.418   2.849   4.484 -0.0447  0.3526  0.4687
   11MOL   N106 3526   3.515   2.740   4.493 -0.1274  0.6799  0.0941
   11MOL   C107 3527   3.654   2.779   4.529  0.0287  0.3102 -0.1104
   11MOL   C108 3528   3.725   2.649   4.574  0.2917  0.1162 -0.0988
   11MOL   C109 3529   3.625   2.536   4.544 -0.3006  0.4945 -0.2711
   11MOL   C110 3530   3.496   2.609   4.504  0.2344 -0.3553  0.1622
   11MOL   O111 3531   3.392   2.549   4.497 -0.2692 -0.3290 -0.1324
   11MOL   H112 3532   3.248   2.787   4.584 -0.5421  0.0835  0.2426
   11MOL   H113 3533   3.372   2.826   4.698 -1.1463  1.4108  1.2829
   11MOL   H114 3534   3.475   2.942   4.482  1.0423 -0.2923  1.1310
   11MOL   H115 3535   3.709   2.810   4.440  0.4535  2.2637  0.8059
   11MOL   H116 3536   3.667   2.859   4.602 -1.9455 -1.2191  1.9917
   11MOL   H117 3537   3.817   2.633   4.516 -0.3696  0.2965 -1.2084
   11MOL   H118 3538   3.733   2.648   4.683  1.2515 -1.6827 -0.1633
   11MOL   H119 3539   3.612   2.471   4.630  1.4515 -0.3686 -0.6423
   11MOL   H120 3540   3.658   2.467   4.466  2.4504  1.3346  0.0959
   11MOL   C121 3541   3.338   2.829   4.350  0.4401 -0.4639  0.2065
   11MOL   C122 3542   3.334   2.950   4.254  1.0573 -0.0172 -0.2488
   11MOL   N123 3543   3.472   2.987   4.210 -0.6625  0.1817  0.2080
   11MOL   C124 3544   3.528   3.106   4.257 -0.0191  0.0673 -0.2603
   11MOL   C125 3545   3.656   3.122   4.181  0.5959  0.1559  0.8059
   11MOL   C126 3546   3.694   2.983   4.125  0.2242 -0.5629 -0.0930
   11MOL   C127 3547   3.555   2.924   4.122  0.5611 -0.2441  0.5531
   11MOL   O128 3548   3.536   2.824   4.050 -0.0091 -0.2480  0.4086
   11MOL   H129 3549   3.235   2.810   4.379  0.3057  0.8384  0.6365
   11MOL   H130 3550   3.376   2.741   4.298  0.4496 -0.4342  0.1637
   11MOL   H131 3551   3.308   3.036   4.315  2.9351  1.1633 -1.0774
   11MOL   H132 3552   3.558   3.112   4.362 -0.0742 -2.7587 -0.0560
   11MOL   H133 3553   3.465   3.189   4.222  0.9363  0.4342 -1.1450
   11MOL   H134 3554   3.652   3.195   4.101  1.0743 -1.5487 -0.8172
   11MOL   H135 3555   3.730   3.158   4.253  1.0042  1.2160 -0.1236
   11MOL   H136 3556   3.744   2.993   4.029  0.2353  0.2154 -0.0111
   11MOL   H137 3557   3.760   2.931   4.194  0.2954 -1.4559 -0.8276
   11MOL   C138 3558   3.235   2.941   4.141  0.6561 -0.0689  0.0281
   11MOL   C139 3559   3.077   2.941   4.170 -0.2583  1.0815 -0.0054
   11MOL   N140 3560   3.039   3.066   4.240 -0.2516  0.3189  0.2948
   11MOL   C141 3561   3.034   3.200   4.183  0.8794 -0.1987 -0.7309
   11MOL   C142 3562   3.003   3.292   4.294 -0.2379 -0.7038  0.0675
   11MOL   C143 3563   2.956   3.206   4.415 -0.1554  0.3606  0.2608
   11MOL   C144 3564   2.992   3.064   4.369  0.7935 -0.5286  0.0864
   11MOL   O145 3565   2.991   2.961   4.442  0.7042 -0.1948 -0.1271
   11MOL   H146 3566   3.264   2.847   4.094 -0.1816 -0.4796  0.3190
   11MOL   H147 3567   3.258   3.015   4.064  0.9356  0.2553  0.4235
   11MOL   H148 3568   3.050   2.857   4.234 -1.3240  0.3845 -1.3577
   11MOL   H149 3569   3.130   3.221   4.135  1.7361 -0.0913  0.9904
   11MOL   H150 3570   2.951   3.206   4.113 -0.6695  0.4036  1.1317
   11MOL   H151 3571   3.089   3.357   4.310 -0.6341 -0.3328  0.7000
   11MOL   H152 3572   2.923   3.358   4.258  0.1239  0.3241  1.1280
   11MOL   H153 3573   2.851   3.201   4.443 -0.3420  0.7273 -0.3451
   11MOL   H154 3574   3.011   3.239   4.502  0.5490  0.2697 -0.1472
   11MOL   C155 3575   2.991   2.933   4.042  0.1355  0.2705  0.8364
   11MOL   C156 3576   2.999   2.793   3.971 -0.4685  0.5399 -0.1399
   11MOL   N157 3577   3.009   2.672   4.064  0.5262 -0.4471  0.2815
   11MOL   C158 3578   3.134   2.607   4.084  0.0802  0.0325 -0.2158
   11MOL   C159 3579   3.105   2.477   4.156 -0.0985 -0.4404  0.2235
   11MOL   C160 3580   2.951   2.482   4.185 -0.3800  0.9654  0.4662
   11MOL   C161 3581   2.909   2.611   4.129 -0.6599 -1.1839 -1.0372
   11MOL   O162 3582   2.798   2.656   4.155  0.4729 -0.4290 -0.5311
   11MOL   H163 3583   3.026   3.014   3.979 -1.6238  1.3133  1.1617
   11MOL   H164 3584   2.887   2.958   4.061  0.2381 -0.6978  2.8789
   11MOL   H165 3585   3.100   2.807   3.933 -0.3050  1.3361  0.5672
   11MOL   H166 3586   3.196   2.590   3.996 -0.6551 -3.3299 -0.1465
   11MOL   H167 3587   3.185   2.669   4.158  1.7835  1.2561 -2.3616
   11MOL   H168 3588   3.144   2.385   4.111  0.0564 -0.7104  0.8993
   11MOL   H169 3589   3.165   2.478   4.247  0.5096 -0.7726 -0.1670
   11MOL   H170 3590   2.894   2.397   4.149 -0.8296  1.3640  0.2340
   11MOL   H171 3591   2.932   2.485   4.292  0.5121  0.4386  0.6512
   11MOL   C172 3592   2.892   2.770   3.856 -0.1921 -0.0644 -0.4454
   11MOL   C173 3593   2.941   2.817   3.714 -0.5935  0.6597 -0.2671
   11MOL   N174 3594   3.020   2.714   3.651  0.6837 -0.1226 -0.5146
   11MOL   C175 3595   3.166   2.707   3.659 -0.5503  0.2573  0.4667
   11MOL   C176 3596   3.224   2.593   3.571 -0.1667 -0.7655  0.0142
   11MOL   C177 3597   3.092   2.507   3.548  0.2260  0.4196 -0.5299
   11MOL   C178 3598   2.982   2.591   3.610 -0.7456 -0.4921 -0.1592
   11MOL   O179 3599   2.869   2.543   3.607 -0.2668  0.2474  0.4498
   11MOL   H180 3600   2.798   2.814   3.887 -1.0839 -0.1470 -2.9425
   11MOL   H181 3601   2.866   2.665   3.845 -0.8367  0.0680 -0.1655
   11MOL   H182 3602   3.010   2.900   3.733  0.3886  0.0438 -1.0668
   11MOL   H183 3603   3.209   2.804   3.633 -1.5419  0.4920 -0.3430
   11MOL   H184 3604   3.186   2.692   3.765 -1.6315 -0.7423  0.5308
   11MOL   H185 3605   3.298   2.528   3.617  1.0464 -0.7737 -1.9327
   11MOL   H186 3606   3.252   2.635   3.475  0.4194  0.4153  0.6995
   11MOL   H187 3607   3.075   2.472   3.446  3.6646  0.9015 -1.3507
   11MOL   H188 3608   3.088   2.421   3.615  0.6287 -0.5638 -1.7462
   11MOL   C189 3609   2.817   2.847   3.626 -0.9483 -0.2772 -1.2489
   11MOL   C190 3610   2.741   2.976   3.665 -0.2257  0.3221  0.2390
   11MOL   N191 3611   2.822   3.099   3.669  0.2690 -0.6647 -0.1424
   11MOL   C192 3612   2.802   3.190   3.785 -0.4783  0.4863 -0.3270
   11MOL   C193 3613   2.875   3.319   3.743  0.2302 -0.1239 -0.5715
   11MOL   C194 3614   2.965   3.275   3.626 -0.6747 -0.2390  0.1145
   11MOL   C195 3615   2.904   3.148   3.575  0.0442  0.3954  0.2052
   11MOL   O196 3616   2.934   3.099   3.466 -0.2160  0.4676  0.6368
   11MOL   H197 3617   2.749   2.762   3.635 -3.2364  1.6992  0.5605
   11MOL   H198 3618   2.848   2.841   3.521  0.8840 -1.2649 -0.6747
   11MOL   H199 3619   2.702   2.962   3.766  0.9400 -0.4140  0.5940
   11MOL   H200 3620   2.696   3.204   3.807 -0.8610 -1.8799 -0.4705
   11MOL   H201 3621   2.845   3.141   3.872  2.4772 -1.1721 -2.5951
   11MOL   H202 3622   2.806   3.397   3.712 -0.7063 -0.5555  0.4034
   11MOL   H203 3623   2.934   3.375   3.816 -0.6852 -0.2501  0.2745
   11MOL   H204 3624   2.971   3.353   3.550 -1.0292  0.8978  1.2224
   11MOL   H205 3625   3.067   3.260   3.661 -0.5065 -0.5840 -0.5247
   11MOL   C206 3626   2.616   2.988   3.566  0.3267 -0.0582 -0.1427
   11MOL   C207 3627   2.523   2.865   3.560  0.2034 -0.0146 -0.5626
   11MOL   N208 3628   2.455   2.833   3.689 -0.2296 -0.0727 -0.4620
   11MOL   C209 3629   2.476   2.703   3.747  0.1715  0.3380  0.3820
   11MOL   C210 3630   2.359   2.689   3.854 -0.5161  0.3528 -0.0109
   11MOL   C211 3631   2.290   2.827   3.866 -0.2955  0.4284 -0.0808
   11MOL   C212 3632   2.358   2.903   3.752  0.1649  0.1837  0.0504
   11MOL   O213 3633   2.329   3.022   3.728 -0.2259  0.2250  0.0069
   11MOL   H214 3634   2.663   3.004   3.470 -0.8843 -1.5900 -1.0154
   11MOL   H215 3635   2.563   3.076   3.602  1.3071  0.6736 -0.4677
   11MOL   H216 3636   2.573   2.773   3.530  0.0831  0.0376 -0.9273
   11MOL   H217 3637   2.460   2.631   3.667  2.4776 -1.6906  1.6551
   11MOL   H218 3638   2.575   2.690   3.792  1.1925  0.1631 -1.8777
   11MOL   H219 3639   2.294   2.602   3.845  0.1120  0.0362 -1.7931
   11MOL   H220 3640   2.405   2.683   3.952  0.9044  1.1509 -0.6087
   11MOL   H221 3641   2.183   2.821   3.847 -0.2016 -1.2909 -0.2042
   11MOL   H222 3642   2.290   2.874   3.964 -0.4903 -1.5756  0.9167
   11MOL   C223 3643   2.429   2.867   3.440 -0.5555  0.2559  0.5824
   11MOL   C224 3644   2.499   2.860   3.301 -0.2512 -0.1486  0.4284
   11MOL   N225 3645   2.564   2.728   3.288  0.7435  0.2280  0.0304
   11MOL   C226 3646   2.711   2.719   3.271  0.0583 -0.0776  0.2279
   11MOL   C227 3647   2.752   2.569   3.290  0.4507 -0.1037  0.3928
   11MOL   C228 3648   2.619   2.489   3.309  0.4608  0.3751  0.3173
   11MOL   C229 3649   2.515   2.606   3.301  0.1820  0.5648  0.1873
   11MOL   O230 3650   2.393   2.584   3.299  0.0160  0.2157 -0.4585
   11MOL   H231 3651   2.362   2.952   3.446 -0.0434  0.7799 -0.7586
   11MOL   H232 3652   2.355   2.789   3.455  0.2690 -0.5189  0.6669
   11MOL   H233 3653   2.577   2.936   3.294 -0.6927  0.4568  1.9361
   11MOL   H234 3654   2.736   2.750   3.170 -1.0510  0.7903  0.2137
   11MOL   H235 3655   2.759   2.786   3.342  1.0689 -0.3696 -0.1704
   11MOL   H236 3656   2.819   2.530   3.214  0.0645 -1.0781  0.5400
   11MOL   H237 3657   2.828   2.560   3.368  2.8960 -0.6080 -2.0036
   11MOL   H238 3658   2.592   2.412   3.236 -0.4267  2.1186 -1.2227
   11MOL   H239 3659   2.631   2.448   3.409  2.2963 -0.0200 -0.0309
   11MOL   C240 3660   2.410   2.895   3.179 -0.3512  0.5360 -0.3623
   11MOL   C241 3661   2.359   3.043   3.165  0.2428  0.6750  0.2772
   11MOL   N242 3662   2.467   3.143   3.192 -0.4381  0.3065 -0.1386
   11MOL   C243 3663   2.461   3.220   3.316 -0.0172  0.4285  0.1820
   11MOL   C244 3664   2.585   3.312   3.312 -0.5829  0.0445 -0.6106
   11MOL   C245 3665   2.661   3.273   3.182 -0.2978  0.2992 -0.0343
   11MOL   C246 3666   2.570   3.179   3.116  0.3977 -0.0255 -0.1117
   11MOL   O247 3667   2.590   3.130   3.001 -0.2554  0.5138 -0.1997
   11MOL   H248 3668   2.322   2.830   3.180  1.0977 -1.4809 -0.2401
   11MOL   H249 3669   2.444   2.856   3.083  0.9329  0.7078  0.0169
   11MOL   H250 3670   2.287   3.062   3.244 -2.2260 -1.9184 -1.2519
   11MOL   H251 3671   2.371   3.278   3.338 -0.6529  0.7328 -2.9378
   11MOL   H252 3672   2.471   3.157   3.404 -2.3905 -0.1094  0.1125
   11MOL   H253 3673   2.536   3.408   3.302 -0.8943 -0.1370 -0.8234
   11MOL   H254 3674   2.651   3.310   3.399  0.0625  1.5634 -1.0563
   11MOL   H255 3675   2.687   3.363   3.126 -0.3649  1.2637  1.4669
   11MOL   H256 3676   2.762   3.234   3.192 -0.4046 -0.0929 -0.4680
   11MOL   C257 3677   2.292   3.070   3.034  0.5414  0.8960 -0.4174
   11MOL   C258 3678   2.177   2.974   3.001  0.1738 -0.2654  0.4578
   11MOL   N259 3679   2.061   2.975   3.094  0.3741  0.6817 -0.1644
   11MOL   C260 3680   1.998   2.853   3.124  0.1921  0.0228  0.0849
   11MOL   C261 3681   1.881   2.881   3.213 -0.1616 -0.2682  0.2403
   11MOL   C262 3682   1.866   3.036   3.217  0.5077  0.5130 -0.2180
   11MOL   C263 3683   1.996   3.081   3.143  0.0911  0.3397 -0.3619
   11MOL   O264 3684   2.023   3.202   3.132  0.9569  0.2752  0.0179
   11MOL   H265 3685   2.369   3.054   2.958 -1.2120  0.4396 -2.1199
   11MOL   H266 3686   2.262   3.173   3.018 -0.0244  0.7049 -0.6102
   11MOL   H267 3687   2.209   2.870   2.992  0.4025 -0.1565 -0.0143
   11MOL   H268 3688   1.975   2.827   3.021  0.8304  1.9711 -0.5701
   11MOL   H269 3689   2.066   2.783   3.173 -1.0561  0.9327  3.2393
   11MOL   H270 3690   1.790   2.834   3.176 -0.0178  0.2468 -0.8074
   11MOL   H271 3691   1.895   2.843   3.314 -0.4246 -1.3317 -0.1192
   11MOL   H272 3692   1.780   3.076   3.164  0.2593  1.4653  0.8984
   11MOL   H273 3693   1.869   3.066   3.322 -1.1518 -1.0646  0.3048
   11MOL   C274 3694   2.116   2.999   2.864 -0.4061  0.4778 -0.1282
   11MOL   C275 3695   2.214   3.029   2.742 -0.0902  0.4128  0.0879
   11MOL   N276 3696   2.329   2.932   2.717 -0.0233 -0.2602 -0.4961
   11MOL   C277 3697   2.458   2.987   2.674 -0.6722 -0.5163  0.5008
   11MOL   C278 3698   2.548   2.862   2.658 -0.0354  1.1932  0.4378
   11MOL   C279 3699   2.460   2.739   2.678  0.5069 -0.3211 -0.1926
   11MOL   C280 3700   2.326   2.799   2.714 -0.0325 -0.5369  0.2292
   11MOL   O281 3701   2.226   2.730   2.739  0.3723 -1.0257 -0.2206
   11MOL   H282 3702   2.034   3.071   2.870  0.6701  1.8995 -1.9508
   11MOL   H283 3703   2.058   2.911   2.838  0.3650 -0.4149  1.0780
   11MOL   H284 3704   2.262   3.122   2.770 -0.2950  0.3435  0.6871
   11MOL   H285 3705   2.447   3.042   2.581 -1.2784 -0.7443  0.4377
   11MOL   H286 3706   2.497   3.054   2.751  1.1074 -1.2507  0.2634
   11MOL   H287 3707   2.597   2.861   2.560 -0.3411  0.2248  0.2858
   11MOL   H288 3708   2.625   2.874   2.734 -0.6671 -0.9287  1.4401
   11MOL   H289 3709   2.448   2.669   2.596  1.8709  1.6744 -2.1220
   11MOL   H290 3710   2.488   2.682   2.766  1.7972 -1.3668 -1.2703
   11MOL   C291 3711   2.137   3.055   2.611  0.0521  0.1006 -0.2229
   11MOL   C292 3712   2.042   3.177   2.602 -0.0797 -0.0033  0.1916
   11MOL   N293 3713   2.109   3.310   2.601  0.3798 -0.7843  0.1785
   11MOL   C294 3714   2.074   3.415   2.703  0.3984 -0.0811  0.5477
   11MOL   C295 3715   2.162   3.532   2.660  0.6909  0.1451  0.2084
   11MOL   C296 3716   2.231   3.497   2.524 -0.0288 -0.0886  0.0384
   11MOL   C297 3717   2.205   3.345   2.511  0.3001 -0.0334 -0.0685
   11MOL   O298 3718   2.254   3.273   2.422  0.1773  0.3332 -0.6520
   11MOL   H299 3719   2.096   2.956   2.590  0.5590  0.2041 -1.7988
   11MOL   H300 3720   2.201   3.053   2.522 -0.0246  0.8081 -0.2927
   11MOL   H301 3721   1.992   3.178   2.698 -0.6390  1.6416 -0.1026
   11MOL   H302 3722   1.970   3.433   2.676  0.1716 -1.6752  0.2899
   11MOL   H303 3723   2.077   3.377   2.806 -0.1823 -0.6971  0.3460
   11MOL   H304 3724   2.112   3.628   2.665 -2.1370 -1.3712  2.3827
   11MOL   H305 3725   2.237   3.549   2.737 -0.6253 -0.3725  1.6213
   11MOL   H306 3726   2.162   3.537   2.449  0.3259 -0.3290 -0.4235
   11MOL   H307 3727   2.334   3.532   2.518  0.3386 -0.9301  1.3399
   11MOL   C308 3728   1.938   3.167   2.482 -0.0242  1.0178 -0.3807
   11MOL   C309 3729   1.820   3.063   2.492  0.5745  0.2117 -0.3572
   11MOL   N310 3730   1.774   3.046   2.637  0.3173 -0.1024  0.7533
   11MOL   C311 3731   1.771   2.912   2.690 -0.3595  0.2015 -0.4484
   11MOL   C312 3732   1.713   2.919   2.831  1.0581  0.8322 -0.1142
   11MOL   C313 3733   1.683   3.068   2.856 -0.0785 -0.3844  0.0144
   11MOL   C314 3734   1.716   3.129   2.721 -0.3693  0.3539  0.1538
   11MOL   O315 3735   1.701   3.250   2.702 -0.0206 -0.3748 -0.1477
   11MOL   H316 3736   1.988   3.136   2.390 -1.3988 -1.4046 -0.3804
   11MOL   H317 3737   1.893   3.264   2.464 -0.1235  1.0764  0.1662
   11MOL   H318 3738   1.861   2.969   2.454  1.1225  0.5817 -0.6986
   11MOL   H319 3739   1.717   2.839   2.631  0.1694 -1.4719  1.1023
   11MOL   H320 3740   1.874   2.875   2.684 -1.2419 -2.1527 -1.6506
   11MOL   H321 3741   1.622   2.859   2.828  0.7946  1.1074  1.5733
   11MOL   H322 3742   1.768   2.880   2.917 -1.2584 -2.3139  0.0171
   11MOL   H323 3743   1.576   3.080   2.875 -0.0377  1.8920 -1.0017
   11MOL   H324 3744   1.740   3.121   2.931  1.4460 -0.0655 -1.3335
   11MOL   C325 3745   1.703   3.124   2.405 -0.3437 -0.4024 -1.3274
   11MOL   C326 3746   1.584   3.024   2.406 -1.6851 -0.7567  0.0662
   11MOL   N327 3747   1.471   3.053   2.316 -0.3483 -0.6627  0.0707
   11MOL   C328 3748   1.432   2.950   2.219  0.4691 -0.3434 -0.6416
   11MOL   C329 3749   1.293   3.002   2.169  0.6097 -0.2234  0.1991
   11MOL   C330 3750   1.285   3.150   2.206  0.3237 -0.3759  0.3655
   11MOL   C331 3751   1.397   3.166   2.303  0.1541 -0.1635  0.4851
   11MOL   O332 3752   1.421   3.264   2.372  0.2686  0.0344  0.2848
   11MOL   H333 3753   1.741   3.132   2.303  1.9119 -1.7199 -0.6242
   11MOL   H334 3754   1.664   3.216   2.448 -0.5877 -2.0225  2.0638
   11MOL   H335 3755   1.544   3.034   2.506 -0.8112  3.0315  0.1260
   11MOL   H336 3756   1.490   2.933   2.129 -1.8796 -0.3920 -2.1901
   11MOL   H337 3757   1.418   2.859   2.278 -1.0753  0.8278  0.8581
   11MOL   H338 3758   1.276   2.976   2.065 -3.0667  1.4332  0.3189
   11MOL   H339 3759   1.208   2.954   2.217  1.3759 -2.5132 -0.7004
   11MOL   H340 3760   1.314   3.207   2.118  0.0655 -0.6113  0.1274
   11MOL   H341 3761   1.191   3.180   2.252 -0.2040 -2.6752  0.8667
   11MOL   H342 3762   1.621   2.922   2.400 -0.3520 -0.3206  0.6333
   12MOL     C1 3763   1.691   0.376   0.388 -0.1772  0.0331 -0.2469
   12MOL     C2 3764   1.614   0.375   0.253  0.3372 -0.0721  0.1329
   12MOL     N3 3765   1.521   0.262   0.246 -0.3920 -0.3029 -0.0350
   12MOL     C4 3766   1.572   0.147   0.171  0.1554 -0.2490 -0.0413
   12MOL     C5 3767   1.442   0.057   0.160 -0.2700 -0.0306  0.7348
   12MOL     C6 3768   1.354   0.108   0.280 -0.5672  0.6165 -0.2053
   12MOL     C7 3769   1.405   0.249   0.308  0.0230 -0.1413 -0.2167
   12MOL     O8 3770   1.345   0.336   0.378 -0.5020  0.2886 -0.1371
   12MOL     H9 3771   1.637   0.419   0.472 -0.1515 -0.8446  0.2174
   12MOL    H10 3772   1.729   0.279   0.418  3.4025  1.3296 -0.3518
   12MOL    H11 3773   1.702   0.357   0.191  0.7909  0.8010  0.4938
   12MOL    H12 3774   1.601   0.183   0.073  0.3426  1.4432  0.6126
   12MOL    H13 3775   1.649   0.111   0.240  1.7967 -0.5118 -1.9635
   12MOL    H14 3776   1.385   0.052   0.067  0.8055  0.6929  0.0292
   12MOL    H15 3777   1.468   7.857   0.161 -0.9984 -0.2122  0.3996
   12MOL    H16 3778   1.249   0.086   0.261 -0.6404 -1.9286  2.7604
   12MOL    H17 3779   1.377   0.049   0.369  0.0622  1.7369  0.3980
   12MOL    H18 3780   1.776   0.444   0.386  0.9903 -1.3892  0.2648
   12MOL    C19 3781   1.549   0.513   0.218 -0.2212  0.1689 -0.7481
   12MOL    C20 3782   1.473   0.503   0.079  0.0649  0.5954  0.1963
   12MOL    N21 3783   1.372   0.613   0.078 -0.2911 -0.6076  0.1952
   12MOL    C22 3784   1.229   0.563   0.076  0.5407  0.1562 -0.3875
   12MOL    C23 3785   1.148   0.696   0.084  0.2752 -0.0135 -0.7952
   12MOL    C24 3786   1.252   0.813   0.060 -0.2026  0.9003  0.0209
   12MOL    C25 3787   1.390   0.742   0.053 -0.4939 -0.0043 -0.0662
   12MOL    O26 3788   1.499   0.799   0.040 -0.6247 -0.2054  0.2728
   12MOL    H27 3789   1.634   0.582   0.219  1.3507 -1.7291 -0.7011
   12MOL    H28 3790   1.482   0.551   0.295  1.3408  2.0251 -0.2527
   12MOL    H29 3791   1.422   0.407   0.064 -0.1717  0.6685  0.5353
   12MOL    H30 3792   1.205   0.510   7.890 -0.3365  1.4888 -0.9477
   12MOL    H31 3793   1.211   0.490   0.155  0.7222 -0.3118 -0.7786
   12MOL    H32 3794   1.064   0.694   0.014 -0.8347 -0.4776  0.5180
   12MOL    H33 3795   1.109   0.706   0.185 -0.1231  0.8210 -1.0294
   12MOL    H34 3796   1.239   0.862   7.870 -0.1879  0.0273 -0.4370
   12MOL    H35 3797   1.245   0.883   0.143 -1.7905  1.0374 -0.2136
   12MOL    C36 3798   1.570   0.507   7.863 -0.5478 -0.2395 -0.0467
   12MOL    C37 3799   1.514   0.480   7.722 -0.2449  0.7017 -0.6020
   12MOL    N38 3800   1.600   0.536   7.618  0.1226 -0.0488 -0.5076
   12MOL    C39 3801   1.573   0.672   7.572  0.0508  0.3019  0.8009
   12MOL    C40 3802   1.695   0.700   7.480  0.0112 -0.4936 -0.3286
   12MOL    C41 3803   1.759   0.567   7.455  0.7372  0.3335  0.0314
   12MOL    C42 3804   1.711   0.481   7.565 -0.8760 -0.8582 -0.4129
   12MOL    O43 3805   1.762   0.371   7.601  0.0819  0.2979  0.1749
   12MOL    H44 3806   1.656   0.445   7.889 -0.3068  0.1344  0.0571
   12MOL    H45 3807   1.608   0.610   7.856 -2.5350  0.6530  1.7166
   12MOL    H46 3808   1.418   0.532   7.716 -0.1942  0.7819 -0.7150
   12MOL    H47 3809   1.482   0.675   7.512 -1.1062  0.0198  2.5095
   12MOL    H48 3810   1.568   0.742   7.656 -1.5656  1.2488 -0.0733
   12MOL    H49 3811   1.687   0.766   7.394  0.4280 -1.1407 -0.8602
   12MOL    H50 3812   1.770   0.750   7.542 -0.4437 -0.5540  0.2736
   12MOL    H51 3813   1.717   0.525   7.364  0.0701 -0.2582  0.6082
   12MOL    H52 3814   1.868   0.570   7.443  0.4568 -0.0327 -3.0693
   12MOL    C53 3815   1.481   0.326   7.712  0.3936  0.0719 -0.1757
   12MOL    C54 3816   1.399   0.294   7.593  0.0775  0.6163  0.4976
   12MOL    N55 3817   1.420   0.154   7.537 -0.0078 -0.3726 -0.8168
   12MOL    C56 3818   1.453   0.137   7.397  0.6335  0.1208 -0.5148
   12MOL    C57 3819   1.482   7.898   7.382  0.2583  0.4068  0.3655
   12MOL    C58 3820   1.407   7.831   7.499 -0.4625 -0.1173  0.1899
   12MOL    C59 3821   1.402   0.037   7.601  0.1129  0.2034  0.2062
   12MOL    O60 3822   1.382   0.020   7.720 -0.4527  0.0279 -0.5000
   12MOL    H61 3823   1.419   0.286   7.792 -1.2162 -2.3030 -2.5022
   12MOL    H62 3824   1.569   0.262   7.714 -0.2741 -0.9031 -1.1525
   12MOL    H63 3825   1.444   0.348   7.509 -0.2431 -1.4876 -1.0446
   12MOL    H64 3826   1.362   0.164   7.345 -0.0836 -1.4544 -0.1073
   12MOL    H65 3827   1.534   0.198   7.357 -1.6087  3.9141  0.5349
   12MOL    H66 3828   1.445   7.862   7.286 -2.1402  1.0686  0.9983
   12MOL    H67 3829   1.589   7.876   7.386  0.1663  0.2552  2.4926
   12MOL    H68 3830   1.304   7.804   7.476 -0.3989 -1.2298  1.1902
   12MOL    H69 3831   1.457   7.744   7.541  0.8570  0.3323 -0.4048
   12MOL    C70 3832   1.249   0.328   7.605 -0.2991  0.1499  0.8148
   12MOL    C71 3833   1.210   0.457   7.535 -0.3058 -1.0297 -0.1536
   12MOL    N72 3834   1.206   0.438   7.389 -0.1734 -0.2137 -0.0426
   12MOL    C73 3835   1.294   0.510   7.297  0.6799 -0.7423  0.6223
   12MOL    C74 3836   1.255   0.451   7.162  0.5726  0.0448  0.4590
   12MOL    C75 3837   1.139   0.352   7.182 -0.0707 -0.0904 -0.4767
   12MOL    C76 3838   1.112   0.364   7.327 -0.9608 -0.2665  0.3884
   12MOL    O77 3839   1.014   0.313   7.381  0.5038  0.0762  0.1392
   12MOL    H78 3840   1.226   0.338   7.711  0.7796 -1.9953  1.2740
   12MOL    H79 3841   1.178   0.246   7.594 -1.7171  1.5027 -0.4225
   12MOL    H80 3842   1.288   0.531   7.555 -1.1671 -0.1607  0.0108
   12MOL    H81 3843   1.278   0.618   7.301  0.3550 -0.7386 -0.6325
   12MOL    H82 3844   1.397   0.481   7.316  0.5140 -0.2529  2.4508
   12MOL    H83 3845   1.223   0.525   7.089  0.6752 -0.4362 -0.0817
   12MOL    H84 3846   1.342   0.405   7.114  1.6151  1.4966  0.9191
   12MOL    H85 3847   1.046   0.371   7.128  0.0614  2.4839  0.1437
   12MOL    H86 3848   1.165   0.251   7.151 -0.0326 -0.2359  0.0294
   12MOL    C87 3849   1.081   0.520   7.592 -0.5377  0.5284 -0.1021
   12MOL    C88 3850   1.042   0.661   7.540  0.7000  0.3063 -0.1522
   12MOL    N89 3851   0.902   0.703   7.581  1.0993  0.0783 -0.1092
   12MOL    C90 3852   0.871   0.720   7.721 -0.1531  1.0867  0.3844
   12MOL    C91 3853   0.720   0.738   7.726 -0.0653 -0.3600 -0.2285
   12MOL    C92 3854   0.664   0.711   7.586 -0.7083  0.4336  0.3249
   12MOL    C93 3855   0.788   0.700   7.504 -0.4690 -0.0028  0.3257
   12MOL    O94 3856   0.782   0.667   7.382  0.4817 -0.2651 -0.1360
   12MOL    H95 3857   1.089   0.523   7.701 -0.6967 -1.7000 -0.0135
   12MOL    H96 3858   1.003   0.447   7.571  1.4052 -1.6646  0.1936
   12MOL    H97 3859   1.042   0.651   7.431 -0.7876 -0.9841 -0.0579
   12MOL    H98 3860   0.895   0.625   7.769  0.1049  0.3612 -1.1436
   12MOL    H99 3861   0.920   0.807   7.764 -0.7100  2.4811 -1.7198
   12MOL   H100 3862   0.669   0.681   7.804 -1.1525  0.8018 -0.0732
   12MOL   H101 3863   0.695   0.843   7.742 -0.5976 -0.7946  2.0990
   12MOL   H102 3864   0.604   0.621   7.576 -1.3503  1.2252 -3.5386
   12MOL   H103 3865   0.605   0.796   7.550  0.4477  1.3338  0.5356
   12MOL   C104 3866   1.149   0.771   7.561 -0.7287 -0.3819 -0.0618
   12MOL   C105 3867   1.132   0.912   7.484 -0.1794  0.5991 -0.4850
   12MOL   N106 3868   1.202   1.022   7.555 -0.0411  0.3869  0.3941
   12MOL   C107 3869   1.121   1.092   7.653 -0.0469 -0.5140 -0.4818
   12MOL   C108 3870   1.218   1.164   7.750  0.1463  0.3687  0.3328
   12MOL   C109 3871   1.361   1.135   7.693 -0.1128 -0.4364  0.5596
   12MOL   C110 3872   1.336   1.031   7.578  0.2185 -0.5240  0.2888
   12MOL   O111 3873   1.428   0.961   7.533 -0.1362  0.2064 -0.4645
   12MOL   H112 3874   1.253   0.739   7.565 -0.7369 -0.4511 -0.3827
   12MOL   H113 3875   1.142   0.791   7.668 -0.1913  0.6219 -0.2058
   12MOL   H114 3876   1.028   0.943   7.480 -0.0947  0.9954  0.2496
   12MOL   H115 3877   1.052   1.159   7.601  0.1712  0.8712  0.9773
   12MOL   H116 3878   1.057   1.027   7.712  1.0328  0.8105  2.2239
   12MOL   H117 3879   1.197   1.267   7.780 -0.3435  0.8365 -1.5428
   12MOL   H118 3880   1.220   1.109   7.843 -2.9612  0.0357  0.2512
   12MOL   H119 3881   1.429   1.084   7.761 -1.6496 -0.0317  2.4574
   12MOL   H120 3882   1.413   1.223   7.653 -0.9651 -0.0377  0.3083
   12MOL   C121 3883   1.170   0.894   7.332 -0.6381  0.5015 -0.3120
   12MOL   C122 3884   1.171   1.033   7.260  0.2623  0.2682  0.3836
   12MOL   N123 3885   1.211   1.016   7.115 -0.8295  0.4464  0.1858
   12MOL   C124 3886   1.324   1.078   7.063 -0.3936 -0.0168 -0.1770
   12MOL   C125 3887   1.310   1.076   6.911  0.2989 -0.1658  0.5960
   12MOL   C126 3888   1.216   0.967   6.880  0.4641 -0.2926 -0.3163
   12MOL   C127 3889   1.150   0.943   7.017 -0.4325 -0.3299  0.8525
   12MOL   O128 3890   1.054   0.872   7.029  0.8041  0.2509  0.4701
   12MOL   H129 3891   1.095   0.828   7.289  2.3869 -3.6273  0.4132
   12MOL   H130 3892   1.267   0.847   7.312  0.6243  2.5336  0.8030
   12MOL   H131 3893   1.244   1.097   7.311 -1.0125  1.3587  0.8576
   12MOL   H132 3894   1.409   1.018   7.094  1.4819  1.0015 -3.1107
   12MOL   H133 3895   1.339   1.174   7.112 -1.2996 -0.1936  0.4587
   12MOL   H134 3896   1.270   1.170   6.873  1.5956  0.6014  1.0982
   12MOL   H135 3897   1.406   1.057   6.863  1.2511  0.0717  2.3504
   12MOL   H136 3898   1.143   1.005   6.809  0.2111 -1.0601 -0.4757
   12MOL   H137 3899   1.263   0.880   6.832 -1.1924 -0.7097 -1.2266
   12MOL   C138 3900   1.031   1.108   7.268  0.6321  0.4650 -0.0284
   12MOL   C139 3901   0.999   1.238   7.188 -0.5418  0.1769  0.2132
   12MOL   N140 3902   0.857   1.275   7.204  0.1239  0.3259  0.1102
   12MOL   C141 3903   0.780   1.260   7.088  0.0426 -0.0590  0.3961
   12MOL   C142 3904   0.627   1.256   7.131 -0.5476  0.3826  0.2752
   12MOL   C143 3905   0.630   1.286   7.277 -0.2804 -0.2618  0.3217
   12MOL   C144 3906   0.779   1.296   7.312 -0.0131  0.9672 -0.3472
   12MOL   O145 3907   0.819   1.316   7.425 -0.3624  0.8505  0.7920
   12MOL   H146 3908   1.009   1.141   7.369  1.3653  1.2738 -0.1215
   12MOL   H147 3909   0.955   1.031   7.254  0.2593  1.0110 -1.0635
   12MOL   H148 3910   1.025   1.211   7.086  2.1512 -1.5810  1.2962
   12MOL   H149 3911   0.793   1.341   7.016  0.7134  0.5682  1.2142
   12MOL   H150 3912   0.805   1.171   7.029 -4.3639 -1.1280 -0.0588
   12MOL   H151 3913   0.560   1.320   7.074  0.4261  0.2665 -1.0282
   12MOL   H152 3914   0.590   1.154   7.115  1.0626  0.2262 -3.0481
   12MOL   H153 3915   0.585   1.220   7.351 -2.6614  0.7669 -0.1711
   12MOL   H154 3916   0.581   1.377   7.312 -2.3920 -1.5732  0.8394
   12MOL   C155 3917   1.101   1.351   7.213 -0.2233  0.6152 -0.5803
   12MOL   C156 3918   1.086   1.482   7.131  0.4266  0.0810  0.0705
   12MOL   N157 3919   1.080   1.608   7.202 -0.4943  0.0733 -0.5372
   12MOL   C158 3920   0.954   1.682   7.221  0.6515 -0.2089  1.3436
   12MOL   C159 3921   0.992   1.810   7.290 -0.0054 -0.0741  0.5657
   12MOL   C160 3922   1.137   1.801   7.330 -0.4754 -0.5983  0.5328
   12MOL   C161 3923   1.182   1.675   7.258  0.0266  0.7001 -0.3631
   12MOL   O162 3924   1.301   1.645   7.255 -0.4270  0.4308 -0.1588
   12MOL   H163 3925   1.204   1.316   7.218  0.1044  1.5305 -0.7887
   12MOL   H164 3926   1.080   1.375   7.317  0.4735 -0.2593 -0.2342
   12MOL   H165 3927   0.982   1.480   7.099  0.5924 -0.7388 -0.4245
   12MOL   H166 3928   0.897   1.698   7.129 -0.4301  0.1841  2.0727
   12MOL   H167 3929   0.894   1.628   7.295 -0.5252 -0.1273  0.4690
   12MOL   H168 3930   0.969   1.889   7.219 -1.6459  0.1114  1.2823
   12MOL   H169 3931   0.924   1.834   7.372  1.7158  2.5550  1.2771
   12MOL   H170 3932   1.204   1.884   7.306 -0.3372 -0.8121  0.1690
   12MOL   H171 3933   1.142   1.781   7.437 -0.4188 -1.3544  0.3893
   12MOL   C172 3934   1.186   1.482   7.010 -0.5794  0.0617  0.1607
   12MOL   C173 3935   1.105   1.519   6.880  0.2735  0.5785  0.0189
   12MOL   N174 3936   1.198   1.567   6.774  0.5664  0.4568  0.1985
   12MOL   C175 3937   1.170   1.699   6.714 -0.0508  0.1156 -0.0566
   12MOL   C176 3938   1.289   1.740   6.641 -0.5749  0.0571  0.7136
   12MOL   C177 3939   1.381   1.614   6.632 -0.1745 -0.3431  0.8806
   12MOL   C178 3940   1.319   1.518   6.737 -0.6408 -1.3848 -0.7569
   12MOL   O179 3941   1.372   1.413   6.780  0.2858 -0.4193 -0.2183
   12MOL   H180 3942   1.228   1.382   7.001 -0.2505  0.1510  0.6806
   12MOL   H181 3943   1.267   1.555   7.011  0.4872 -1.1063  1.3925
   12MOL   H182 3944   1.033   1.599   6.897  1.4849  1.5723  0.6284
   12MOL   H183 3945   1.087   1.700   6.644 -1.1899  4.0827  1.2136
   12MOL   H184 3946   1.131   1.768   6.789  0.4168  1.9032 -1.4002
   12MOL   H185 3947   1.340   1.822   6.693  2.7658 -1.5878  0.1718
   12MOL   H186 3948   1.267   1.775   6.540 -0.3761 -1.6959  0.0468
   12MOL   H187 3949   1.378   1.549   6.545 -0.9269 -0.0085  0.6567
   12MOL   H188 3950   1.487   1.622   6.660  0.8112 -0.9649 -2.4885
   12MOL   C189 3951   1.026   1.399   6.816 -0.5263 -0.5446 -0.6817
   12MOL   C190 3952   0.923   1.422   6.705  0.4572 -0.3488 -0.5868
   12MOL   N191 3953   0.877   1.298   6.648  0.8500  0.4192 -0.2624
   12MOL   C192 3954   0.959   1.238   6.542  0.3228  0.2296  0.1569
   12MOL   C193 3955   0.896   1.102   6.510  0.3873  0.4994  0.2044
   12MOL   C194 3956   0.790   1.080   6.624  0.2488  0.0613 -0.0951
   12MOL   C195 3957   0.788   1.215   6.701  0.0342 -0.2339  0.7547
   12MOL   O196 3958   0.708   1.246   6.792  0.4264 -0.0300 -0.5570
   12MOL   H197 3959   0.988   1.340   6.899 -3.3802  0.5159 -1.2028
   12MOL   H198 3960   1.097   1.329   6.771  0.5519  0.5798 -0.7797
   12MOL   H199 3961   0.969   1.482   6.626  2.1883 -0.9493 -0.0593
   12MOL   H200 3962   0.957   1.311   6.461 -1.0252 -0.1253 -0.1449
   12MOL   H201 3963   1.057   1.219   6.586  0.3147  0.2609  0.1883
   12MOL   H202 3964   0.850   1.097   6.412 -1.0265 -3.7275  0.9721
   12MOL   H203 3965   0.982   1.034   6.512 -0.4398 -0.5438  1.8508
   12MOL   H204 3966   0.692   1.058   6.583  0.1599 -2.6274  1.4361
   12MOL   H205 3967   0.820   0.999   6.691 -1.0841 -1.1648 -0.9544
   12MOL   C206 3968   0.810   1.521   6.748  0.5451 -0.2215 -0.3380
   12MOL   C207 3969   0.700   1.545   6.645  0.3638 -0.2569  0.0205
   12MOL   N208 3970   0.592   1.616   6.708 -0.5457  0.4872  0.5161
   12MOL   C209 3971   0.459   1.549   6.714  0.1476 -0.8688  0.2850
   12MOL   C210 3972   0.372   1.663   6.771 -0.1067 -0.2379  0.6109
   12MOL   C211 3973   0.456   1.777   6.822  0.2758 -0.5739 -0.1895
   12MOL   C212 3974   0.594   1.741   6.754 -0.4707  0.4526  0.1141
   12MOL   O213 3975   0.687   1.824   6.748  0.1502  0.0250  0.2366
   12MOL   H214 3976   0.859   1.618   6.762 -0.5739  0.1125  1.4195
   12MOL   H215 3977   0.770   1.490   6.844  1.5788  0.6306  0.3826
   12MOL   H216 3978   0.651   1.453   6.614 -0.2040 -0.0272  0.2198
   12MOL   H217 3979   0.410   1.527   6.619  1.2381  0.5357 -0.6378
   12MOL   H218 3980   0.457   1.456   6.770 -0.6695  0.6897  2.9006
   12MOL   H219 3981   0.314   1.707   6.690  0.1530  0.5174  0.8287
   12MOL   H220 3982   0.292   1.629   6.836  0.4533 -0.1573  1.3525
   12MOL   H221 3983   0.398   1.865   6.795  1.5001  0.7117  1.3461
   12MOL   H222 3984   0.454   1.766   6.930  0.1903 -1.6007 -0.2838
   12MOL   C223 3985   0.763   1.614   6.523  0.7287 -0.2344  0.7794
   12MOL   C224 3986   0.673   1.669   6.413  0.0146  0.5024  0.1513
   12MOL   N225 3987   0.757   1.738   6.317  0.1751  0.8076 -0.5421
   12MOL   C226 3988   0.748   1.881   6.307  0.4419  0.5670  0.7438
   12MOL   C227 3989   0.852   1.925   6.194  0.4649 -0.4055  0.1305
   12MOL   C228 3990   0.944   1.809   6.185 -0.7848  0.2042  0.0633
   12MOL   C229 3991   0.870   1.697   6.253  0.5135 -0.6624  0.1232
   12MOL   O230 3992   0.914   1.586   6.264  0.2818 -0.3758  0.3739
   12MOL   H231 3993   0.823   1.531   6.485  1.7945  0.6837  0.4332
   12MOL   H232 3994   0.825   1.694   6.563  0.4754  1.1214 -1.4683
   12MOL   H233 3995   0.613   1.747   6.461  0.7282  0.6273  0.8495
   12MOL   H234 3996   0.651   1.915   6.273  1.0383 -0.0201 -1.6024
   12MOL   H235 3997   0.767   1.930   6.403 -1.1702 -0.3257  1.5330
   12MOL   H236 3998   0.802   1.943   6.099  0.3929 -1.4235 -0.0298
   12MOL   H237 3999   0.905   2.015   6.223  3.1059 -1.6934 -0.5124
   12MOL   H238 4000   0.964   1.768   6.086  0.5596  1.6517 -0.2756
   12MOL   H239 4001   1.037   1.808   6.242 -0.4991  0.2005 -0.4053
   12MOL   C240 4002   0.580   1.573   6.345  0.2839 -0.4685 -0.4012
   12MOL   C241 4003   0.613   1.461   6.244 -0.3767 -0.7014  0.3539
   12MOL   N242 4004   0.532   1.342   6.269 -0.1250 -0.0125 -0.0642
   12MOL   C243 4005   0.590   1.233   6.335 -0.0078 -0.3145  0.2517
   12MOL   C244 4006   0.469   1.157   6.391  0.0007  0.0494 -0.5361
   12MOL   C245 4007   0.349   1.199   6.309  0.2340  1.1791 -0.2065
   12MOL   C246 4008   0.401   1.325   6.246  0.5233 -0.2421  0.5312
   12MOL   O247 4009   0.321   1.402   6.189 -0.0682 -0.4555  0.2520
   12MOL   H248 4010   0.502   1.629   6.295  0.4347  0.1781  0.0796
   12MOL   H249 4011   0.518   1.530   6.423 -0.6446 -1.2589 -1.5539
   12MOL   H250 4012   0.719   1.441   6.259 -0.1054 -0.1951 -0.8839
   12MOL   H251 4013   0.648   1.163   6.276 -0.4810  1.3562 -2.2333
   12MOL   H252 4014   0.647   1.259   6.425  0.4133 -0.4222  0.0142
   12MOL   H253 4015   0.480   1.049   6.389  0.1814  0.0787 -1.4675
   12MOL   H254 4016   0.461   1.181   6.497 -2.9414 -4.0937  0.3011
   12MOL   H255 4017   0.316   1.138   6.225  1.9688  0.7504 -0.5927
   12MOL   H256 4018   0.263   1.236   6.365  0.6416  0.6766  0.7500
   12MOL   C257 4019   0.602   1.509   6.097 -0.6220 -0.1935 -0.6787
   12MOL   C258 4020   0.655   1.400   6.004 -0.0061 -0.3272 -0.3409
   12MOL   N259 4021   0.631   1.460   5.871  0.5006  0.0097 -0.0976
   12MOL   C260 4022   0.514   1.417   5.785  0.2786  0.4591  0.0584
   12MOL   C261 4023   0.543   1.479   5.647  0.6865  0.0958  0.0035
   12MOL   C262 4024   0.642   1.590   5.674  0.5526 -0.3271  0.0743
   12MOL   C263 4025   0.693   1.561   5.816 -0.1501 -0.2680 -0.2908
   12MOL   O264 4026   0.788   1.625   5.862  0.3642  0.5575 -0.4751
   12MOL   H265 4027   0.653   1.605   6.094 -0.1565 -0.4541 -1.4257
   12MOL   H266 4028   0.498   1.533   6.075 -0.7562 -0.7560 -0.6776
   12MOL   H267 4029   0.588   1.314   6.012  0.4028 -0.4001  2.6318
   12MOL   H268 4030   0.510   1.308   5.790 -3.4351  0.5762  1.0005
   12MOL   H269 4031   0.424   1.459   5.830  1.2931  0.1679  2.4567
   12MOL   H270 4032   0.591   1.406   5.582  1.7710  0.9575 -0.1868
   12MOL   H271 4033   0.451   1.511   5.600  1.4669 -0.8027 -2.2119
   12MOL   H272 4034   0.733   1.595   5.614 -0.5202  2.1937 -1.4231
   12MOL   H273 4035   0.592   1.687   5.670  1.1846  0.0562  1.0915
   12MOL   C274 4036   0.801   1.346   6.021 -0.3080  0.2565 -1.3522
   12MOL   C275 4037   0.841   1.227   5.928  0.0725  0.6998  0.1057
   12MOL   N276 4038   0.970   1.251   5.862 -0.0620  0.2414  0.5986
   12MOL   C277 4039   1.104   1.240   5.935 -0.4034  0.2679  0.0014
   12MOL   C278 4040   1.205   1.283   5.824  0.0404  0.2773 -0.1863
   12MOL   C279 4041   1.122   1.311   5.696  0.2344 -0.3413 -0.5090
   12MOL   C280 4042   0.976   1.293   5.742 -0.8650 -0.3457 -0.6068
   12MOL   O281 4043   0.877   1.318   5.670  0.1599 -0.0791  0.0471
   12MOL   H282 4044   0.823   1.323   6.125  2.4655  2.4346 -1.3918
   12MOL   H283 4045   0.864   1.435   6.008 -1.8871  1.6477  0.2826
   12MOL   H284 4046   0.761   1.218   5.854 -1.8999 -1.4169  2.3871
   12MOL   H285 4047   1.118   1.306   6.020 -0.5638 -0.0659  0.2909
   12MOL   H286 4048   1.117   1.140   5.975 -1.7779  0.6320  1.4177
   12MOL   H287 4049   1.274   1.365   5.845  0.1504  0.0145  0.5030
   12MOL   H288 4050   1.266   1.194   5.808 -2.0188 -1.0562 -0.7007
   12MOL   H289 4051   1.138   1.411   5.655 -0.6732  0.3565  0.7868
   12MOL   H290 4052   1.158   1.240   5.621 -2.3739 -0.9341 -1.2271
   12MOL   C291 4053   0.833   1.087   6.002  0.1012  0.1836 -0.5268
   12MOL   C292 4054   0.692   1.025   6.037 -0.4146  0.1053 -0.1533
   12MOL   N293 4055   0.611   0.992   5.915 -0.6875  0.6794 -0.5560
   12MOL   C294 4056   0.674   0.923   5.802  0.2895  0.3956 -0.3717
   12MOL   C295 4057   0.554   0.875   5.721  0.5718 -0.4815 -0.1721
   12MOL   C296 4058   0.433   0.960   5.769  0.3367 -0.2905  0.3893
   12MOL   C297 4059   0.480   1.022   5.898 -0.2937 -0.3094 -0.4691
   12MOL   O298 4060   0.406   1.078   5.978  0.3592  0.7671 -0.6021
   12MOL   H299 4061   0.888   1.112   6.092  0.5479  0.4166 -0.8609
   12MOL   H300 4062   0.886   1.011   5.945 -0.1969 -0.0532 -0.4935
   12MOL   H301 4063   0.650   1.123   6.059  1.7745  1.2591 -0.9577
   12MOL   H302 4064   0.728   0.995   5.741 -1.1544  1.2610 -0.6474
   12MOL   H303 4065   0.749   0.849   5.830  0.4330  1.0828  1.1612
   12MOL   H304 4066   0.575   0.882   5.614  0.2981  5.5012  0.0103
   12MOL   H305 4067   0.533   0.770   5.740  0.8972 -0.6269 -0.6201
   12MOL   H306 4068   0.408   1.035   5.695 -0.7697  0.9008  1.9566
   12MOL   H307 4069   0.352   0.889   5.787  1.7641 -2.2305 -0.5522
   12MOL   C308 4070   0.676   0.918   6.152 -0.0624 -0.2857  0.0574
   12MOL   C309 4071   0.702   0.770   6.117 -0.2888  0.5336 -0.6159
   12MOL   N310 4072   0.836   0.741   6.070  0.6865 -0.3476  0.2091
   12MOL   C311 4073   0.852   0.635   5.970  0.5114  0.6898 -0.5504
   12MOL   C312 4074   1.008   0.608   5.967 -0.2796  0.2705  0.2204
   12MOL   C313 4075   1.072   0.722   6.043  0.1010  0.7032 -0.3784
   12MOL   C314 4076   0.954   0.792   6.109 -0.9997  0.0157 -0.5863
   12MOL   O315 4077   0.977   0.887   6.184  0.1440  0.1887  0.4568
   12MOL   H316 4078   0.577   0.927   6.195  0.2068  1.7008  0.3213
   12MOL   H317 4079   0.745   0.955   6.228  0.6930 -3.3419  0.9263
   12MOL   H318 4080   0.629   0.748   6.038 -1.0273 -0.7350  0.3993
   12MOL   H319 4081   0.803   0.546   6.011  1.2235 -0.4048 -2.0069
   12MOL   H320 4082   0.815   0.650   5.868  0.0763  2.1569 -0.1876
   12MOL   H321 4083   1.030   0.515   6.019 -0.2265  1.5341  2.5555
   12MOL   H322 4084   1.044   0.607   5.864 -0.3379  0.7679  0.1914
   12MOL   H323 4085   1.150   0.689   6.113 -0.8751 -0.2124  0.3056
   12MOL   H324 4086   1.109   0.791   5.967 -0.0065  1.5857  0.3580
   12MOL   C325 4087   0.669   0.680   6.240 -0.4433 -0.7177  0.6141
   12MOL   C326 4088   0.530   0.605   6.241  0.4231 -0.7328 -1.2361
   12MOL   N327 4089   0.421   0.698   6.229  0.4097 -0.0838  0.5854
   12MOL   C328 4090   0.360   0.752   6.345  0.5734 -0.7648  0.0741
   12MOL   C329 4091   0.239   0.841   6.294  0.0966  0.5342  0.0607
   12MOL   C330 4092   0.234   0.806   6.144 -0.4257 -0.3834 -0.3532
   12MOL   C331 4093   0.340   0.705   6.120 -0.7459  0.3473 -0.0150
   12MOL   O332 4094   0.350   0.642   6.015 -0.1003  0.1441  0.2300
   12MOL   H333 4095   0.670   0.737   6.333 -1.1260 -0.0862  0.2397
   12MOL   H334 4096   0.743   0.601   6.253  1.5497  1.3363  2.3047
   12MOL   H335 4097   0.524   0.550   6.335  3.9784 -0.3315 -0.7065
   12MOL   H336 4098   0.324   0.676   6.415  2.7655 -1.9334  0.0127
   12MOL   H337 4099   0.438   0.795   6.407  0.5206 -0.2145 -0.2388
   12MOL   H338 4100   0.148   0.815   6.349  0.2451  0.7922  0.4325
   12MOL   H339 4101   0.264   0.947   6.302  1.8058  0.0684  1.1854
   12MOL   H340 4102   0.135   0.771   6.113 -1.6214  2.3846  0.2065
   12MOL   H341 4103   0.264   0.895   6.091 -0.9785  0.2469  0.3786
   12MOL   H342 4104   0.532   0.530   6.162 -0.4921 -0.6121 -1.3786
   13MOL     C1 4105   4.837   2.238   0.061 -0.1077  0.5597  0.1427
   13MOL     C2 4106   4.806   2.376   0.121  0.4557  0.5252 -0.3515
   13MOL     N3 4107   4.823   2.384   0.271 -0.3365  0.3922  0.2583
   13MOL     C4 4108   4.707   2.402   0.352 -0.2828 -0.4148 -0.3028
   13MOL     C5 4109   4.757   2.441   0.486  0.1905  0.7079  0.2935
   13MOL     C6 4110   4.906   2.410   0.490 -1.1278  0.1564  0.1449
   13MOL     C7 4111   4.936   2.391   0.342  0.0162  0.5901 -0.0684
   13MOL     O8 4112   5.050   2.370   0.306 -0.4065 -0.1802 -0.6077
   13MOL     H9 4113   4.773   2.159   0.101  0.0920  0.0970 -0.4459
   13MOL    H10 4114   4.821   2.238   7.859  1.5142  1.2329 -0.1143
   13MOL    H11 4115   4.700   2.396   0.107  0.2091 -0.1648  0.4862
   13MOL    H12 4116   4.630   2.461   0.302  0.3613  3.3527  2.8706
   13MOL    H13 4117   4.656   2.306   0.359 -0.8491 -0.0417  1.0082
   13MOL    H14 4118   4.734   2.541   0.522  0.8365  0.7500  0.6089
   13MOL    H15 4119   4.714   2.378   0.564 -0.0426 -0.2456 -0.5990
   13MOL    H16 4120   4.959   2.491   0.539 -1.8331 -0.2381  1.5603
   13MOL    H17 4121   4.919   2.314   0.539  0.1470  0.3964  0.2980
   13MOL    H18 4122   4.941   2.205   0.067 -0.0310  0.8391  0.3652
   13MOL    C19 4123   4.890   2.485   0.051  0.8652 -0.1097  0.7021
   13MOL    C20 4124   4.853   2.635   0.080  0.3763  0.2648  0.0237
   13MOL    N21 4125   4.954   2.731   0.036 -0.6011  0.3347 -0.4366
   13MOL    C22 4126   5.034   2.704   7.829  0.0586 -0.5457 -0.2338
   13MOL    C23 4127   5.093   2.840   7.791  0.3974  0.6817 -0.5241
   13MOL    C24 4128   5.074   2.925   0.007  0.1053 -0.4004  0.3701
   13MOL    C25 4129   4.967   2.856   0.084 -0.3362  0.0976  0.2061
   13MOL    O26 4130   4.914   2.905   0.183 -0.2747  0.1688  0.8942
   13MOL    H27 4131   4.885   2.469   7.850 -0.6433  0.4328  0.6766
   13MOL    H28 4132   4.992   2.473   0.087  0.3988 -0.7213  1.8464
   13MOL    H29 4133   4.850   2.652   0.188 -0.6823  0.4560 -0.0324
   13MOL    H30 4134   5.108   2.632   7.864  1.6963  1.5741  0.7311
   13MOL    H31 4135   4.971   2.659   7.752 -1.1933 -0.2860  0.6145
   13MOL    H32 4136   5.197   2.836   7.758 -0.3879 -0.8684 -2.9506
   13MOL    H33 4137   5.045   2.879   7.701 -3.9782 -1.6273  0.7030
   13MOL    H34 4138   5.164   2.936   0.068 -0.7429 -2.1324  2.0289
   13MOL    H35 4139   5.049   3.027   7.887 -1.7943 -0.5172  1.6345
   13MOL    C36 4140   4.710   2.669   0.038 -0.2314  0.2252  0.0486
   13MOL    C37 4141   4.675   2.694   7.799  0.4157 -0.6610 -0.0982
   13MOL    N38 4142   4.529   2.672   7.784 -0.1646 -0.4018 -0.0828
   13MOL    C39 4143   4.425   2.757   7.847  0.2331 -0.2354 -0.4851
   13MOL    C40 4144   4.282   2.692   7.835 -0.2965 -0.8172  0.7041
   13MOL    C41 4145   4.317   2.571   7.737  0.1911 -0.6544 -0.4227
   13MOL    C42 4146   4.471   2.568   7.727  0.5482 -0.4364 -0.4740
   13MOL    O43 4147   4.534   2.476   7.678  0.9277  0.0403 -0.0331
   13MOL    H44 4148   4.693   2.768   0.080  0.1981  0.9456 -1.4111
   13MOL    H45 4149   4.636   2.601   0.078 -1.3886 -0.2291 -2.7175
   13MOL    H46 4150   4.720   2.612   7.744  3.3353 -0.2666  1.5892
   13MOL    H47 4151   4.467   2.769   0.041 -0.6213 -2.1866  0.1467
   13MOL    H48 4152   4.418   2.853   7.797 -3.7922 -0.4288 -0.4546
   13MOL    H49 4153   4.265   2.651   0.029  1.2256 -4.0213 -0.3051
   13MOL    H50 4154   4.200   2.761   7.810 -0.5793 -1.4748 -0.2072
   13MOL    H51 4155   4.283   2.473   7.771  1.2948 -0.0713  2.4802
   13MOL    H52 4156   4.278   2.595   7.638  0.7949 -0.6949 -0.6703
   13MOL    C53 4157   4.712   2.835   7.741  0.4084 -0.3814  0.1314
   13MOL    C54 4158   4.679   2.844   7.591  0.5262  0.1496 -0.5109
   13MOL    N55 4159   4.655   2.979   7.542 -0.9232  0.0089  0.0355
   13MOL    C56 4160   4.535   3.016   7.468 -0.1780  0.1266 -0.4980
   13MOL    C57 4161   4.567   3.158   7.409  0.1591 -0.3806  0.2184
   13MOL    C58 4162   4.700   3.208   7.468 -0.4093  0.1727  0.0424
   13MOL    C59 4163   4.739   3.084   7.553 -0.4033  0.2300  0.1945
   13MOL    O60 4164   4.841   3.086   7.616  0.3140 -0.6426 -0.0490
   13MOL    H61 4165   4.818   2.858   7.748  0.4074 -0.2652 -0.2259
   13MOL    H62 4166   4.659   2.913   7.796 -1.6846  0.3743 -2.7802
   13MOL    H63 4167   4.578   2.801   7.587  0.3239  0.7453 -2.2376
   13MOL    H64 4168   4.511   2.957   7.380  1.0511  0.2201 -0.9160
   13MOL    H65 4169   4.451   3.002   7.535  0.3053 -0.0508  0.0814
   13MOL    H66 4170   4.573   3.160   7.301  0.3933 -0.0800  0.2351
   13MOL    H67 4171   4.497   3.238   7.433  0.7226  1.2754 -3.3673
   13MOL    H68 4172   4.773   3.226   7.390 -2.6505  0.2899 -2.0818
   13MOL    H69 4173   4.694   3.296   7.531  0.4267  0.9083 -0.9005
   13MOL    C70 4174   4.770   2.759   7.494 -0.2383 -0.7208 -0.1857
   13MOL    C71 4175   4.695   2.712   7.365  0.1959  0.5987  0.6286
   13MOL    N72 4176   4.793   2.661   7.271 -0.0158 -0.2549  0.5835
   13MOL    C73 4177   4.846   2.528   7.282 -0.4842 -0.3846  0.1837
   13MOL    C74 4178   4.948   2.512   7.174 -0.3038 -0.0293 -0.9492
   13MOL    C75 4179   4.979   2.652   7.119 -0.3364  0.3073 -0.3066
   13MOL    C76 4180   4.876   2.733   7.196 -0.2386 -0.7455  0.2312
   13MOL    O77 4181   4.866   2.858   7.188  0.0585  0.4546  0.1608
   13MOL    H78 4182   4.813   2.671   7.541  2.9702  0.6049 -0.5359
   13MOL    H79 4183   4.864   2.808   7.471 -1.2411 -0.1731 -3.4363
   13MOL    H80 4184   4.651   2.804   7.327  0.8766  1.2529  1.4349
   13MOL    H81 4185   4.893   2.511   7.379 -1.8437  1.2997  1.1812
   13MOL    H82 4186   4.773   2.449   7.265 -1.8032  0.6956  0.7824
   13MOL    H83 4187   5.030   2.455   7.217 -0.4029  1.7242  1.7153
   13MOL    H84 4188   4.896   2.453   7.099 -0.4076 -2.7206  1.1651
   13MOL    H85 4189   5.079   2.688   7.144  0.1672 -0.5619 -1.0586
   13MOL    H86 4190   4.956   2.674   7.015  0.0198 -1.9872 -0.8955
   13MOL    C87 4191   4.573   2.609   7.380 -0.4978 -0.3616 -0.5799
   13MOL    C88 4192   4.500   2.554   7.256 -0.2732  0.0889  0.2907
   13MOL    N89 4193   4.458   2.416   7.282  0.2210  0.4529 -0.1823
   13MOL    C90 4194   4.535   2.303   7.230  0.4858 -0.0214 -0.9640
   13MOL    C91 4195   4.455   2.177   7.278  0.4455 -0.1165  0.5665
   13MOL    C92 4196   4.354   2.225   7.378 -0.1147  0.2664 -1.1315
   13MOL    C93 4197   4.360   2.373   7.365  0.6992  0.0201  0.5619
   13MOL    O94 4198   4.299   2.436   7.446 -0.2215 -0.3128  0.4073
   13MOL    H95 4199   4.494   2.644   7.447  0.6842  0.9336  0.1797
   13MOL    H96 4200   4.618   2.524   7.431 -2.0603 -0.2930  0.9261
   13MOL    H97 4201   4.571   2.548   7.174 -1.7993 -0.5708 -1.0134
   13MOL    H98 4202   4.542   2.298   7.122 -0.3522 -4.2585 -0.8962
   13MOL    H99 4203   4.636   2.302   7.273  0.1690  0.3143 -0.1933
   13MOL   H100 4204   4.393   2.136   7.199 -1.4156  3.2874  0.1361
   13MOL   H101 4205   4.526   2.097   7.297  0.5877  0.1572  1.2017
   13MOL   H102 4206   4.257   2.180   7.356 -0.7229  2.2625 -2.7003
   13MOL   H103 4207   4.386   2.212   7.481 -1.1869  0.8555 -0.7148
   13MOL   C104 4208   4.386   2.646   7.204 -0.3708 -0.4914  0.3213
   13MOL   C105 4209   4.317   2.601   7.070  0.6058  0.2786  0.5873
   13MOL   N106 4210   4.188   2.667   7.054  1.1916  0.3925 -0.7503
   13MOL   C107 4211   4.066   2.595   7.078  0.1684 -0.0423  0.0005
   13MOL   C108 4212   3.952   2.685   7.038  0.1636 -0.3941  0.0803
   13MOL   C109 4213   4.010   2.828   7.026 -0.3754  0.6768 -0.1285
   13MOL   C110 4214   4.160   2.795   7.023 -0.0359 -0.1153  0.2820
   13MOL   O111 4215   4.241   2.884   7.007 -0.5332  0.3575  0.3484
   13MOL   H112 4216   4.408   2.752   7.190 -0.8243 -0.6583 -1.7107
   13MOL   H113 4217   4.306   2.651   7.279 -0.7888  0.3021 -0.1814
   13MOL   H114 4218   4.293   2.495   7.076  3.3444 -0.5648 -1.9248
   13MOL   H115 4219   4.049   2.512   7.009 -1.4896 -0.4934  0.9387
   13MOL   H116 4220   4.062   2.558   7.180  0.4400 -0.3751 -0.1068
   13MOL   H117 4221   3.922   2.644   6.941 -2.0032  1.4071 -0.0349
   13MOL   H118 4222   3.863   2.681   7.101 -0.9309 -1.5353 -1.5095
   13MOL   H119 4223   3.971   2.903   7.095 -2.3434 -1.1100  0.7399
   13MOL   H120 4224   3.983   2.868   6.928  0.5228 -1.1627 -1.1549
   13MOL   C121 4225   4.406   2.628   6.949  0.4130  0.0571  0.0048
   13MOL   C122 4226   4.462   2.503   6.888 -0.3129 -0.6817 -0.0470
   13MOL   N123 4227   4.366   2.421   6.817 -0.4664 -0.5531 -0.2885
   13MOL   C124 4228   4.412   2.283   6.779 -0.2191  0.0439 -0.1619
   13MOL   C125 4229   4.310   2.235   6.674 -0.3053  0.3787 -0.3636
   13MOL   C126 4230   4.186   2.312   6.723  0.3258 -1.2596  0.0561
   13MOL   C127 4231   4.242   2.442   6.773  0.7918 -0.3657 -0.2589
   13MOL   O128 4232   4.175   2.545   6.773 -0.0636  0.0230  0.0072
   13MOL   H129 4233   4.480   2.699   6.987  0.3166 -0.9452  2.1347
   13MOL   H130 4234   4.362   2.683   6.866 -2.1638 -0.3521  1.0494
   13MOL   H131 4235   4.490   2.455   6.982  1.6130  0.9908  0.2716
   13MOL   H132 4236   4.415   2.229   6.873  0.6079 -0.9847 -0.7672
   13MOL   H133 4237   4.509   2.282   6.730 -0.3542  1.7008 -0.5073
   13MOL   H134 4238   4.354   2.269   6.580  1.6358 -1.0216  0.0084
   13MOL   H135 4239   4.299   2.127   6.669  1.8869  0.1358 -0.4732
   13MOL   H136 4240   4.110   2.329   6.647  0.2749 -1.2498  0.1084
   13MOL   H137 4241   4.133   2.268   6.808  0.4646 -2.8608 -0.6665
   13MOL   C138 4242   4.588   2.527   6.812  0.3070  0.5736  0.2755
   13MOL   C139 4243   4.581   2.586   6.663 -0.2539  0.0706 -0.3324
   13MOL   N140 4244   4.512   2.713   6.651  0.1856  0.1419  0.4343
   13MOL   C141 4245   4.391   2.739   6.563 -0.1917 -0.0293 -0.4919
   13MOL   C142 4246   4.334   2.871   6.611 -0.5470  0.0645  0.2244
   13MOL   C143 4247   4.448   2.933   6.696  0.3790  0.3556 -0.2044
   13MOL   C144 4248   4.541   2.824   6.726 -0.4833  0.0129 -0.2591
   13MOL   O145 4249   4.628   2.826   6.808 -0.2162 -0.4117 -0.1921
   13MOL   H146 4250   4.632   2.427   6.801 -1.8585 -0.3513 -0.3191
   13MOL   H147 4251   4.663   2.587   6.863 -0.0474  0.9890  0.3146
   13MOL   H148 4252   4.525   2.517   6.600 -3.4801  0.1520  2.3546
   13MOL   H149 4253   4.413   2.735   6.456  1.9429  0.0692 -0.0748
   13MOL   H150 4254   4.322   2.656   6.578  0.4120 -0.3193  0.7849
   13MOL   H151 4255   4.318   2.927   6.518  0.2293  0.2544  0.2003
   13MOL   H152 4256   4.236   2.875   6.660  0.4868  0.4365  2.3348
   13MOL   H153 4257   4.405   2.967   6.791 -1.4222  0.4844 -1.0420
   13MOL   H154 4258   4.504   3.009   6.642 -0.2253 -0.3317 -1.8352
   13MOL   C155 4259   4.719   2.602   6.594  0.0918 -0.2673  0.5061
   13MOL   C156 4260   4.800   2.474   6.552 -0.8281  0.1244  0.3419
   13MOL   N157 4261   4.716   2.361   6.510  0.6711  0.2086 -0.2638
   13MOL   C158 4262   4.745   2.227   6.548 -0.3947  0.4123  0.2232
   13MOL   C159 4263   4.644   2.140   6.476 -0.2710 -0.4348  0.2492
   13MOL   C160 4264   4.570   2.233   6.382  0.2099 -0.2804  0.3968
   13MOL   C161 4265   4.627   2.367   6.406  0.6847 -0.7778 -0.2647
   13MOL   O162 4266   4.582   2.468   6.344 -0.0441  0.1934  0.0002
   13MOL   H163 4267   4.785   2.667   6.652  1.6038 -0.2971 -1.1056
   13MOL   H164 4268   4.709   2.661   6.503  0.9860  0.2893  0.7609
   13MOL   H165 4269   4.847   2.436   6.642 -3.0096 -0.5002  1.2701
   13MOL   H166 4270   4.843   2.207   6.504  0.3606  0.8993  1.6144
   13MOL   H167 4271   4.746   2.205   6.655  1.2444 -1.5237 -0.1586
   13MOL   H168 4272   4.691   2.049   6.437 -0.3776 -0.9874  1.3985
   13MOL   H169 4273   4.567   2.104   6.544 -0.9294  1.4665  0.5327
   13MOL   H170 4274   4.580   2.202   6.278 -3.3400  2.0951 -0.7540
   13MOL   H171 4275   4.462   2.248   6.390  0.0785 -0.9134 -0.1318
   13MOL   C172 4276   4.906   2.503   6.438 -0.0431  0.0780 -0.4492
   13MOL   C173 4277   5.022   2.597   6.488 -0.2336 -0.0333 -0.0460
   13MOL   N174 4278   5.090   2.530   6.597 -0.5221  0.4655 -0.0631
   13MOL   C175 4279   5.093   2.598   6.723 -0.1263 -0.4355  0.1021
   13MOL   C176 4280   5.146   2.493   6.824 -0.4739 -0.4975 -0.0042
   13MOL   C177 4281   5.204   2.383   6.731 -0.6764 -0.5092 -0.1823
   13MOL   C178 4282   5.148   2.412   6.595  0.1097 -0.1316 -0.2438
   13MOL   O179 4283   5.157   2.340   6.494  0.6679  0.4359 -0.1157
   13MOL   H180 4284   4.856   2.532   6.345  2.1316  0.1610 -1.6328
   13MOL   H181 4285   4.949   2.405   6.418 -1.6077 -1.1005  1.7165
   13MOL   H182 4286   4.958   2.683   6.507 -1.3332 -0.9291  0.3496
   13MOL   H183 4287   5.156   2.686   6.715 -0.0953 -0.5233 -0.5611
   13MOL   H184 4288   4.991   2.626   6.754  0.5148  0.9968  1.0096
   13MOL   H185 4289   5.073   2.450   6.892 -2.4632  0.5098 -1.4289
   13MOL   H186 4290   5.225   2.526   6.890 -0.7111  2.2439 -1.0265
   13MOL   H187 4291   5.309   2.404   6.713 -0.8340 -0.2633 -0.8517
   13MOL   H188 4292   5.177   2.283   6.764 -0.5793  0.0261  1.5285
   13MOL   C189 4293   5.124   2.650   6.390 -0.3794 -0.1394 -0.1194
   13MOL   C190 4294   5.085   2.705   6.248 -0.0972 -0.5543 -0.7213
   13MOL   N191 4295   4.972   2.798   6.250 -0.6373 -0.6076 -0.2247
   13MOL   C192 4296   4.973   2.912   6.339  0.6066 -0.2016  0.0572
   13MOL   C193 4297   4.825   2.968   6.335 -0.0924 -0.0353 -0.0449
   13MOL   C194 4298   4.768   2.916   6.202  0.3507 -0.0295 -0.3776
   13MOL   C195 4299   4.868   2.801   6.170  0.1735 -0.3833  0.1922
   13MOL   O196 4300   4.854   2.721   6.080 -0.2645  0.3787  0.0502
   13MOL   H197 4301   5.199   2.574   6.365  1.0488  1.1686  0.1209
   13MOL   H198 4302   5.183   2.723   6.445 -1.6525  0.6132  0.2601
   13MOL   H199 4303   5.058   2.612   6.196  2.3770 -1.5295 -0.3148
   13MOL   H200 4304   4.994   2.868   6.437 -1.2736  1.6992  1.3687
   13MOL   H201 4305   5.044   2.989   6.309  0.8764 -1.3430 -2.2904
   13MOL   H202 4306   4.763   2.928   6.416  1.9192  0.1057  1.6215
   13MOL   H203 4307   4.816   3.077   6.333 -2.0904 -0.2260 -2.1662
   13MOL   H204 4308   4.670   2.868   6.212  0.4341 -0.5473 -1.9219
   13MOL   H205 4309   4.760   2.985   6.118  0.7214  0.8986  0.3399
   13MOL   C206 4310   5.197   2.759   6.165  0.8179 -0.3370 -0.0445
   13MOL   C207 4311   5.323   2.667   6.149 -0.4377  0.3195 -0.0074
   13MOL   N208 4312   5.371   2.681   6.009 -0.3113  0.4950  0.2643
   13MOL   C209 4313   5.429   2.808   5.960 -0.1166  0.0218 -0.1583
   13MOL   C210 4314   5.460   2.782   5.809 -0.2909 -0.1328 -0.3345
   13MOL   C211 4315   5.427   2.640   5.783 -0.4568  0.3606  0.6058
   13MOL   C212 4316   5.374   2.587   5.914  0.3014  0.5174  1.1054
   13MOL   O213 4317   5.342   2.470   5.924 -0.1357 -0.1685  0.3021
   13MOL   H214 4318   5.224   2.857   6.204  0.0493 -0.5039  0.9443
   13MOL   H215 4319   5.158   2.765   6.063  0.6880 -1.8049 -0.0904
   13MOL   H216 4320   5.286   2.564   6.158  0.4595  0.2113  2.8899
   13MOL   H217 4321   5.362   2.892   5.980  0.2445  0.6062 -1.3327
   13MOL   H218 4322   5.523   2.815   6.014 -0.5292  1.3466  0.4098
   13MOL   H219 4323   5.392   2.844   5.752 -3.0101 -2.8893 -0.2152
   13MOL   H220 4324   5.565   2.804   5.788 -0.3776  2.1439  1.3701
   13MOL   H221 4325   5.344   2.643   5.713  0.0340  2.1691  0.0675
   13MOL   H222 4326   5.507   2.581   5.737 -0.4665  1.6490 -1.1031
   13MOL   C223 4327   5.429   2.708   6.255 -0.3668 -0.3725  0.3785
   13MOL   C224 4328   5.558   2.626   6.261  0.8134 -1.2095 -0.4402
   13MOL   N225 4329   5.654   2.693   6.356  0.6042  0.4901 -0.8574
   13MOL   C226 4330   5.766   2.773   6.314 -0.2737  0.3455 -0.1995
   13MOL   C227 4331   5.829   2.843   6.437 -1.2326  0.5847 -0.2401
   13MOL   C228 4332   5.743   2.792   6.551 -0.4652  0.1851  0.1412
   13MOL   C229 4333   5.636   2.709   6.492  0.1227  0.1037  0.3129
   13MOL   O230 4334   5.544   2.660   6.561 -0.0793  0.3077 -0.2061
   13MOL   H231 4335   5.381   2.707   6.354 -2.3342  0.6449 -0.5421
   13MOL   H232 4336   5.454   2.813   6.244 -0.5768 -0.3196  0.4121
   13MOL   H233 4337   5.605   2.622   6.163  0.9846  0.0973 -0.4195
   13MOL   H234 4338   5.832   2.706   6.260 -2.0333 -1.6824  0.1061
   13MOL   H235 4339   5.736   2.838   6.232  1.4048  0.1202 -1.0088
   13MOL   H236 4340   5.935   2.819   6.446 -1.3878  0.4033  1.2480
   13MOL   H237 4341   5.824   2.952   6.440 -2.0719  0.4984  3.2581
   13MOL   H238 4342   5.793   2.709   6.603 -0.2241  0.7692  0.8471
   13MOL   H239 4343   5.711   2.858   6.631  0.9990 -1.0530  1.8260
   13MOL   C240 4344   5.528   2.479   6.311 -0.8173 -0.0682  0.5266
   13MOL   C241 4345   5.657   2.391   6.335 -0.0004  0.7672  0.0194
   13MOL   N242 4346   5.630   2.278   6.430 -0.1399  0.0134  0.0417
   13MOL   C243 4347   5.655   2.300   6.574  0.3003 -0.0159  0.4148
   13MOL   C244 4348   5.594   2.176   6.639  0.2730 -0.5078 -0.1641
   13MOL   C245 4349   5.559   2.081   6.529  0.0173  0.8732 -0.1783
   13MOL   C246 4350   5.576   2.161   6.400  0.4839 -0.2265  0.3088
   13MOL   O247 4351   5.533   2.118   6.292  0.2284  0.1159  0.4254
   13MOL   H248 4352   5.452   2.433   6.249 -1.0522 -0.8171  1.3499
   13MOL   H249 4353   5.469   2.485   6.403 -2.8082 -3.5315 -0.4600
   13MOL   H250 4354   5.734   2.449   6.387  1.8425  0.1343 -1.9663
   13MOL   H251 4355   5.763   2.294   6.584  0.4149  0.6190 -0.4320
   13MOL   H252 4356   5.616   2.391   6.620 -2.1343 -1.0328  0.4726
   13MOL   H253 4357   5.668   2.138   6.709 -0.6270 -2.1345 -0.0564
   13MOL   H254 4358   5.504   2.210   6.690  1.0910  0.6138  0.5472
   13MOL   H255 4359   5.628   1.997   6.518 -1.5616 -0.7717  2.1589
   13MOL   H256 4360   5.459   2.040   6.541  0.3294 -0.0612 -0.7657
   13MOL   C257 4361   5.711   2.348   6.196 -0.3110 -0.0045 -0.0394
   13MOL   C258 4362   5.837   2.261   6.202 -0.2997  0.7593  0.1667
   13MOL   N259 4363   5.839   2.177   6.081  0.0453 -0.7422  0.0536
   13MOL   C260 4364   5.816   2.034   6.092 -0.3189  0.2353 -0.5868
   13MOL   C261 4365   5.861   1.975   5.958 -0.6722  0.1765 -0.7698
   13MOL   C262 4366   5.879   2.095   5.861  0.8238 -0.5032 -0.4433
   13MOL   C263 4367   5.868   2.215   5.957 -0.0845  0.2216  0.4633
   13MOL   O264 4368   5.890   2.329   5.921 -0.3562 -0.1971  0.6308
   13MOL   H265 4369   5.749   2.435   6.141  2.4827 -0.3944  1.2005
   13MOL   H266 4370   5.631   2.298   6.141 -0.7575 -1.2365  1.6902
   13MOL   H267 4371   5.826   2.202   6.293 -0.7885  0.3832 -0.1295
   13MOL   H268 4372   5.859   1.992   6.183 -3.1110 -1.4274 -0.0011
   13MOL   H269 4373   5.708   2.030   6.093 -0.3659  1.2524  0.8999
   13MOL   H270 4374   5.953   1.920   5.971 -1.9923 -1.9745 -0.3603
   13MOL   H271 4375   5.784   1.905   5.926  0.3648 -2.2108  1.7769
   13MOL   H272 4376   5.981   2.080   5.826  1.9361  3.3709  0.8548
   13MOL   H273 4377   5.805   2.105   5.782  1.3418  2.0749 -0.6357
   13MOL   C274 4378   5.970   2.339   6.234 -0.7477 -0.4425 -0.1457
   13MOL   C275 4379   6.097   2.256   6.262 -0.2112 -0.3519  0.7447
   13MOL   N276 4380   6.220   2.329   6.233 -0.4514 -0.2126 -0.0274
   13MOL   C277 4381   6.303   2.282   6.124 -0.0311 -0.1992  1.0385
   13MOL   C278 4382   6.419   2.387   6.115  0.1484  0.2719 -0.4957
   13MOL   C279 4383   6.373   2.502   6.203 -0.8563 -0.4901  0.4372
   13MOL   C280 4384   6.254   2.456   6.275  0.7318  0.1089  0.2679
   13MOL   O281 4385   6.196   2.523   6.358  0.3358 -0.3869  0.0681
   13MOL   H282 4386   5.960   2.400   6.324 -0.4710  0.0587 -0.4540
   13MOL   H283 4387   5.983   2.413   6.156  0.6285 -3.2418 -2.6753
   13MOL   H284 4388   6.096   2.177   6.187  0.5298 -0.9030  1.3101
   13MOL   H285 4389   6.345   2.182   6.133  0.1755 -0.4408 -1.9998
   13MOL   H286 4390   6.224   2.287   6.049  0.7558 -1.7450  0.0601
   13MOL   H287 4391   6.514   2.339   6.140  0.0529 -1.3768 -3.1141
   13MOL   H288 4392   6.445   2.417   6.014  2.3547  1.1604  0.2903
   13MOL   H289 4393   6.451   2.524   6.275 -1.0854  1.2358  0.1691
   13MOL   H290 4394   6.360   2.594   6.146 -1.7843 -1.0330 -0.2564
   13MOL   C291 4395   6.087   2.188   6.396 -0.1557  0.2732  0.2443
   13MOL   C292 4396   6.204   2.091   6.438  0.5314 -0.6441 -0.4799
   13MOL   N293 4397   6.192   2.071   6.583 -0.4316  0.0409 -0.5792
   13MOL   C294 4398   6.282   2.143   6.683 -0.0522 -0.1709  1.0992
   13MOL   C295 4399   6.232   2.105   6.824  0.0596 -0.3737 -0.2408
   13MOL   C296 4400   6.113   2.014   6.792  0.2100 -0.4404 -0.0813
   13MOL   C297 4401   6.094   2.004   6.645  0.0019  0.0610 -0.6431
   13MOL   O298 4402   6.009   1.934   6.594 -0.2200  0.9187 -0.2326
   13MOL   H299 4403   6.001   2.122   6.393  0.5338 -0.7473  1.7512
   13MOL   H300 4404   6.074   2.257   6.479  2.7392 -1.1393  1.9858
   13MOL   H301 4405   6.297   2.147   6.432 -0.7428  1.4315 -1.6435
   13MOL   H302 4406   6.384   2.115   6.657  0.4268  1.3278  1.3249
   13MOL   H303 4407   6.280   2.251   6.674  2.5448 -0.3243 -1.6757
   13MOL   H304 4408   6.305   2.052   6.885 -0.5322 -0.4038  0.4565
   13MOL   H305 4409   6.194   2.187   6.886 -0.6713 -0.0010 -1.1654
   13MOL   H306 4410   6.130   1.909   6.816  1.4915 -0.0294  0.8907
   13MOL   H307 4411   6.024   2.041   6.849  0.1179 -0.7867 -0.0603
   13MOL   C308 4412   6.216   1.963   6.353  0.3819 -0.3327  0.4683
   13MOL   C309 4413   6.329   1.860   6.404 -0.0066  0.3499  0.6273
   13MOL   N310 4414   6.303   1.736   6.330 -0.5272  0.3024 -0.1819
   13MOL   C311 4415   6.204   1.642   6.382  0.0049 -0.4480  0.3604
   13MOL   C312 4416   6.183   1.538   6.271  0.2049 -0.0828  0.1017
   13MOL   C313 4417   6.293   1.569   6.166  0.0198  0.0340  0.6979
   13MOL   C314 4418   6.353   1.694   6.215 -0.1561 -0.4876 -0.0053
   13MOL   O315 4419   6.431   1.755   6.138  0.7786 -0.0713 -0.8882
   13MOL   H316 4420   6.246   1.994   6.253 -1.8925  1.3821  0.2836
   13MOL   H317 4421   6.120   1.915   6.335  0.7656 -1.7883  2.1407
   13MOL   H318 4422   6.321   1.826   6.507 -1.9088 -0.3575  0.2650
   13MOL   H319 4423   6.231   1.605   6.480 -2.4240 -2.5432  0.3025
   13MOL   H320 4424   6.112   1.700   6.394  0.4103  0.1722  0.5022
   13MOL   H321 4425   6.212   1.441   6.310  1.7124  0.0784 -0.5689
   13MOL   H322 4426   6.081   1.545   6.233  0.7265  0.7532 -1.1957
   13MOL   H323 4427   6.374   1.496   6.171  0.2091 -0.0396 -2.3703
   13MOL   H324 4428   6.262   1.563   6.062  1.0548 -0.5953  0.4099
   13MOL   C325 4429   6.483   1.905   6.409  0.1480 -0.0993 -0.0887
   13MOL   C326 4430   6.583   1.799   6.467 -0.2381 -0.0212 -0.3639
   13MOL   N327 4431   6.724   1.841   6.482 -0.1838 -0.3234 -0.6500
   13MOL   C328 4432   6.827   1.779   6.400 -0.0482  0.2578  0.2622
   13MOL   C329 4433   6.955   1.855   6.426 -0.4417 -0.2530  0.4689
   13MOL   C330 4434   6.920   1.950   6.538 -0.6720 -0.9074  0.6997
   13MOL   C331 4435   6.770   1.937   6.558 -0.0986 -0.4924  0.0558
   13MOL   O332 4436   6.712   2.010   6.638  0.4459  0.2869  0.0920
   13MOL   H333 4437   6.479   1.992   6.474  0.2152 -0.9222  1.0159
   13MOL   H334 4438   6.517   1.933   6.309  0.7748 -2.9611 -0.7223
   13MOL   H335 4439   6.574   1.701   6.420 -0.2015 -0.3245  0.2547
   13MOL   H336 4440   6.844   1.679   6.438  0.5033  0.5780  0.8562
   13MOL   H337 4441   6.797   1.769   6.295  1.0469 -1.7985  0.1240
   13MOL   H338 4442   7.037   1.786   6.450 -0.9011 -0.8484  0.3497
   13MOL   H339 4443   6.983   1.910   6.336  0.7214  0.0238  0.9969
   13MOL   H340 4444   6.975   1.915   6.625 -0.7350 -1.3622  0.5613
   13MOL   H341 4445   6.942   2.054   6.514 -1.3801 -0.9084  0.0076
   13MOL   H342 4446   6.553   1.785   6.571  1.3313  1.7598  0.3472
   14MOL     C1 4447   2.653   5.437   1.743 -0.4963 -0.5972 -0.3803
   14MOL     C2 4448   2.518   5.376   1.740  0.7401 -0.0084 -0.2152
   14MOL     N3 4449   2.525   5.243   1.668  0.4345  0.2197  0.4291
   14MOL     C4 4450   2.624   5.144   1.691 -0.1006  0.1638 -0.2791
   14MOL     C5 4451   2.583   5.026   1.604  0.9248  0.7052  0.0249
   14MOL     C6 4452   2.443   5.058   1.547  0.2985 -0.4034 -0.7349
   14MOL     C7 4453   2.425   5.198   1.593  0.3329 -0.6182 -0.0537
   14MOL     O8 4454   2.328   5.260   1.556  0.3722  0.2676  0.0411
   14MOL     H9 4455   2.664   5.544   1.757 -0.4580 -0.7902  1.1040
   14MOL    H10 4456   2.705   5.392   1.827  1.8007 -0.0107 -1.4453
   14MOL    H11 4457   2.461   5.444   1.676 -1.1010 -1.9653 -0.7235
   14MOL    H12 4458   2.724   5.175   1.661 -2.2732  3.0296 -5.1664
   14MOL    H13 4459   2.619   5.132   1.799  2.6736 -2.2235 -0.3529
   14MOL    H14 4460   2.649   4.993   1.524 -0.3177 -0.3687 -0.5970
   14MOL    H15 4461   2.565   4.942   1.670  0.8346  0.2957 -0.5128
   14MOL    H16 4462   2.439   5.061   1.438  1.1904  0.3591 -0.7512
   14MOL    H17 4463   2.361   5.001   1.591 -0.1908 -0.6162 -1.8830
   14MOL    H18 4464   2.705   5.409   1.651 -0.0428  1.3405 -0.7157
   14MOL    C19 4465   2.449   5.358   1.875  0.3448 -0.0031 -0.0085
   14MOL    C20 4466   2.440   5.490   1.963 -0.1153 -0.2490 -0.6974
   14MOL    N21 4467   2.317   5.506   2.046  0.1224 -0.6842  0.3317
   14MOL    C22 4468   2.213   5.606   2.016 -0.1468  0.4156 -0.3895
   14MOL    C23 4469   2.136   5.618   2.151 -0.7931  0.3397 -0.0965
   14MOL    C24 4470   2.158   5.484   2.219  0.3885  0.4209  0.0874
   14MOL    C25 4471   2.283   5.435   2.159  0.1942 -0.0885  0.2860
   14MOL    O26 4472   2.347   5.343   2.208  0.3317  0.0409 -0.4073
   14MOL    H27 4473   2.501   5.278   1.928 -0.3948 -0.0433  0.6629
   14MOL    H28 4474   2.346   5.326   1.868  0.0526  1.2206 -1.6280
   14MOL    H29 4475   2.423   5.570   1.891 -0.0978  1.1986  0.8679
   14MOL    H30 4476   2.256   5.704   1.994  1.7720 -0.3007  0.0667
   14MOL    H31 4477   2.150   5.563   1.938  0.1804 -1.4211  0.3293
   14MOL    H32 4478   2.168   5.693   2.223 -0.5427  0.1994 -0.0637
   14MOL    H33 4479   2.028   5.628   2.141 -0.9878 -2.1490 -0.8530
   14MOL    H34 4480   2.158   5.489   2.328  1.2836  0.6083  0.0827
   14MOL    H35 4481   2.078   5.418   2.186  0.6677  0.3957 -0.5545
   14MOL    C36 4482   2.558   5.524   2.049  0.1965 -0.0437 -0.6235
   14MOL    C37 4483   2.568   5.672   2.101 -0.3271  0.4686 -0.3736
   14MOL    N38 4484   2.657   5.682   2.219  0.2422  0.7147 -0.0197
   14MOL    C39 4485   2.590   5.674   2.345 -0.4654  0.1774  0.1801
   14MOL    C40 4486   2.703   5.668   2.447  0.0137 -0.2776 -0.4636
   14MOL    C41 4487   2.824   5.635   2.364  0.2808  0.1214 -0.0455
   14MOL    C42 4488   2.784   5.658   2.225 -0.2931 -0.0270 -0.1432
   14MOL    O43 4489   2.861   5.649   2.132 -0.1052 -0.3921  0.2852
   14MOL    H44 4490   2.657   5.522   2.004  0.0090 -1.6321 -0.9740
   14MOL    H45 4491   2.561   5.456   2.135 -0.6803  0.9229  0.1914
   14MOL    H46 4492   2.470   5.701   2.137 -0.2433 -0.3035  0.5007
   14MOL    H47 4493   2.521   5.750   2.382  0.0193 -0.7311  3.0881
   14MOL    H48 4494   2.522   5.588   2.351 -1.2055  0.6590 -1.0686
   14MOL    H49 4495   2.713   5.766   2.493  0.1813 -1.5174  2.2093
   14MOL    H50 4496   2.688   5.602   2.532  1.3987 -0.5098 -0.3949
   14MOL    H51 4497   2.911   5.689   2.402  0.0032  0.4116  0.1770
   14MOL    H52 4498   2.857   5.533   2.383  0.8716  0.3634  0.2570
   14MOL    C53 4499   2.609   5.768   1.990 -0.0693 -0.3038  0.0067
   14MOL    C54 4500   2.660   5.907   2.031  0.4883  0.1548 -0.0348
   14MOL    N55 4501   2.690   5.987   1.911 -0.5371  0.3935  0.4944
   14MOL    C56 4502   2.827   6.000   1.875 -0.9759  0.3869 -0.4631
   14MOL    C57 4503   2.834   6.069   1.743  0.1845  0.2764  0.8262
   14MOL    C58 4504   2.696   6.128   1.715  0.6186 -0.4302  0.1429
   14MOL    C59 4505   2.610   6.060   1.823 -0.2104 -0.6149  0.0560
   14MOL    O60 4506   2.494   6.083   1.826 -0.0239 -0.1721  0.0560
   14MOL    H61 4507   2.518   5.785   1.932 -0.4550  0.1334  0.7281
   14MOL    H62 4508   2.685   5.728   1.923 -1.1099 -1.8763 -0.2606
   14MOL    H63 4509   2.754   5.880   2.079  0.1951 -0.4868  0.1754
   14MOL    H64 4510   2.873   6.056   1.957 -0.1940  1.8902 -1.9118
   14MOL    H65 4511   2.891   5.912   1.865 -0.5451  0.5536  0.6825
   14MOL    H66 4512   2.919   6.138   1.740  1.3736 -1.1656  0.5106
   14MOL    H67 4513   2.843   5.990   1.668  1.4909  0.4989  0.7232
   14MOL    H68 4514   2.698   6.236   1.731  1.9111 -0.7945  2.6527
   14MOL    H69 4515   2.657   6.109   1.615 -2.4816 -0.9765  1.3728
   14MOL    C70 4516   2.575   5.986   2.128 -0.3704 -0.4899 -0.1422
   14MOL    C71 4517   2.662   6.093   2.202  0.1942  0.1311  0.4773
   14MOL    N72 4518   2.574   6.198   2.249 -0.6126  0.6362  0.3821
   14MOL    C73 4519   2.581   6.317   2.164  0.0528 -0.7023  0.2079
   14MOL    C74 4520   2.468   6.412   2.219 -0.4797  0.0775  0.2472
   14MOL    C75 4521   2.430   6.344   2.359  0.0313 -0.6830 -0.2552
   14MOL    C76 4522   2.497   6.207   2.358 -0.1518 -0.4727 -0.3866
   14MOL    O77 4523   2.478   6.119   2.441 -0.7683  0.2767 -0.2735
   14MOL    H78 4524   2.539   5.910   2.198  0.2271 -0.4262  0.2310
   14MOL    H79 4525   2.485   6.023   2.078  0.0054 -0.5317 -0.8518
   14MOL    H80 4526   2.736   6.129   2.130 -0.4117  2.8418  1.1291
   14MOL    H81 4527   2.686   6.343   2.176  0.6775 -2.4264 -1.4214
   14MOL    H82 4528   2.570   6.295   2.058 -0.0164 -1.3146  0.3381
   14MOL    H83 4529   2.480   6.520   2.213 -0.6964  0.1239  0.6053
   14MOL    H84 4530   2.374   6.386   2.170 -1.8689  0.7273  2.5047
   14MOL    H85 4531   2.484   6.399   2.437 -0.5202  0.5530 -0.7472
   14MOL    H86 4532   2.327   6.333   2.392  0.6206 -2.6432  1.1268
   14MOL    C87 4533   2.752   6.032   2.307 -0.0350 -0.4839  0.1911
   14MOL    C88 4534   2.863   6.119   2.366  0.4158 -0.3164 -0.7220
   14MOL    N89 4535   2.923   6.071   2.491  0.1317 -0.0464 -0.6283
   14MOL    C90 4536   2.857   6.101   2.614  0.2916  0.0758 -0.1972
   14MOL    C91 4537   2.937   6.025   2.723  0.6500 -0.5554 -0.1840
   14MOL    C92 4538   3.049   5.945   2.651 -0.1965 -0.3723 -0.3448
   14MOL    C93 4539   3.024   5.982   2.506  0.1988  0.0608  0.7479
   14MOL    O94 4540   3.080   5.923   2.413  0.2514 -0.3330 -0.1401
   14MOL    H95 4541   2.799   5.941   2.268  2.2161  0.1211  1.3943
   14MOL    H96 4542   2.692   6.009   2.395 -0.4094 -1.0487 -0.2086
   14MOL    H97 4543   2.823   6.214   2.400  1.3954 -0.2511  0.2801
   14MOL    H98 4544   2.846   6.208   2.636  2.9032  0.8648 -2.4360
   14MOL    H99 4545   2.758   6.061   2.595  1.1164 -1.6081 -1.0498
   14MOL   H100 4546   2.981   6.093   2.795 -1.9477 -1.0789  1.9829
   14MOL   H101 4547   2.873   5.956   2.778 -2.5972  1.1072 -1.7097
   14MOL   H102 4548   3.149   5.968   2.690 -0.9827  0.2634  1.3544
   14MOL   H103 4549   3.043   5.837   2.664 -1.2982 -0.3416 -0.5677
   14MOL   C104 4550   2.972   6.166   2.259 -0.0816 -0.4784 -0.4786
   14MOL   C105 4551   3.045   6.298   2.285 -0.5146 -0.3470  0.0335
   14MOL   N106 4552   3.170   6.302   2.208  0.8948 -0.1128 -0.7401
   14MOL   C107 4553   3.299   6.321   2.270  0.8339  0.9071  0.4885
   14MOL   C108 4554   3.406   6.319   2.155 -0.1551 -0.4488  0.0609
   14MOL   C109 4555   3.319   6.337   2.032 -0.1130 -0.2052  0.4475
   14MOL   C110 4556   3.178   6.305   2.074  0.0480 -0.1161  0.1900
   14MOL   O111 4557   3.082   6.291   2.001 -0.3332 -0.0193  0.1247
   14MOL   H112 4558   2.927   6.185   2.161  1.1766  3.0553 -0.4411
   14MOL   H113 4559   3.049   6.090   2.246  0.2165 -0.3074  0.2558
   14MOL   H114 4560   3.080   6.294   2.388 -1.4675 -2.0146  0.3078
   14MOL   H115 4561   3.291   6.417   2.321 -0.9511  0.6295  0.7627
   14MOL   H116 4562   3.306   6.237   2.339 -0.2489  0.2186 -0.2158
   14MOL   H117 4563   3.477   6.401   2.167  1.4345 -1.9166  0.8141
   14MOL   H118 4564   3.465   6.229   2.139  0.5703  0.1541 -0.6797
   14MOL   H119 4565   3.329   6.264   1.952  1.7485  2.5101 -1.8809
   14MOL   H120 4566   3.308   6.435   1.987 -0.3948 -0.7484 -0.6910
   14MOL   C121 4567   2.953   6.425   2.270  0.3897  0.6669  0.3725
   14MOL   C122 4568   3.020   6.561   2.310 -0.4441  0.4039 -0.1894
   14MOL   N123 4569   2.925   6.671   2.288 -0.2329 -0.1344 -0.6494
   14MOL   C124 4570   2.783   6.673   2.343 -0.5830 -0.2941  0.5974
   14MOL   C125 4571   2.718   6.793   2.283 -0.2102 -0.0858  0.5816
   14MOL   C126 4572   2.801   6.833   2.164  0.7400  0.1758 -0.2375
   14MOL   C127 4573   2.928   6.753   2.185  0.2502 -0.6018  0.1871
   14MOL   O128 4574   3.016   6.771   2.103  0.0741  0.1256 -0.8003
   14MOL   H129 4575   2.871   6.414   2.340 -0.0900  1.3576 -0.0803
   14MOL   H130 4576   2.912   6.423   2.169 -1.3864  0.2847  1.0938
   14MOL   H131 4577   3.102   6.571   2.238 -0.7915 -1.6869 -0.9025
   14MOL   H132 4578   2.797   6.693   2.450  1.5440  1.7443 -0.0145
   14MOL   H133 4579   2.718   6.586   2.338  0.2284 -0.8514 -0.2574
   14MOL   H134 4580   2.615   6.768   2.260 -0.5062 -0.3009  2.0880
   14MOL   H135 4581   2.710   6.875   2.355 -0.8020 -0.1916  0.6384
   14MOL   H136 4582   2.772   6.784   2.071  0.3535 -0.9835  0.4817
   14MOL   H137 4583   2.811   6.940   2.145  0.5222  0.1410 -0.5452
   14MOL   C138 4584   3.082   6.572   2.454 -0.2853  0.5956 -0.0760
   14MOL   C139 4585   3.160   6.709   2.477 -0.3369  0.3753 -0.4337
   14MOL   N140 4586   3.078   6.827   2.523 -0.1249 -0.4475 -0.1850
   14MOL   C141 4587   3.096   6.959   2.459  0.3458 -0.1166 -0.9818
   14MOL   C142 4588   3.024   7.059   2.558  0.1448 -0.3151  0.1714
   14MOL   C143 4589   2.931   6.974   2.644 -0.4736 -0.3119 -0.1524
   14MOL   C144 4590   2.982   6.834   2.619  0.9990 -0.8344  0.2184
   14MOL   O145 4591   2.934   6.740   2.677 -0.4903  0.2564  0.2074
   14MOL   H146 4592   3.159   6.495   2.459 -2.2370 -1.3211  1.6364
   14MOL   H147 4593   3.012   6.548   2.535  0.5530 -1.6613  0.0216
   14MOL   H148 4594   3.191   6.714   2.373 -1.6233  2.4472 -0.7561
   14MOL   H149 4595   3.199   6.987   2.438  0.9033 -2.5256 -1.6692
   14MOL   H150 4596   3.042   6.967   2.365 -0.4718  0.1447 -0.4926
   14MOL   H151 4597   3.093   7.117   2.618  2.0261 -2.1836 -0.0995
   14MOL   H152 4598   2.953   7.135   2.525 -0.3457 -0.6404  0.4754
   14MOL   H153 4599   2.828   6.970   2.610 -0.3406  0.6531 -0.6706
   14MOL   H154 4600   2.931   6.983   2.753  2.4008 -2.5491  0.1082
   14MOL   C155 4601   3.297   6.708   2.548  0.6639 -0.2275 -0.1312
   14MOL   C156 4602   3.295   6.667   2.696 -0.4383  0.0401  0.2871
   14MOL   N157 4603   3.242   6.531   2.731  0.0789  0.6282  0.0881
   14MOL   C158 4604   3.149   6.512   2.845  0.4684  0.3620 -0.7448
   14MOL   C159 4605   3.138   6.362   2.868  0.3066  0.4042 -0.2304
   14MOL   C160 4606   3.249   6.303   2.784  0.8354  0.0028  0.3225
   14MOL   C161 4607   3.286   6.411   2.690  0.0596 -0.2531 -0.5428
   14MOL   O162 4608   3.359   6.396   2.596 -0.1392 -0.0259 -0.0447
   14MOL   H163 4609   3.345   6.806   2.539  0.1145  0.1448  0.8826
   14MOL   H164 4610   3.362   6.641   2.493  1.5045 -0.0566  0.6358
   14MOL   H165 4611   3.229   6.740   2.743  0.7746  0.6358  1.0947
   14MOL   H166 4612   3.191   6.554   2.936 -1.3091  2.4105 -0.8347
   14MOL   H167 4613   3.049   6.553   2.828  0.1401  0.7054  1.9115
   14MOL   H168 4614   3.133   6.339   2.974 -1.4616 -0.4944 -0.4991
   14MOL   H169 4615   3.042   6.334   2.824  0.2685 -0.2556  0.2728
   14MOL   H170 4616   3.344   6.287   2.835  1.2799 -1.4654 -0.9167
   14MOL   H171 4617   3.228   6.208   2.735 -1.2118  0.8553 -0.5184
   14MOL   C172 4618   3.428   6.682   2.761 -0.8092  0.2296 -0.5124
   14MOL   C173 4619   3.493   6.825   2.757  0.2313 -0.6145  0.5583
   14MOL   N174 4620   3.402   6.939   2.784 -0.2355  0.2072 -0.7972
   14MOL   C175 4621   3.432   7.069   2.714 -0.4231 -0.3142 -0.3064
   14MOL   C176 4622   3.336   7.177   2.782  0.5931 -0.4507  0.0384
   14MOL   C177 4623   3.274   7.094   2.904  0.8580 -0.8504  0.3390
   14MOL   C178 4624   3.304   6.953   2.880 -0.6007  0.3239  0.2623
   14MOL   O179 4625   3.263   6.871   2.957 -0.4915 -0.4855  0.4605
   14MOL   H180 4626   3.495   6.601   2.733  0.1113  1.0794 -0.7657
   14MOL   H181 4627   3.411   6.654   2.865  0.1633  1.5058 -0.0100
   14MOL   H182 4628   3.527   6.837   2.654 -0.2745  1.4935  0.6105
   14MOL   H183 4629   3.535   7.091   2.742 -0.2914 -1.9003  0.5223
   14MOL   H184 4630   3.428   7.058   2.606 -0.2746 -1.1716 -0.2278
   14MOL   H185 4631   3.252   7.206   2.718  2.5244  0.4646 -2.1356
   14MOL   H186 4632   3.384   7.268   2.818  0.3361 -0.8169  1.3278
   14MOL   H187 4633   3.325   7.135   2.991  1.1229 -0.6715  0.1020
   14MOL   H188 4634   3.171   7.111   2.933  0.3626 -1.9950 -0.7149
   14MOL   C189 4635   3.610   6.829   2.841 -0.0773  0.4054 -0.9029
   14MOL   C190 4636   3.716   6.710   2.824 -0.3546  0.6848  0.1567
   14MOL   N191 4637   3.774   6.704   2.681 -0.7375  0.4018  0.0234
   14MOL   C192 4638   3.746   6.580   2.606  0.1700 -0.7417 -0.1064
   14MOL   C193 4639   3.841   6.581   2.490 -0.2186  0.3233  0.3684
   14MOL   C194 4640   3.897   6.722   2.489  0.1087 -0.0180 -0.0004
   14MOL   C195 4641   3.856   6.785   2.619  0.2514 -0.9496 -0.7516
   14MOL   O196 4642   3.894   6.894   2.659  0.0407 -0.2562  0.1676
   14MOL   H197 4643   3.570   6.833   2.942  0.0237 -1.8288 -0.7522
   14MOL   H198 4644   3.660   6.924   2.824 -2.5153  1.9128  0.1185
   14MOL   H199 4645   3.672   6.613   2.849  1.4414  0.3827  2.3303
   14MOL   H200 4646   3.744   6.492   2.671 -1.2115 -0.1502  0.6649
   14MOL   H201 4647   3.648   6.592   2.562  1.4364  2.4876 -2.2470
   14MOL   H202 4648   3.925   6.513   2.500  0.3988  1.0402  0.0648
   14MOL   H203 4649   3.784   6.552   2.402 -0.7077  1.2816  0.3693
   14MOL   H204 4650   4.004   6.730   2.473  0.1713 -1.6899 -0.5416
   14MOL   H205 4651   3.849   6.784   2.414  1.6695  0.5497 -0.5266
   14MOL   C206 4652   3.820   6.703   2.939 -0.3422 -0.2062 -0.6235
   14MOL   C207 4653   3.762   6.664   3.080 -0.2730  0.7943  0.0552
   14MOL   N208 4654   3.726   6.522   3.082  0.8543  0.1204  0.2528
   14MOL   C209 4655   3.618   6.479   3.173 -0.2646 -0.1951  0.3575
   14MOL   C210 4656   3.593   6.334   3.149 -0.0171 -0.2596  0.2033
   14MOL   C211 4657   3.698   6.288   3.048 -0.0008 -0.2724  0.1008
   14MOL   C212 4658   3.774   6.419   3.009  0.0971  0.6691 -0.1934
   14MOL   O213 4659   3.846   6.420   2.910 -0.4160 -0.7228 -0.6010
   14MOL   H214 4660   3.862   6.804   2.936 -1.6077  0.3464 -0.2151
   14MOL   H215 4661   3.908   6.643   2.920  1.0654  1.4069  0.6457
   14MOL   H216 4662   3.668   6.714   3.104 -1.0134 -0.1364 -0.8327
   14MOL   H217 4663   3.646   6.493   3.277  1.5318 -2.5997  0.2476
   14MOL   H218 4664   3.523   6.530   3.163 -0.4977 -0.4405  1.2844
   14MOL   H219 4665   3.601   6.274   3.240 -0.9925  1.6981  1.6085
   14MOL   H220 4666   3.493   6.315   3.112  0.7317  0.4565 -2.2789
   14MOL   H221 4667   3.756   6.214   3.102 -3.0834 -1.0294  2.4898
   14MOL   H222 4668   3.655   6.247   2.957  0.9963  1.8192 -1.3716
   14MOL   C223 4669   3.859   6.687   3.200  0.7904  0.2321  0.1895
   14MOL   C224 4670   3.861   6.841   3.219  0.5502 -0.3177  0.1586
   14MOL   N225 4671   3.728   6.889   3.279  0.1916 -1.0981  0.0836
   14MOL   C226 4672   3.655   6.986   3.196  0.2656  0.3822 -0.7301
   14MOL   C227 4673   3.531   7.019   3.275 -0.6180 -0.2454  0.2857
   14MOL   C228 4674   3.534   6.927   3.398 -0.5688  0.0573 -0.9515
   14MOL   C229 4675   3.666   6.851   3.388  0.0899 -0.0433  0.2508
   14MOL   O230 4676   3.692   6.767   3.468  0.2182  0.0466  0.4228
   14MOL   H231 4677   3.955   6.650   3.165  0.9459  1.2942 -0.5346
   14MOL   H232 4678   3.834   6.640   3.295 -0.0243  1.8057  0.7692
   14MOL   H233 4679   3.875   6.894   3.125  0.2901 -1.3026 -0.4517
   14MOL   H234 4680   3.717   7.075   3.192  2.4910 -1.1568 -1.5288
   14MOL   H235 4681   3.627   6.938   3.102 -1.0946 -0.4021  0.0586
   14MOL   H236 4682   3.524   7.125   3.303  2.3306  0.4276 -1.2628
   14MOL   H237 4683   3.439   7.005   3.218  1.4546 -2.0576 -2.6947
   14MOL   H238 4684   3.521   6.984   3.490  0.0735 -0.4768 -0.5205
   14MOL   H239 4685   3.455   6.851   3.396  0.9170 -1.4900 -2.1640
   14MOL   C240 4686   3.976   6.890   3.310  0.7718 -0.8953 -0.1245
   14MOL   C241 4687   4.122   6.883   3.255 -0.3927  0.1839 -0.1708
   14MOL   N242 4688   4.129   6.921   3.110  0.1173  0.3037  0.3508
   14MOL   C243 4689   4.177   6.819   3.025 -0.0941 -0.1280  0.5090
   14MOL   C244 4690   4.160   6.878   2.884 -0.0817  0.3234 -0.0346
   14MOL   C245 4691   4.094   7.019   2.895  0.4777  0.0083  0.1914
   14MOL   C246 4692   4.098   7.033   3.044  0.9558  0.7897 -0.2349
   14MOL   O247 4693   4.075   7.136   3.105 -0.1713 -0.2522 -0.1719
   14MOL   H248 4694   3.971   6.834   3.404 -0.1648 -1.0289 -0.2467
   14MOL   H249 4695   3.955   6.994   3.334  3.6375  0.5020 -3.2795
   14MOL   H250 4696   4.156   6.779   3.261  1.1115  0.5551 -1.9338
   14MOL   H251 4697   4.285   6.816   3.037  0.2472  4.2382 -0.6879
   14MOL   H252 4698   4.120   6.727   3.018 -1.5231  0.8764 -1.7219
   14MOL   H253 4699   4.257   6.894   2.837  0.0320  1.3091  0.5199
   14MOL   H254 4700   4.111   6.815   2.810  1.1072  0.8055 -1.2606
   14MOL   H255 4701   4.152   7.100   2.851 -0.8702  0.5185 -0.6712
   14MOL   H256 4702   3.994   7.031   2.854  1.5004  2.6838 -1.6659
   14MOL   C257 4703   4.229   6.962   3.329  0.2384 -0.2706  0.2015
   14MOL   C258 4704   4.274   6.901   3.470  0.5958 -0.0231 -0.1565
   14MOL   N259 4705   4.368   6.788   3.459  0.2968  0.9499  0.2310
   14MOL   C260 4706   4.353   6.666   3.536 -0.2611 -0.2187 -0.3400
   14MOL   C261 4707   4.477   6.578   3.525  0.5687  0.6949  0.1231
   14MOL   C262 4708   4.569   6.667   3.432 -0.0626 -0.8909  0.1148
   14MOL   C263 4709   4.490   6.791   3.396 -0.1945 -0.4853  0.1263
   14MOL   O264 4710   4.530   6.880   3.317  0.1976 -0.5324  0.4775
   14MOL   H265 4711   4.190   7.062   3.350  0.1370  0.0632 -1.5332
   14MOL   H266 4712   4.317   6.992   3.272 -0.7238  1.3374 -0.4709
   14MOL   H267 4713   4.183   6.862   3.515 -0.2340  2.8981  0.7834
   14MOL   H268 4714   4.331   6.684   3.641 -0.8920  0.5331 -0.6028
   14MOL   H269 4715   4.275   6.601   3.499 -0.2625  0.0867 -0.8688
   14MOL   H270 4716   4.519   6.573   3.625 -1.9974 -0.6067  1.1667
   14MOL   H271 4717   4.448   6.480   3.487 -3.2566  1.7944 -0.0310
   14MOL   H272 4718   4.669   6.694   3.468  0.8018  0.0903 -2.8832
   14MOL   H273 4719   4.598   6.609   3.345  1.1602 -2.2727  1.3999
   14MOL   C274 4720   4.308   7.011   3.570 -0.2229 -0.3659 -0.7628
   14MOL   C275 4721   4.187   7.104   3.618  0.3373 -0.4023 -0.8855
   14MOL   N276 4722   4.084   7.027   3.698  0.8800 -0.2869  0.2982
   14MOL   C277 4723   3.943   7.062   3.675 -0.2328  0.2789 -0.2333
   14MOL   C278 4724   3.857   6.966   3.755 -0.2999  0.0815  0.2802
   14MOL   C279 4725   3.956   6.875   3.829 -0.4404  0.2323  1.1030
   14MOL   C280 4726   4.095   6.926   3.787 -0.1075 -0.3928  0.4727
   14MOL   O281 4727   4.197   6.875   3.824 -0.4073  0.3376  0.0260
   14MOL   H282 4728   4.381   7.072   3.517 -0.6708  0.5585 -0.3178
   14MOL   H283 4729   4.351   6.961   3.657 -0.8536 -1.7351 -1.2302
   14MOL   H284 4730   4.138   7.140   3.527 -0.3333 -2.6716 -1.4783
   14MOL   H285 4731   3.924   7.158   3.722  1.1149  0.1727  0.5424
   14MOL   H286 4732   3.915   7.065   3.569  1.7292  2.2098 -0.7288
   14MOL   H287 4733   3.793   7.019   3.825  0.2953  1.7529 -0.4170
   14MOL   H288 4734   3.791   6.911   3.687  1.0633 -1.3103  0.0469
   14MOL   H289 4735   3.943   6.886   3.937 -2.0459  0.0262  0.9474
   14MOL   H290 4736   3.935   6.772   3.801 -0.3522  0.0635  1.6424
   14MOL   C291 4737   4.241   7.226   3.686 -0.2374 -0.2982  0.2801
   14MOL   C292 4738   4.326   7.323   3.606 -0.3418 -0.2986 -0.4318
   14MOL   N293 4739   4.246   7.400   3.519 -0.0303 -0.2062 -0.0296
   14MOL   C294 4740   4.244   7.380   3.373  0.6587  0.4445 -0.5047
   14MOL   C295 4741   4.133   7.476   3.322  0.4392  0.0068 -0.1222
   14MOL   C296 4742   4.104   7.565   3.446 -0.5366  0.0669 -0.6740
   14MOL   C297 4743   4.170   7.501   3.563 -0.2727  0.1484 -0.2589
   14MOL   O298 4744   4.151   7.542   3.675 -0.4956  0.1956 -0.4824
   14MOL   H299 4745   4.305   7.189   3.766  0.9342  2.1556  0.5144
   14MOL   H300 4746   4.157   7.282   3.726 -0.7950  0.3267 -1.6917
   14MOL   H301 4747   4.393   7.270   3.538 -0.0338  2.2138 -2.1709
   14MOL   H302 4748   4.341   7.416   3.340  1.9595 -2.3620  0.0922
   14MOL   H303 4749   4.223   7.278   3.339  0.0553 -0.2825  1.9091
   14MOL   H304 4750   4.161   7.535   3.235 -0.3219  0.1076 -0.3046
   14MOL   H305 4751   4.036   7.429   3.307 -0.7339  2.5740 -0.7948
   14MOL   H306 4752   4.164   7.654   3.424 -0.2741  0.0540 -0.0225
   14MOL   H307 4753   4.001   7.599   3.464 -0.4028 -0.4255  1.1336
   14MOL   C308 4754   4.417   7.415   3.694 -0.9015 -0.5352 -0.0878
   14MOL   C309 4755   4.525   7.341   3.778  0.9114 -0.5144 -0.3515
   14MOL   N310 4756   4.632   7.282   3.695 -0.2581 -0.6415  0.0780
   14MOL   C311 4757   4.642   7.140   3.698  0.7537  0.2220 -0.1294
   14MOL   C312 4758   4.754   7.102   3.598 -0.0761  0.6043 -0.5090
   14MOL   C313 4759   4.798   7.227   3.533  0.2719  0.0202  0.5238
   14MOL   C314 4760   4.714   7.332   3.601  0.3515  0.8954 -0.5354
   14MOL   O315 4761   4.712   7.446   3.567 -0.0134 -0.2474 -0.7008
   14MOL   H316 4762   4.364   7.480   3.764 -0.0523 -0.3026  0.3481
   14MOL   H317 4763   4.458   7.490   3.626 -0.9833 -0.0572  0.3812
   14MOL   H318 4764   4.471   7.267   3.838  0.6036  0.2735  0.3471
   14MOL   H319 4765   4.678   7.102   3.793  0.3691 -1.5265 -0.6611
   14MOL   H320 4766   4.545   7.089   3.693 -0.1370  1.5662  2.3695
   14MOL   H321 4767   4.836   7.043   3.641  0.9766  2.3438 -0.1025
   14MOL   H322 4768   4.708   7.029   3.531 -3.0531  0.4947  1.5842
   14MOL   H323 4769   4.906   7.243   3.536  0.4338 -0.8749 -0.2838
   14MOL   H324 4770   4.778   7.214   3.427 -1.1485 -0.4078  0.8375
   14MOL   C325 4771   4.585   7.429   3.882 -0.4821 -0.1230 -0.4313
   14MOL   C326 4772   4.681   7.348   3.975 -0.0086  0.3240 -0.1010
   14MOL   N327 4773   4.748   7.431   4.078  0.0515  0.4337  0.0164
   14MOL   C328 4774   4.686   7.556   4.129 -0.2656 -0.0139 -0.1768
   14MOL   C329 4775   4.760   7.583   4.262  0.2341 -0.5236  0.0217
   14MOL   C330 4776   4.850   7.473   4.281 -0.4265  0.5226 -0.3072
   14MOL   C331 4777   4.845   7.382   4.158 -0.2901  0.0413  0.0595
   14MOL   O332 4778   4.911   7.282   4.139 -0.1620  0.0569 -0.0347
   14MOL   H333 4779   4.509   7.481   3.939  0.2140  0.0028  0.3879
   14MOL   H334 4780   4.636   7.508   3.826  1.2395  0.5306  1.9846
   14MOL   H335 4781   4.765   7.306   3.920  0.3101  1.8235 -0.7926
   14MOL   H336 4782   4.688   7.640   4.060 -0.1951  0.2356  0.1289
   14MOL   H337 4783   4.584   7.524   4.147 -0.4732 -0.6174 -2.3196
   14MOL   H338 4784   4.819   7.675   4.257  1.7658 -1.4301  1.3798
   14MOL   H339 4785   4.695   7.597   4.348  0.1372 -0.0154 -0.1270
   14MOL   H340 4786   4.957   7.497   4.280 -0.5470  1.0545 -1.7666
   14MOL   H341 4787   4.823   7.419   4.371  0.9189 -0.1353 -0.2894
   14MOL   H342 4788   4.642   7.257   4.020  1.2508  1.2258  2.9691
   15MOL     C1 4789   7.416   0.599   2.395 -0.1739 -0.4717  0.0300
   15MOL     C2 4790   7.332   0.605   2.269  1.1367 -0.0187  0.1031
   15MOL     N3 4791   7.235   0.718   2.268 -0.3794 -0.6613  0.9760
   15MOL     C4 4792   7.095   0.693   2.216 -0.4661  0.1281 -0.1701
   15MOL     C5 4793   7.028   0.825   2.211 -0.0626 -0.0974 -0.5537
   15MOL     C6 4794   7.138   0.930   2.244 -0.4629 -0.4479  0.2673
   15MOL     C7 4795   7.264   0.849   2.280  1.2982 -0.1716  0.1227
   15MOL     O8 4796   7.373   0.904   2.305  0.2189  0.0813  0.0467
   15MOL     H9 4797   7.355   0.600   2.485 -0.2513  1.2690 -0.0292
   15MOL    H10 4798   7.474   0.507   2.409 -0.5451 -0.9348 -1.3947
   15MOL    H11 4799   7.268   0.517   2.265 -2.1569  2.2712 -0.2789
   15MOL    H12 4800   7.099   0.640   2.120 -0.5730 -1.7949  0.8603
   15MOL    H13 4801   7.034   0.629   2.281 -0.4187  0.7644  0.4963
   15MOL    H14 4802   6.975   0.840   2.117 -0.2237 -1.7851 -0.7417
   15MOL    H15 4803   6.948   0.834   2.285 -0.9686  3.1449 -1.8220
   15MOL    H16 4804   7.162   0.968   2.146  1.3746 -3.2154 -0.4192
   15MOL    H17 4805   7.117   1.003   2.322  3.1172  1.8165 -0.7850
   15MOL    H18 4806   7.483   0.685   2.400  1.9861 -2.0315 -1.1099
   15MOL    C19 4807   7.427   0.613   2.142  0.0541  0.5358  0.3394
   15MOL    C20 4808   7.489   0.485   2.102  0.4031 -0.4884 -0.3072
   15MOL    N21 4809   7.389   0.379   2.082  0.3690  0.0706 -0.0815
   15MOL    C22 4810   7.399   0.250   2.154 -0.1958 -0.0860  0.1600
   15MOL    C23 4811   7.277   0.167   2.108 -0.0451  0.2240 -0.2723
   15MOL    C24 4812   7.223   0.237   1.984 -0.2786  0.4862 -0.4287
   15MOL    C25 4813   7.305   0.367   1.975  0.0085  0.0032 -0.2379
   15MOL    O26 4814   7.284   0.462   1.894 -0.5903  0.0503 -0.3731
   15MOL    H27 4815   7.495   0.698   2.143 -1.1657  1.5243  0.3570
   15MOL    H28 4816   7.366   0.638   2.055  0.2424  3.5769  1.0217
   15MOL    H29 4817   7.539   0.461   2.196 -1.3238  1.0599  1.0471
   15MOL    H30 4818   7.496   0.205   2.135 -0.0725 -1.1505  2.9968
   15MOL    H31 4819   7.398   0.268   2.262  2.2645 -0.6941  0.3067
   15MOL    H32 4820   7.302   0.065   2.076  0.5685  0.1454  0.4462
   15MOL    H33 4821   7.203   0.174   2.188  0.2011 -0.4183  0.0173
   15MOL    H34 4822   7.242   0.172   1.898  2.0297  0.0110  0.4192
   15MOL    H35 4823   7.118   0.261   2.003  0.0133  0.7648  0.8782
   15MOL    C36 4824   7.596   0.496   1.993  0.1454 -0.1209  0.5455
   15MOL    C37 4825   7.710   0.599   2.025  0.1948 -0.1580  0.4547
   15MOL    N38 4826   7.766   0.582   2.163 -0.4135  0.3726  0.5872
   15MOL    C39 4827   7.763   0.693   2.255 -0.6384  0.0157  0.4026
   15MOL    C40 4828   7.792   0.627   2.389  0.2068  0.1659 -0.2647
   15MOL    C41 4829   7.813   0.480   2.374  0.1128  0.2055  0.6941
   15MOL    C42 4830   7.801   0.462   2.227 -1.1064  0.0464 -0.1306
   15MOL    O43 4831   7.826   0.356   2.167  0.1764  0.0018  0.4405
   15MOL    H44 4832   7.560   0.520   1.893 -1.4828 -2.2695  0.5852
   15MOL    H45 4833   7.644   0.399   1.979  2.6514  1.2038 -0.4369
   15MOL    H46 4834   7.669   0.699   2.008 -0.4548 -0.1101  2.1211
   15MOL    H47 4835   7.841   0.758   2.215 -0.9569  0.3356  0.2923
   15MOL    H48 4836   7.670   0.748   2.243  0.1312  0.7801 -2.4723
   15MOL    H49 4837   7.871   0.682   2.440 -0.3636  0.5184  0.2536
   15MOL    H50 4838   7.707   0.647   2.455 -0.0187 -1.9917  0.1461
   15MOL    H51 4839   0.005   0.449   2.410  0.8155  0.2604 -1.1536
   15MOL    H52 4840   7.731   0.423   2.418 -0.9464  1.9952  1.1062
   15MOL    C53 4841   7.823   0.594   1.919  0.7844  0.4449  0.2009
   15MOL    C54 4842   7.793   0.639   1.777  0.1618  0.4264  0.2497
   15MOL    N55 4843   7.745   0.778   1.765  0.2946 -0.2666 -0.5672
   15MOL    C56 4844   7.608   0.804   1.718 -0.2884  0.6467  0.2903
   15MOL    C57 4845   7.595   0.951   1.712 -0.6548  0.4495 -0.3425
   15MOL    C58 4846   7.711   1.009   1.794 -0.3999  0.0752  0.3354
   15MOL    C59 4847   7.800   0.887   1.812  0.3489 -1.1470  0.2524
   15MOL    O60 4848   0.006   0.900   1.864  0.4899 -0.4945  0.4637
   15MOL    H61 4849   7.870   0.498   1.897 -1.9904 -0.3642 -2.6952
   15MOL    H62 4850   7.897   0.656   1.969  1.2686 -0.2617  0.3626
   15MOL    H63 4851   7.717   0.566   1.746  2.5106 -1.3784 -1.5293
   15MOL    H64 4852   7.590   0.748   1.626  0.9519 -0.1134  0.4996
   15MOL    H65 4853   7.537   0.773   1.794 -0.5102 -2.1096 -0.9889
   15MOL    H66 4854   7.592   0.989   1.610  0.4413 -2.6849 -1.5881
   15MOL    H67 4855   7.498   0.992   1.740 -1.3509 -1.0015 -0.5814
   15MOL    H68 4856   7.769   1.090   1.749  1.0813 -2.0219 -1.6512
   15MOL    H69 4857   7.680   1.038   1.894  0.6093 -0.0850  0.6940
   15MOL    C70 4858   7.890   0.603   1.658  0.2015  0.4725  0.3453
   15MOL    C71 4859   0.133   0.657   1.666 -0.1926  0.2530  0.4831
   15MOL    N72 4860   0.221   0.550   1.628 -0.0959 -0.5758  0.2136
   15MOL    C73 4861   0.257   0.453   1.731  0.4159  0.3993 -0.0920
   15MOL    C74 4862   0.316   0.332   1.653  0.1057  0.3528 -0.2371
   15MOL    C75 4863   0.350   0.381   1.515 -0.0735 -0.1110  0.1800
   15MOL    C76 4864   0.289   0.525   1.513  0.1536  0.3916  0.3997
   15MOL    O77 4865   0.300   0.608   1.421 -0.0147  0.2948  0.0424
   15MOL    H78 4866   7.851   0.630   1.560  0.7191 -2.2048 -0.6277
   15MOL    H79 4867   7.891   0.494   1.652 -1.5973  0.4833 -0.3581
   15MOL    H80 4868   0.156   0.679   1.770  1.6832 -1.4859  0.4620
   15MOL    H81 4869   0.340   0.488   1.792  1.7401  1.1485 -2.2784
   15MOL    H82 4870   0.168   0.434   1.792  0.2210  1.6073  0.0289
   15MOL    H83 4871   0.400   0.287   1.706  0.2049  0.1366 -0.5731
   15MOL    H84 4872   0.237   0.261   1.628 -0.5773  0.7170  0.8500
   15MOL    H85 4873   0.457   0.399   1.507 -0.6296  3.5704  0.0880
   15MOL    H86 4874   0.325   0.319   1.428 -2.3078  0.6880  0.2171
   15MOL    C87 4875   0.142   0.791   1.580 -0.2491  0.4839 -0.2307
   15MOL    C88 4876   0.277   0.864   1.573 -0.2688 -0.4215  0.5397
   15MOL    N89 4877   0.264   0.974   1.486 -0.5975 -0.0103  0.1212
   15MOL    C90 4878   0.311   0.957   1.349  0.3036 -0.4233 -0.1938
   15MOL    C91 4879   0.264   1.076   1.264  0.6043  0.1237  0.1278
   15MOL    C92 4880   0.221   1.175   1.374 -0.4098  0.8410  0.7596
   15MOL    C93 4881   0.213   1.099   1.502 -0.1691 -0.3260  0.7804
   15MOL    O94 4882   0.154   1.131   1.604  0.1113  0.0951 -0.0163
   15MOL    H95 4883   0.063   0.862   1.603 -0.7520  0.4708 -1.8421
   15MOL    H96 4884   0.118   0.775   1.475 -0.0027 -0.2941 -0.1699
   15MOL    H97 4885   0.351   0.799   1.526 -1.9802 -0.3906 -2.3001
   15MOL    H98 4886   0.418   0.939   1.343  0.4066  0.0019  0.3318
   15MOL    H99 4887   0.277   0.861   1.311  2.4601 -1.4693  0.4467
   15MOL   H100 4888   0.335   1.123   1.196 -0.6926  1.0617 -0.6134
   15MOL   H101 4889   0.174   1.050   1.207  0.4815 -2.4822  1.4265
   15MOL   H102 4890   0.304   1.245   1.383 -1.4240  2.1509  0.0683
   15MOL   H103 4891   0.132   1.231   1.345 -1.7929 -0.5764  2.1875
   15MOL   C104 4892   0.335   0.915   1.708 -0.4867 -0.2284  0.1280
   15MOL   C105 4893   0.457   0.834   1.759  0.1167 -0.0712 -0.7680
   15MOL   N106 4894   0.565   0.824   1.659  0.5585 -0.6156 -0.6106
   15MOL   C107 4895   0.619   0.691   1.624  0.1733 -0.1829  0.4028
   15MOL   C108 4896   0.702   0.715   1.501  0.0367  0.0410 -0.5294
   15MOL   C109 4897   0.713   0.867   1.486  0.7693 -0.0990  0.3091
   15MOL   C110 4898   0.621   0.925   1.585 -0.1288  0.5202  0.1574
   15MOL   O111 4899   0.618   1.042   1.616 -0.4000 -0.6386  0.3368
   15MOL   H112 4900   0.250   0.910   1.776  0.4354  2.0954  1.5382
   15MOL   H113 4901   0.356   1.022   1.703 -1.6229 -0.0097 -0.0903
   15MOL   H114 4902   0.419   0.734   1.778  1.4214 -0.1740  1.4561
   15MOL   H115 4903   0.691   0.660   1.700 -0.7941  1.5638  2.0715
   15MOL   H116 4904   0.538   0.621   1.605 -2.6487  2.4496  2.3934
   15MOL   H117 4905   0.802   0.671   1.498 -1.0382 -2.6023  1.3107
   15MOL   H118 4906   0.645   0.674   1.417  0.5280 -1.1890 -0.2718
   15MOL   H119 4907   0.675   0.897   1.388  0.2160  1.1477  0.8833
   15MOL   H120 4908   0.814   0.903   1.504  0.3439  0.2139  2.1301
   15MOL   C121 4909   0.520   0.889   1.890  0.6748 -0.1157  0.0579
   15MOL   C122 4910   0.437   0.903   2.017  0.2454  0.4736 -0.8776
   15MOL   N123 4911   0.387   0.773   2.057  0.0459  0.2686 -0.2961
   15MOL   C124 4912   0.248   0.739   2.062 -0.0552  0.2260  0.1723
   15MOL   C125 4913   0.227   0.597   2.093  0.4727  0.3361 -0.0025
   15MOL   C126 4914   0.365   0.559   2.153  0.1903 -0.0102  0.3171
   15MOL   C127 4915   0.456   0.676   2.113  0.2516  0.8435 -0.4967
   15MOL   O128 4916   0.576   0.674   2.138  0.5928 -0.0214  0.3299
   15MOL   H129 4917   0.564   0.984   1.861  0.5552  0.6706  2.3227
   15MOL   H130 4918   0.605   0.822   1.905  2.2666  2.0871  1.2529
   15MOL   H131 4919   0.345   0.960   2.005 -1.2785 -1.7725 -0.1621
   15MOL   H132 4920   0.202   0.760   1.965  0.3651 -0.6781 -0.2262
   15MOL   H133 4921   0.211   0.802   2.143 -1.9276  1.6035 -1.6609
   15MOL   H134 4922   0.147   0.576   2.163  2.0505 -0.7023  1.5382
   15MOL   H135 4923   0.203   0.542   2.002  1.7774  0.6204 -0.5366
   15MOL   H136 4924   0.362   0.564   2.262 -0.5895 -1.6683  0.3874
   15MOL   H137 4925   0.397   0.467   2.105 -1.9208  0.1782 -1.5482
   15MOL   C138 4926   0.515   0.979   2.129 -0.8279 -0.0539 -0.3084
   15MOL   C139 4927   0.560   1.119   2.093 -0.0249  0.0743  0.1389
   15MOL   N140 4928   0.445   1.199   2.036  0.1507 -0.4224  0.0852
   15MOL   C141 4929   0.465   1.272   1.905 -0.1738 -0.2495 -0.4389
   15MOL   C142 4930   0.337   1.358   1.898  0.4546  0.1235  0.4265
   15MOL   C143 4931   0.253   1.328   2.015 -0.2464 -0.2424 -0.0287
   15MOL   C144 4932   0.338   1.240   2.097 -0.7804 -0.0470 -0.4286
   15MOL   O145 4933   0.307   1.208   2.213 -0.5908  0.0082 -0.4823
   15MOL   H146 4934   0.610   0.925   2.134  0.6510  2.1482 -3.2683
   15MOL   H147 4935   0.458   0.978   2.222  0.6120  0.6596  0.6001
   15MOL   H148 4936   0.630   1.104   2.011 -0.2063  2.3552 -0.4740
   15MOL   H149 4937   0.548   1.341   1.919 -0.0788 -0.3735 -0.4003
   15MOL   H150 4938   0.460   1.211   1.815 -0.2873  0.3732 -0.8580
   15MOL   H151 4939   0.364   1.463   1.908  2.8681 -0.4897  0.6934
   15MOL   H152 4940   0.294   1.349   1.798  0.9639 -2.6393  0.4261
   15MOL   H153 4941   0.166   1.267   1.986 -0.4498  0.3398 -0.6601
   15MOL   H154 4942   0.215   1.411   2.074 -1.8528 -0.8915 -0.0934
   15MOL   C155 4943   0.642   1.202   2.195 -0.0070  0.1600 -0.2978
   15MOL   C156 4944   0.778   1.142   2.242  0.4806  0.0130  0.5045
   15MOL   N157 4945   0.875   1.133   2.127 -0.0707  0.0595 -0.4507
   15MOL   C158 4946   0.898   1.002   2.068 -0.4728 -0.5547 -0.6825
   15MOL   C159 4947   0.979   1.021   1.936  0.0255  0.1662  0.0706
   15MOL   C160 4948   1.025   1.167   1.951 -0.6695 -0.1828 -1.1755
   15MOL   C161 4949   0.936   1.236   2.060 -0.2349  1.0508  0.6126
   15MOL   O162 4950   0.930   1.354   2.088  0.1296  0.2825 -0.0971
   15MOL   H163 4951   0.574   1.225   2.278  0.4845  1.0935 -0.1449
   15MOL   H164 4952   0.662   1.292   2.138  1.4861 -0.2230 -0.4011
   15MOL   H165 4953   0.760   1.038   2.269 -1.8969 -0.7838 -3.6415
   15MOL   H166 4954   0.944   0.930   2.136 -3.0806 -0.8425  0.8263
   15MOL   H167 4955   0.807   0.950   2.037  1.3104 -3.4524 -1.3347
   15MOL   H168 4956   1.054   0.942   1.932 -0.5788 -0.4475  0.5748
   15MOL   H169 4957   0.908   1.015   1.853 -0.5157 -1.4921  0.6103
   15MOL   H170 4958   1.130   1.166   1.980 -0.8599 -1.6605 -0.5110
   15MOL   H171 4959   1.021   1.211   1.851 -1.1019  0.7265 -0.7607
   15MOL   C172 4960   0.850   1.198   2.360 -0.0749  0.0553 -0.1042
   15MOL   C173 4961   0.771   1.192   2.486  0.4371  0.2957  0.2026
   15MOL   N174 4962   0.789   1.051   2.541 -0.2627 -0.8604 -0.3698
   15MOL   C175 4963   0.670   0.967   2.554 -0.4211 -0.0836  0.4104
   15MOL   C176 4964   0.720   0.841   2.629  0.6253 -0.0924 -0.3085
   15MOL   C177 4965   0.853   0.887   2.689 -0.2522  0.0139  0.1845
   15MOL   C178 4966   0.893   1.012   2.616 -0.9093 -0.6436  0.2836
   15MOL   O179 4967   1.003   1.069   2.641 -0.1061  0.3412  0.1815
   15MOL   H180 4968   0.859   1.302   2.330 -3.9163  0.7804  0.9559
   15MOL   H181 4969   0.953   1.166   2.375 -0.6652 -1.2826  1.2718
   15MOL   H182 4970   0.665   1.201   2.464  1.1523  0.8236 -3.2015
   15MOL   H183 4971   0.588   1.012   2.610 -0.5683 -0.3165  0.3823
   15MOL   H184 4972   0.630   0.945   2.455 -1.8280  3.0118  0.2331
   15MOL   H185 4973   0.737   0.761   2.556  2.0957 -0.6680  0.6404
   15MOL   H186 4974   0.644   0.807   2.699  0.3614  1.3113  0.0984
   15MOL   H187 4975   0.867   0.890   2.798 -0.7195 -1.5865  0.2973
   15MOL   H188 4976   0.926   0.809   2.665 -0.5049 -0.3860  0.6939
   15MOL   C189 4977   0.799   1.303   2.587  0.1124 -0.5438  0.4420
   15MOL   C190 4978   0.743   1.448   2.550 -0.1926 -0.3085  0.0877
   15MOL   N191 4979   0.597   1.456   2.520 -0.1320  0.3627  0.3950
   15MOL   C192 4980   0.543   1.550   2.420 -0.1115  0.9222 -0.3493
   15MOL   C193 4981   0.393   1.550   2.437  0.1888 -0.2890  0.3945
   15MOL   C194 4982   0.365   1.438   2.531 -0.5078 -0.1744  0.3671
   15MOL   C195 4983   0.498   1.387   2.581 -0.2983  0.0752  0.8088
   15MOL   O196 4984   0.501   1.303   2.672 -0.1250  0.1016  0.1207
   15MOL   H197 4985   0.906   1.308   2.610 -0.1148  2.0135  1.0851
   15MOL   H198 4986   0.751   1.285   2.683 -0.9867 -1.1636 -0.2198
   15MOL   H199 4987   0.787   1.470   2.452 -0.8315  0.7446  0.0338
   15MOL   H200 4988   0.597   1.644   2.415 -0.0738  1.0665  2.3374
   15MOL   H201 4989   0.577   1.509   2.325 -1.2020 -0.7515 -0.0334
   15MOL   H202 4990   0.360   1.649   2.467 -3.0173 -1.3964  0.6392
   15MOL   H203 4991   0.355   1.537   2.335 -0.3119 -1.4006  0.7203
   15MOL   H204 4992   0.299   1.462   2.614 -0.2841 -1.8542  1.0382
   15MOL   H205 4993   0.319   1.355   2.477 -1.2045 -0.2822  1.1253
   15MOL   C206 4994   0.791   1.551   2.657  0.1906 -0.6044  0.4360
   15MOL   C207 4995   0.944   1.580   2.658 -0.3844 -0.3939 -0.3280
   15MOL   N208 4996   0.995   1.628   2.527  0.0684 -0.3078  0.2748
   15MOL   C209 4997   1.096   1.548   2.453  0.4954  0.9374 -0.1597
   15MOL   C210 4998   1.096   1.617   2.319 -0.1300 -0.0365  0.0450
   15MOL   C211 4999   1.025   1.749   2.329 -0.1018  0.4878 -0.0996
   15MOL   C212 5000   0.960   1.735   2.464  0.8256  0.4216 -0.4711
   15MOL   O213 5001   0.873   1.815   2.500 -0.0134 -0.2961 -0.4654
   15MOL   H214 5002   0.757   1.512   2.753  0.1164  1.9966  1.5247
   15MOL   H215 5003   0.748   1.650   2.637  2.0266  0.3778  1.2108
   15MOL   H216 5004   0.997   1.486   2.671  3.2080  1.4826 -1.0315
   15MOL   H217 5005   1.184   1.570   2.513  0.4643 -1.4047  0.7982
   15MOL   H218 5006   1.069   1.442   2.453  0.8402  0.8439 -0.5321
   15MOL   H219 5007   1.192   1.615   2.267 -0.2693  1.2308 -0.2557
   15MOL   H220 5008   1.036   1.548   2.260  1.4759 -0.0941 -1.5504
   15MOL   H221 5009   1.096   1.831   2.323  0.2160  0.3218  1.2323
   15MOL   H222 5010   0.943   1.762   2.259 -1.4220 -0.1297  1.2966
   15MOL   C223 5011   0.997   1.670   2.765 -0.4602 -0.0705 -0.0587
   15MOL   C224 5012   0.968   1.621   2.913 -0.9441  0.1286  0.4559
   15MOL   N225 5013   0.971   1.472   2.936  0.0544 -0.9475 -0.3915
   15MOL   C226 5014   0.861   1.409   3.015 -0.3980 -0.0034  0.8811
   15MOL   C227 5015   0.893   1.260   3.014 -0.1267 -0.2837  0.1548
   15MOL   C228 5016   1.038   1.247   2.962 -0.0373 -0.6155 -0.0409
   15MOL   C229 5017   1.078   1.389   2.920 -0.1900  0.3775  0.7955
   15MOL   O230 5018   1.192   1.423   2.900 -0.0631 -0.2124  0.2935
   15MOL   H231 5019   0.961   1.773   2.759 -0.2915  0.0864  1.3896
   15MOL   H232 5020   1.105   1.664   2.758 -0.2460  1.8822  1.2103
   15MOL   H233 5021   0.865   1.656   2.926 -0.7414  0.4736  1.1870
   15MOL   H234 5022   0.875   1.436   3.120  0.0284 -1.3739  1.1897
   15MOL   H235 5023   0.767   1.427   2.964 -0.3551 -3.7368 -0.7129
   15MOL   H236 5024   0.873   1.213   3.110 -2.5432 -0.2043 -0.2980
   15MOL   H237 5025   0.828   1.199   2.952 -0.8171 -0.0870  0.6911
   15MOL   H238 5026   1.109   1.214   3.038  0.0744 -0.4424 -0.0684
   15MOL   H239 5027   1.029   1.185   2.873  0.2688 -1.6155  0.6233
   15MOL   C240 5028   1.059   1.692   3.015  0.2017 -0.1667 -0.6322
   15MOL   C241 5029   1.063   1.851   3.001 -0.3024 -0.3623 -0.5995
   15MOL   N242 5030   0.934   1.910   3.032  0.3472 -0.6500  0.4554
   15MOL   C243 5031   0.869   1.997   2.933 -0.4755  0.0567 -0.7624
   15MOL   C244 5032   0.721   2.025   2.980  0.3787 -0.1264  0.1592
   15MOL   C245 5033   0.714   1.979   3.127 -0.4173 -0.3172 -0.1102
   15MOL   C246 5034   0.849   1.901   3.138  0.6832 -0.3429  0.2406
   15MOL   O247 5035   0.875   1.845   3.242 -0.7203  0.0864 -0.1224
   15MOL   H248 5036   1.160   1.652   3.007  0.3625  0.2087 -0.4919
   15MOL   H249 5037   1.022   1.665   3.113 -1.1086  2.8489 -0.2499
   15MOL   H250 5038   1.088   1.879   2.898  2.1637 -1.4513 -0.3268
   15MOL   H251 5039   0.921   2.092   2.922 -0.3018  0.1287  0.6078
   15MOL   H252 5040   0.864   1.948   2.836 -1.2283 -0.3349 -0.5259
   15MOL   H253 5041   0.713   2.133   2.992  1.1058 -0.2191  1.5337
   15MOL   H254 5042   0.645   1.977   2.918  0.3873  2.3304 -1.8359
   15MOL   H255 5043   0.705   2.047   3.211  0.8571 -0.4802  0.1724
   15MOL   H256 5044   0.634   1.907   3.141 -1.7333  0.4624 -3.2375
   15MOL   C257 5045   1.162   1.924   3.091  0.2810 -0.3945 -0.0354
   15MOL   C258 5046   1.317   1.882   3.079 -0.1130 -0.7314 -0.3710
   15MOL   N259 5047   1.364   1.837   2.949 -0.0584  0.4072  0.4398
   15MOL   C260 5048   1.436   1.710   2.930  0.3760  0.8652 -0.7849
   15MOL   C261 5049   1.448   1.699   2.773 -0.2662 -0.1936 -1.0258
   15MOL   C262 5050   1.429   1.846   2.722 -0.1550  0.4240  0.6418
   15MOL   C263 5051   1.357   1.915   2.837  0.0637 -1.0324  0.4410
   15MOL   O264 5052   1.306   2.027   2.823  0.1118 -0.5908  0.4298
   15MOL   H265 5053   1.131   1.909   3.194 -0.8805 -1.0432 -0.4746
   15MOL   H266 5054   1.147   2.030   3.071  1.1099  0.3090  2.9166
   15MOL   H267 5055   1.328   1.793   3.142 -1.2869 -0.6875 -0.0905
   15MOL   H268 5056   1.528   1.722   2.987  1.0804 -0.6815 -1.5433
   15MOL   H269 5057   1.389   1.621   2.973  0.3885  0.3477 -1.8207
   15MOL   H270 5058   1.536   1.648   2.733 -0.2232 -0.5514 -0.4861
   15MOL   H271 5059   1.364   1.639   2.736 -1.4439  0.9021 -0.1459
   15MOL   H272 5060   1.530   1.886   2.722 -0.4543  1.2363 -1.2224
   15MOL   H273 5061   1.381   1.852   2.624  1.2022  2.8185  0.0821
   15MOL   C274 5062   1.407   1.994   3.128  0.0738 -0.7766 -0.3351
   15MOL   C275 5063   1.370   2.053   3.265  0.0916  0.0411  0.0512
   15MOL   N276 5064   1.390   1.952   3.370  1.1590  0.6256  0.5479
   15MOL   C277 5065   1.278   1.898   3.454  0.4583  0.9848  0.9345
   15MOL   C278 5066   1.341   1.791   3.540  0.1558 -0.4594 -0.5221
   15MOL   C279 5067   1.491   1.804   3.521  0.6017  0.7069 -0.1837
   15MOL   C280 5068   1.510   1.885   3.402  0.8001 -0.4862 -0.5966
   15MOL   O281 5069   1.621   1.894   3.352 -0.4037  0.6272 -0.0377
   15MOL   H282 5070   1.400   2.074   3.055 -2.9632 -0.0024  0.7246
   15MOL   H283 5071   1.513   1.968   3.127  0.1853 -0.3091 -1.4414
   15MOL   H284 5072   1.266   2.084   3.268  0.0335 -0.0662 -0.9268
   15MOL   H285 5073   1.226   1.976   3.510  0.3470  0.5631  1.4169
   15MOL   H286 5074   1.207   1.849   3.387 -1.3063  2.2919  1.7980
   15MOL   H287 5075   1.302   1.799   3.642 -0.9245  0.1340 -0.9662
   15MOL   H288 5076   1.306   1.697   3.498 -0.7315  0.2009 -1.2862
   15MOL   H289 5077   1.535   1.844   3.612 -0.7590  0.7298  0.4642
   15MOL   H290 5078   1.537   1.706   3.502  2.1358  1.3984 -0.1368
   15MOL   C291 5079   1.453   2.176   3.301  0.3198 -0.7890 -0.6460
   15MOL   C292 5080   1.431   2.311   3.220  0.0056  0.4586 -0.2623
   15MOL   N293 5081   1.290   2.356   3.215 -0.0420 -0.4051 -0.3300
   15MOL   C294 5082   1.206   2.325   3.101 -0.5741 -0.0112  0.3461
   15MOL   C295 5083   1.060   2.335   3.148 -0.6019 -0.5124  0.2078
   15MOL   C296 5084   1.066   2.374   3.293 -0.6351 -0.4318  0.5615
   15MOL   C297 5085   1.216   2.374   3.321  0.5643 -0.3115  0.0528
   15MOL   O298 5086   1.258   2.393   3.435  0.2385 -0.5288 -0.2174
   15MOL   H299 5087   1.557   2.145   3.301 -0.0462 -2.0708  0.4438
   15MOL   H300 5088   1.426   2.202   3.403 -0.8089  0.6084 -1.2683
   15MOL   H301 5089   1.464   2.288   3.118  0.9745  0.1401  0.1156
   15MOL   H302 5090   1.212   2.382   3.008  0.0438  1.2016  1.1215
   15MOL   H303 5091   1.222   2.218   3.084 -2.3666 -0.5369  1.7211
   15MOL   H304 5092   1.006   2.411   3.091  1.3633 -0.4846 -1.6775
   15MOL   H305 5093   1.006   2.242   3.132 -1.4735 -0.1035  0.6792
   15MOL   H306 5094   1.022   2.474   3.304  1.8298  0.9266 -1.5003
   15MOL   H307 5095   1.009   2.306   3.357 -1.9995  1.2159  1.1654
   15MOL   C308 5096   1.526   2.419   3.261  0.4443  0.1867 -0.2894
   15MOL   C309 5097   1.666   2.399   3.199  0.1739 -0.0883  0.4058
   15MOL   N310 5098   1.671   2.434   3.050 -0.2262  0.0766 -0.2206
   15MOL   C311 5099   1.699   2.328   2.949  0.5845 -0.2696 -0.8889
   15MOL   C312 5100   1.735   2.412   2.821 -0.1678 -0.2262 -0.3710
   15MOL   C313 5101   1.687   2.556   2.852  0.2473  0.7775 -0.1688
   15MOL   C314 5102   1.674   2.560   2.999  0.4870 -0.4886  0.3424
   15MOL   O315 5103   1.674   2.667   3.062  0.4105  0.4397  0.1821
   15MOL   H316 5104   1.520   2.442   3.367  0.2993  1.0644 -0.4777
   15MOL   H317 5105   1.490   2.514   3.221 -1.2975 -1.6999 -3.4541
   15MOL   H318 5106   1.677   2.291   3.205  2.5677  0.2209  2.5436
   15MOL   H319 5107   1.783   2.268   2.983  1.0282  1.6423  1.5007
   15MOL   H320 5108   1.608   2.268   2.938 -0.9455  2.1237 -1.5967
   15MOL   H321 5109   1.842   2.429   2.804 -0.3754 -0.5627 -2.1625
   15MOL   H322 5110   1.697   2.363   2.731  0.0666 -1.7622  0.3542
   15MOL   H323 5111   1.758   2.631   2.816  1.8444 -1.0723 -0.9815
   15MOL   H324 5112   1.590   2.590   2.816 -0.3819 -2.1617 -1.3569
   15MOL   C325 5113   1.789   2.464   3.271  0.0886 -0.4020  0.9003
   15MOL   C326 5114   1.809   2.408   3.415 -0.0349 -0.1266  0.2913
   15MOL   N327 5115   1.951   2.416   3.452 -0.4007 -0.4956 -0.0045
   15MOL   C328 5116   2.001   2.544   3.508  0.0218  0.1379 -0.4813
   15MOL   C329 5117   2.154   2.525   3.515 -0.5596  0.8959 -0.5126
   15MOL   C330 5118   2.187   2.382   3.460 -0.0267 -0.4930  0.0223
   15MOL   C331 5119   2.049   2.327   3.425  0.2158 -0.0293 -0.0142
   15MOL   O332 5120   2.031   2.221   3.364  0.1161  0.0496  0.0819
   15MOL   H333 5121   1.774   2.572   3.271 -1.0550 -0.5292 -1.5989
   15MOL   H334 5122   1.877   2.451   3.208 -0.6224  0.0695 -0.2026
   15MOL   H335 5123   1.772   2.306   3.421  0.2723 -0.2542 -0.0202
   15MOL   H336 5124   1.961   2.635   3.463 -0.3231  0.1817 -0.0874
   15MOL   H337 5125   1.962   2.551   3.609  1.3347  2.4365 -0.0922
   15MOL   H338 5126   2.199   2.599   3.450  1.9758  1.4021  1.7327
   15MOL   H339 5127   2.189   2.542   3.617 -0.6093  1.4195 -0.5861
   15MOL   H340 5128   2.232   2.395   3.361  1.1770  0.5894  0.6907
   15MOL   H341 5129   2.250   2.317   3.521 -1.2025 -2.0753 -0.4322
   15MOL   H342 5130   1.752   2.467   3.487 -1.0359 -0.5123 -0.1774
   16MOL     C1 5131   7.466   3.613   4.491 -0.7067 -1.1317  0.5011
   16MOL     C2 5132   7.583   3.572   4.390 -0.3223  0.8662 -0.0351
   16MOL     N3 5133   7.550   3.468   4.293  0.1427  0.2111 -0.1458
   16MOL     C4 5134   7.586   3.328   4.309  0.2444 -0.0869 -0.0049
   16MOL     C5 5135   7.550   3.257   4.177 -0.8509  0.3042 -0.1760
   16MOL     C6 5136   7.453   3.351   4.114 -0.6218 -0.1853 -0.0205
   16MOL     C7 5137   7.469   3.480   4.183 -0.0830  0.2088 -0.5627
   16MOL     O8 5138   7.416   3.579   4.136  0.2750 -0.5102  0.9932
   16MOL     H9 5139   7.390   3.673   4.443 -1.6339 -1.0166  2.0836
   16MOL    H10 5140   7.408   3.532   4.536 -1.2198 -1.9236 -1.5105
   16MOL    H11 5141   7.666   3.526   4.445 -0.4180 -0.9453 -1.3425
   16MOL    H12 5142   7.691   3.318   4.334  1.1112  3.3814 -2.0153
   16MOL    H13 5143   7.527   3.289   4.392  0.4137 -1.1693 -0.3769
   16MOL    H14 5144   7.635   3.267   4.110  0.1656 -2.3312  0.6625
   16MOL    H15 5145   7.529   3.150   4.185  1.1495 -0.2386 -1.8429
   16MOL    H16 5146   7.462   3.360   4.006  1.7338 -0.6053  0.1061
   16MOL    H17 5147   7.352   3.317   4.137 -0.8310 -0.2227 -0.9494
   16MOL    H18 5148   7.514   3.666   4.574 -1.0791 -0.1414  0.0847
   16MOL    C19 5149   7.646   3.696   4.315 -0.0959  0.4639 -0.1640
   16MOL    C20 5150   7.732   3.787   4.401 -0.1956  0.0937  0.0357
   16MOL    N21 5151   7.861   3.736   4.450  0.3194  0.3298 -0.5315
   16MOL    C22 5152   0.053   3.688   4.351 -0.4513 -0.1603 -0.2615
   16MOL    C23 5153   0.186   3.675   4.436  0.2358  0.4858 -0.7991
   16MOL    C24 5154   0.142   3.682   4.584  0.7113 -0.1645  0.0433
   16MOL    C25 5155   7.904   3.729   4.579  0.0007 -0.4110 -0.1871
   16MOL    O26 5156   7.842   3.770   4.676 -0.1087  0.2512 -0.1787
   16MOL    H27 5157   7.580   3.774   4.275 -1.4377 -1.1073 -1.0675
   16MOL    H28 5158   7.691   3.673   4.218  1.3348 -0.5763  0.7292
   16MOL    H29 5159   7.671   3.804   4.490 -1.4218 -1.1920 -0.5439
   16MOL    H30 5160   0.026   3.589   4.316 -1.5797  0.3057 -0.7155
   16MOL    H31 5161   0.075   3.750   4.264 -1.6283  0.8330  0.1349
   16MOL    H32 5162   0.232   3.581   4.405  0.0067  0.0644  0.1305
   16MOL    H33 5163   0.249   3.763   4.419  0.6581  0.9363  2.8532
   16MOL    H34 5164   0.145   3.588   4.640 -1.1935  0.9384  2.1046
   16MOL    H35 5165   0.195   3.758   4.642  0.7959  2.0770 -2.8772
   16MOL    C36 5166   7.753   3.928   4.334 -0.0141  0.3139  0.4131
   16MOL    C37 5167   7.620   4.028   4.353  0.9801  0.7973  0.3335
   16MOL    N38 5168   7.599   4.060   4.499 -0.3945 -0.3934 -0.1538
   16MOL    C39 5169   7.458   4.035   4.548 -0.4246  0.0243  0.3504
   16MOL    C40 5170   7.468   4.065   4.702 -0.2304 -0.6423  0.4305
   16MOL    C41 5171   7.618   4.083   4.736  0.0753 -0.1583  0.2230
   16MOL    C42 5172   7.687   4.077   4.598  0.1288  0.1424 -0.0194
   16MOL    O43 5173   7.804   4.118   4.590  0.5575 -0.0532  0.0716
   16MOL    H44 5174   7.770   3.911   4.228 -0.2182  2.7240 -0.0276
   16MOL    H45 5175   7.843   3.982   4.364  0.8371 -0.1240 -1.2863
   16MOL    H46 5176   7.526   3.985   4.321  0.8207 -0.2426  2.0998
   16MOL    H47 5177   7.373   4.089   4.507 -0.2807  3.5621  4.3842
   16MOL    H48 5178   7.429   3.934   4.519  1.3849 -0.0562 -1.2402
   16MOL    H49 5179   7.414   4.159   4.715 -0.6876 -1.0535  1.6162
   16MOL    H50 5180   7.420   3.990   4.765 -0.0609 -0.0359  1.2921
   16MOL    H51 5181   7.639   4.165   4.805  0.3388  1.2401 -1.4780
   16MOL    H52 5182   7.649   3.992   4.787  1.3770 -0.4591 -1.0959
   16MOL    C53 5183   7.644   4.161   4.289 -0.3163 -0.3720 -0.3821
   16MOL    C54 5184   7.666   4.152   4.134 -0.1492  0.4733  0.1738
   16MOL    N55 5185   7.579   4.053   4.061 -0.5519  0.2095 -0.0888
   16MOL    C56 5186   7.640   3.981   3.948  0.5412  0.2895  0.5534
   16MOL    C57 5187   7.523   3.889   3.904 -0.1560 -0.1433 -0.2180
   16MOL    C58 5188   7.397   3.951   3.962  0.3015 -0.4753 -0.1679
   16MOL    C59 5189   7.450   4.039   4.071  0.1076  0.5416  0.0171
   16MOL    O60 5190   7.379   4.105   4.139 -0.0730 -0.6087 -0.3141
   16MOL    H61 5191   7.728   4.210   4.338  0.2046 -0.3810 -1.2667
   16MOL    H62 5192   7.556   4.224   4.300  1.2020  1.8616 -0.7128
   16MOL    H63 5193   7.767   4.111   4.124 -1.2015 -2.5612  1.2914
   16MOL    H64 5194   7.665   4.062   3.879  0.6256  0.7522  1.1267
   16MOL    H65 5195   7.729   3.926   3.977 -0.4289 -2.0190 -0.7350
   16MOL    H66 5196   7.512   3.886   3.795  0.1905 -0.3690 -0.2481
   16MOL    H67 5197   7.528   3.783   3.928  1.5702 -0.3592 -1.4575
   16MOL    H68 5198   7.339   4.002   3.885 -2.9964  0.1068  2.5960
   16MOL    H69 5199   7.322   3.878   3.993 -0.3527 -1.0846 -2.9980
   16MOL    C70 5200   7.667   4.283   4.054  0.1941  0.8238  0.0800
   16MOL    C71 5201   7.777   4.391   4.094  0.4053 -0.4894  0.1680
   16MOL    N72 5202   0.010   4.338   4.074  0.3575  0.2816  0.2346
   16MOL    C73 5203   0.102   4.320   4.184 -0.5152  0.5822  0.0105
   16MOL    C74 5204   0.235   4.256   4.131  0.0835 -0.2732 -0.4841
   16MOL    C75 5205   0.219   4.270   3.977  0.8595  0.1878 -0.3715
   16MOL    C76 5206   0.068   4.313   3.954  0.6124 -0.6088 -0.0716
   16MOL    O77 5207   0.020   4.312   3.842  0.0017  0.0050  0.0870
   16MOL    H78 5208   7.568   4.326   4.068 -0.7888 -1.6647  1.0245
   16MOL    H79 5209   7.666   4.260   3.947 -0.7083 -2.2432  0.7006
   16MOL    H80 5210   7.759   4.404   4.201 -1.9356  0.8077 -0.3633
   16MOL    H81 5211   0.117   4.417   4.232  1.3194 -0.1641  1.0061
   16MOL    H82 5212   0.071   4.247   4.259  0.6319 -1.0054 -1.0469
   16MOL    H83 5213   0.323   4.310   4.165 -0.1327  0.7237 -1.4435
   16MOL    H84 5214   0.248   4.153   4.162  0.0265  0.0893  0.7694
   16MOL    H85 5215   0.267   4.362   3.943 -1.7360  0.9846 -2.0686
   16MOL    H86 5216   0.254   4.189   3.913  1.4211  0.3497 -0.2695
   16MOL    C87 5217   7.765   4.526   4.005 -0.0973 -0.2713 -0.0131
   16MOL    C88 5218   7.644   4.618   4.060  0.0481  0.1519  0.6088
   16MOL    N89 5219   7.687   4.691   4.178  0.3304 -0.4942 -0.5928
   16MOL    C90 5220   7.616   4.666   4.305 -0.4002 -0.2371  0.4547
   16MOL    C91 5221   7.687   4.763   4.403 -0.1904 -0.2953 -0.3683
   16MOL    C92 5222   7.817   4.810   4.331  0.0333  0.1217 -0.0479
   16MOL    C93 5223   7.789   4.776   4.189 -0.2570  0.3499 -0.1276
   16MOL    O94 5224   7.853   4.820   4.098 -0.4141 -0.0369 -0.0323
   16MOL    H95 5225   7.740   4.484   3.907 -0.9007 -2.1378  0.9662
   16MOL    H96 5226   7.851   4.593   4.003  0.5939 -1.0607  1.9384
   16MOL    H97 5227   7.554   4.563   4.083 -1.0998 -0.1573 -4.0809
   16MOL    H98 5228   7.510   4.689   4.316 -0.0955  1.2237  0.5281
   16MOL    H99 5229   7.638   4.561   4.325 -0.5795 -0.0038  1.9334
   16MOL   H100 5230   7.622   4.847   4.429 -0.2344 -1.0326  2.0083
   16MOL   H101 5231   7.713   4.716   4.497 -1.0261 -0.0072  0.0141
   16MOL   H102 5232   7.840   4.915   4.349  2.1467 -0.6128  1.7633
   16MOL   H103 5233   7.899   4.753   4.377  0.8951  1.7970  0.5185
   16MOL   C104 5234   7.597   4.719   3.950  0.7156 -0.2629  0.5501
   16MOL   C105 5235   7.483   4.814   4.002 -0.2540 -0.0240 -0.3314
   16MOL   N106 5236   7.452   4.908   3.894  0.1101 -0.0809 -0.1599
   16MOL   C107 5237   7.522   5.033   3.893 -0.1822 -0.6111  0.5533
   16MOL   C108 5238   7.491   5.091   3.763 -0.5560  0.1911  0.3245
   16MOL   C109 5239   7.419   4.986   3.680  0.4810  0.1382  0.2025
   16MOL   C110 5240   7.396   4.879   3.775  0.3947 -0.0816  0.3437
   16MOL   O111 5241   7.342   4.773   3.733 -0.2996  0.8776 -0.0875
   16MOL   H112 5242   7.562   4.661   3.864  0.7901 -0.0815  0.3953
   16MOL   H113 5243   7.685   4.776   3.920 -0.9612  1.3929 -1.4293
   16MOL   H114 5244   7.499   4.879   4.088 -1.8733  1.8650 -1.4329
   16MOL   H115 5245   7.489   5.091   3.979  0.0924 -0.2872  0.4418
   16MOL   H116 5246   7.630   5.027   3.901  0.0768  2.1304 -0.4653
   16MOL   H117 5247   7.430   5.180   3.775 -1.9445 -0.7000 -0.0034
   16MOL   H118 5248   7.584   5.120   3.713  0.3495  2.0943  3.0047
   16MOL   H119 5249   7.492   4.946   3.609 -1.0056 -0.4470 -1.0108
   16MOL   H120 5250   7.338   5.032   3.623 -1.1076 -1.5019  1.1171
   16MOL   C121 5251   7.360   4.722   4.038 -0.1504 -0.3767  0.0146
   16MOL   C122 5252   7.218   4.783   4.054  0.5104  0.1742  0.1137
   16MOL   N123 5253   7.117   4.684   4.011 -0.2981  0.1827 -0.4749
   16MOL   C124 5254   7.025   4.720   3.906 -0.0399  0.0937 -0.4979
   16MOL   C125 5255   6.926   4.605   3.907  0.3849 -0.0226 -0.5157
   16MOL   C126 5256   6.999   4.490   3.974 -0.2726 -0.4970  0.2165
   16MOL   C127 5257   7.110   4.553   4.043  0.4245  0.6776 -0.9735
   16MOL   O128 5258   7.190   4.491   4.112  0.0175 -0.0571 -0.8644
   16MOL   H129 5259   7.380   4.663   4.127  2.8005  0.0027 -0.3191
   16MOL   H130 5260   7.349   4.644   3.963  1.2955 -0.3920 -0.1974
   16MOL   H131 5261   7.219   4.857   3.973  1.1899 -1.1068 -1.0731
   16MOL   H132 5262   7.072   4.711   3.808  0.7381 -2.8771  0.1145
   16MOL   H133 5263   6.977   4.818   3.902  0.2856  0.2794  0.1381
   16MOL   H134 5264   6.835   4.634   3.959  1.3157  1.4820  0.2905
   16MOL   H135 5265   6.891   4.582   3.806  0.3376  0.0834 -0.5234
   16MOL   H136 5266   6.923   4.443   4.036 -2.1826  1.5534 -0.4845
   16MOL   H137 5267   7.035   4.418   3.901  0.7082 -0.5498  0.7365
   16MOL   C138 5268   7.181   4.846   4.186 -0.6371  0.0587 -0.5036
   16MOL   C139 5269   7.082   4.964   4.186  0.4163 -0.0314  0.2631
   16MOL   N140 5270   6.950   4.935   4.123 -0.8660  0.3817  0.3042
   16MOL   C141 5271   6.909   5.024   4.016  0.2283  0.4256 -0.1864
   16MOL   C142 5272   6.768   4.973   3.970 -0.6895  0.0074  0.2471
   16MOL   C143 5273   6.725   4.877   4.089 -0.8428  0.0095  0.2806
   16MOL   C144 5274   6.854   4.853   4.169  0.4080  0.3688 -0.6514
   16MOL   O145 5275   6.861   4.771   4.258  0.7447 -0.0634 -0.2280
   16MOL   H146 5276   7.272   4.882   4.234 -1.1704 -1.0248  1.3722
   16MOL   H147 5277   7.136   4.774   4.255 -1.7711  0.4299 -0.8561
   16MOL   H148 5278   7.125   5.043   4.124 -0.9025  1.0548  0.6951
   16MOL   H149 5279   6.899   5.117   4.072 -1.0745  0.6864 -0.8301
   16MOL   H150 5280   6.979   5.032   3.933 -0.9784 -0.9159 -1.3624
   16MOL   H151 5281   6.694   5.054   3.966 -0.5305  0.2139  1.3978
   16MOL   H152 5282   6.763   4.922   3.873  1.8126 -1.8256  1.0287
   16MOL   H153 5283   6.675   4.790   4.046  1.1193 -1.3796  0.7613
   16MOL   H154 5284   6.655   4.928   4.156  1.3081  1.5671  1.4096
   16MOL   C155 5285   7.064   5.043   4.325 -0.0243  0.0279  0.0019
   16MOL   C156 5286   7.192   5.116   4.377  0.1498  0.3385 -0.0592
   16MOL   N157 5287   7.237   5.221   4.272  0.1007  0.2768  0.2611
   16MOL   C158 5288   7.343   5.201   4.173 -0.1845  0.7158  1.0546
   16MOL   C159 5289   7.346   5.325   4.091 -0.8557 -0.0387  0.1794
   16MOL   C160 5290   7.256   5.426   4.146  0.2172 -0.0821 -0.7467
   16MOL   C161 5291   7.192   5.349   4.262 -0.7055  0.8710 -0.4227
   16MOL   O162 5292   7.113   5.409   4.334 -0.1764 -0.2033 -0.4866
   16MOL   H163 5293   7.015   4.980   4.399  0.7337 -3.2065 -2.1309
   16MOL   H164 5294   6.994   5.124   4.310  0.4554  0.3138 -0.7520
   16MOL   H165 5295   7.273   5.045   4.391 -2.4330 -2.8541 -0.5255
   16MOL   H166 5296   7.439   5.180   4.219 -0.3269  0.5637  1.2833
   16MOL   H167 5297   7.328   5.108   4.118  1.1800 -1.6676  4.5665
   16MOL   H168 5298   7.447   5.365   4.090 -1.0498  0.4742  1.2311
   16MOL   H169 5299   7.315   5.293   3.991  1.5355 -1.0247 -0.2835
   16MOL   H170 5300   7.298   5.516   4.191 -1.1353  0.8347 -1.2933
   16MOL   H171 5301   7.184   5.461   4.073  1.9211  3.0864 -1.0262
   16MOL   C172 5302   7.173   5.171   4.519  0.5303  0.4009 -0.0462
   16MOL   C173 5303   7.309   5.216   4.581  0.1561  0.5977 -0.0111
   16MOL   N174 5304   7.289   5.312   4.692 -0.7608 -0.2724  0.2741
   16MOL   C175 5305   7.346   5.447   4.702  0.1334 -0.6332  0.3426
   16MOL   C176 5306   7.322   5.497   4.851 -0.2901 -0.1569  0.3181
   16MOL   C177 5307   7.220   5.393   4.906 -0.4784  0.2238  0.5615
   16MOL   C178 5308   7.215   5.290   4.801 -0.3068  0.9490 -0.4761
   16MOL   O179 5309   7.156   5.183   4.817  0.0719  0.3374  0.4662
   16MOL   H180 5310   7.130   5.083   4.567 -0.5642  0.5539 -0.7267
   16MOL   H181 5311   7.099   5.251   4.525 -0.3116 -0.3864  0.1726
   16MOL   H182 5312   7.370   5.263   4.504  0.9199 -0.2410  0.0737
   16MOL   H183 5313   7.450   5.466   4.674 -0.2056  1.3209  0.3759
   16MOL   H184 5314   7.294   5.507   4.627  0.3775  0.8231  1.3350
   16MOL   H185 5315   7.294   5.601   4.871  0.5263 -0.1100  1.2337
   16MOL   H186 5316   7.419   5.493   4.900  0.8335  1.2151 -1.7287
   16MOL   H187 5317   7.251   5.351   5.002 -0.2876 -4.2167 -1.3097
   16MOL   H188 5318   7.118   5.431   4.915 -1.5669 -2.3382 -0.4628
   16MOL   C189 5319   7.395   5.087   4.615 -0.8617  0.4761  0.0658
   16MOL   C190 5320   7.498   5.097   4.734  0.9436 -0.0840  0.1793
   16MOL   N191 5321   7.465   4.982   4.826 -0.4810  0.1760 -0.9177
   16MOL   C192 5322   7.428   5.000   4.972 -0.4147 -0.6340 -0.0064
   16MOL   C193 5323   7.374   4.867   5.013  0.0493  0.4843  0.2993
   16MOL   C194 5324   7.424   4.765   4.916 -0.7092 -0.1889  0.1112
   16MOL   C195 5325   7.477   4.851   4.802  0.2341  0.4110  0.2512
   16MOL   O196 5326   7.530   4.806   4.703  0.3609  0.5710  0.1887
   16MOL   H197 5327   7.455   5.075   4.525 -0.5555 -1.0155  0.4622
   16MOL   H198 5328   7.329   5.001   4.620  1.4131 -1.2863  0.4523
   16MOL   H199 5329   7.476   5.187   4.793  1.5131  0.5268 -0.5260
   16MOL   H200 5330   7.528   5.016   5.012 -1.4452  0.5967  2.1836
   16MOL   H201 5331   7.367   5.086   5.000  3.3355  2.3187 -0.5163
   16MOL   H202 5332   7.418   4.850   5.111  1.4426  2.0128 -0.0450
   16MOL   H203 5333   7.266   4.856   5.026  0.3687 -0.3233  2.4287
   16MOL   H204 5334   7.509   4.709   4.955  1.8829  3.6361  0.1609
   16MOL   H205 5335   7.341   4.704   4.879 -0.5072  0.0365 -0.7076
   16MOL   C206 5336   7.645   5.096   4.680 -0.8916 -0.0936  0.3249
   16MOL   C207 5337   7.680   5.229   4.603  0.4123 -0.6801  0.0219
   16MOL   N208 5338   7.777   5.310   4.682 -0.6610  0.4725  0.3730
   16MOL   C209 5339   7.728   5.420   4.762  0.0492  0.0081  0.2479
   16MOL   C210 5340   7.847   5.482   4.833 -0.1147 -0.0745  0.2617
   16MOL   C211 5341   0.059   5.385   4.802 -0.0424 -0.2872 -0.5778
   16MOL   C212 5342   7.902   5.281   4.718  0.5071 -0.2229  0.0507
   16MOL   O213 5343   0.053   5.179   4.682 -0.3339 -0.2501 -0.2333
   16MOL   H214 5344   7.672   5.009   4.621 -0.2688  0.3885 -0.1157
   16MOL   H215 5345   7.704   5.069   4.767 -0.0512  2.2773  0.5399
   16MOL   H216 5346   7.584   5.278   4.592  0.1012 -1.1381  0.6227
   16MOL   H217 5347   7.676   5.497   4.705  1.0036  0.7894  0.4254
   16MOL   H218 5348   7.662   5.392   4.844  1.5891 -0.9765  1.1885
   16MOL   H219 5349   7.863   5.586   4.802 -0.1004 -0.4750 -1.1153
   16MOL   H220 5350   7.832   5.490   4.941 -0.2727  0.6697  0.1884
   16MOL   H221 5351   0.145   5.436   4.757  0.2064 -1.3971 -1.3904
   16MOL   H222 5352   0.105   5.345   4.892 -0.8285 -0.2897 -0.1771
   16MOL   C223 5353   7.735   5.187   4.465  0.2401 -0.8716  0.3208
   16MOL   C224 5354   7.767   5.301   4.364  0.7261  0.5319 -0.0077
   16MOL   N225 5355   7.834   5.251   4.244  0.0107 -0.3926 -0.7122
   16MOL   C226 5356   0.048   5.317   4.201 -0.0136 -0.0102  0.7132
   16MOL   C227 5357   0.067   5.289   4.051 -0.5993 -0.2166 -0.4824
   16MOL   C228 5358   7.871   5.180   4.029 -0.3571  0.6484 -0.6255
   16MOL   C229 5359   7.786   5.163   4.155  0.3995 -0.5515  0.5199
   16MOL   O230 5360   7.684   5.096   4.160 -0.2581 -0.5814  0.1872
   16MOL   H231 5361   7.660   5.120   4.423 -0.7805  0.9321 -0.8074
   16MOL   H232 5362   7.826   5.129   4.473  1.3040  0.5358 -1.3113
   16MOL   H233 5363   7.840   5.365   4.414 -0.8376  1.7076  0.8134
   16MOL   H234 5364   0.042   5.425   4.216  1.2741  0.1538  0.0921
   16MOL   H235 5365   0.129   5.276   4.262 -0.9013 -1.6864  0.7858
   16MOL   H236 5366   0.041   5.380   3.997  1.3567 -0.2807 -1.5616
   16MOL   H237 5367   0.171   5.263   4.032 -0.4048 -1.2447  1.7938
   16MOL   H238 5368   7.811   5.184   3.938 -2.5470 -0.9829  0.6798
   16MOL   H239 5369   0.035   5.097   4.024  1.0674  1.8259 -0.6684
   16MOL   C240 5370   7.647   5.383   4.324  0.2698 -0.0265  0.3196
   16MOL   C241 5371   7.647   5.529   4.377  0.1648  0.2414  0.3849
   16MOL   N242 5372   7.754   5.613   4.325 -0.3702  0.0463 -0.0279
   16MOL   C243 5373   7.852   5.658   4.422 -0.9064  0.4243 -0.4377
   16MOL   C244 5374   0.030   5.761   4.353  0.5063 -0.6313  0.5122
   16MOL   C245 5375   0.001   5.738   4.203  0.2154 -0.2658 -0.3394
   16MOL   C246 5376   7.783   5.651   4.201 -0.3894 -0.5692  0.5171
   16MOL   O247 5377   7.737   5.607   4.097 -0.8187 -0.0989 -0.0243
   16MOL   H248 5378   7.554   5.341   4.363  0.9730 -1.1916  0.7493
   16MOL   H249 5379   7.629   5.382   4.217  0.4149 -0.8661  0.3045
   16MOL   H250 5380   7.653   5.511   4.485 -1.0201  0.8459  0.5491
   16MOL   H251 5381   7.814   5.696   4.516  0.1856 -1.3256  0.7430
   16MOL   H252 5382   0.008   5.571   4.445  0.5568  1.4655 -0.3465
   16MOL   H253 5383   0.005   5.862   4.386  0.6098 -0.5768  0.4240
   16MOL   H254 5384   0.136   5.758   4.376  0.4784  1.0037  0.9229
   16MOL   H255 5385   7.891   5.833   4.151 -0.1592 -0.1812 -0.0724
   16MOL   H256 5386   0.075   5.674   4.154 -0.0118 -0.9668  0.2236
   16MOL   C257 5387   7.505   5.595   4.355  0.3797 -0.1232 -0.3080
   16MOL   C258 5388   7.486   5.742   4.411  0.7293 -0.0753 -0.0433
   16MOL   N259 5389   7.386   5.815   4.334 -0.7285 -0.2834 -0.3582
   16MOL   C260 5390   7.241   5.783   4.350 -0.0578 -0.0269 -0.1695
   16MOL   C261 5391   7.173   5.812   4.218 -0.5064  0.3774 -0.2828
   16MOL   C262 5392   7.272   5.902   4.151 -0.5167 -0.0381 -0.0551
   16MOL   C263 5393   7.406   5.886   4.224 -0.1494 -0.6893 -0.1804
   16MOL   O264 5394   7.512   5.913   4.169  0.1996  0.1303 -0.2736
   16MOL   H265 5395   7.426   5.533   4.396  1.2764 -0.3554  1.1006
   16MOL   H266 5396   7.500   5.579   4.247 -2.0172  0.3014 -0.2855
   16MOL   H267 5397   7.583   5.791   4.402  0.9786 -0.2267  1.7713
   16MOL   H268 5398   7.223   5.679   4.376  0.9371 -0.2397 -0.3251
   16MOL   H269 5399   7.202   5.837   4.437  0.1662 -0.8096  0.4205
   16MOL   H270 5400   7.151   5.726   4.154 -1.4263  1.4360 -1.4038
   16MOL   H271 5401   7.080   5.866   4.232  0.1652  1.2819  0.7852
   16MOL   H272 5402   7.273   5.879   4.044 -3.1278 -3.4217  0.5534
   16MOL   H273 5403   7.238   6.006   4.160 -1.0574 -0.4455  3.0388
   16MOL   C274 5404   7.458   5.746   4.570 -0.1860  0.1394  0.4522
   16MOL   C275 5405   7.505   5.874   4.635  0.2682 -0.2554  0.4791
   16MOL   N276 5406   7.429   5.889   4.761 -0.5382  0.2240  0.1202
   16MOL   C277 5407   7.330   5.990   4.762 -0.3142 -0.1113 -0.1025
   16MOL   C278 5408   7.256   5.968   4.895  0.0975 -0.0179 -0.0751
   16MOL   C279 5409   7.343   5.872   4.983  0.9065  0.0590  1.1632
   16MOL   C280 5410   7.443   5.829   4.880 -0.0201  0.4522  0.2777
   16MOL   O281 5411   7.536   5.750   4.902 -0.0001  0.3376 -0.3187
   16MOL   H282 5412   7.500   5.660   4.622 -1.3787 -0.9192 -0.3119
   16MOL   H283 5413   7.352   5.726   4.583 -0.0962 -0.4212  0.3582
   16MOL   H284 5414   7.477   5.949   4.562  0.9402  0.4217  0.9182
   16MOL   H285 5415   7.369   6.092   4.767  0.3148 -0.3507 -0.0064
   16MOL   H286 5416   7.269   5.986   4.672  1.2801  0.6148 -1.2523
   16MOL   H287 5417   7.236   6.057   4.955 -0.8265 -0.4734  0.3089
   16MOL   H288 5418   7.154   5.936   4.872  1.0492 -1.8524 -1.8334
   16MOL   H289 5419   7.393   5.924   5.065 -0.6023  2.5650  0.5354
   16MOL   H290 5420   7.277   5.792   5.018 -2.0545  1.1576 -1.6641
   16MOL   C291 5421   7.660   5.870   4.652  0.2232 -0.7314 -0.5865
   16MOL   C292 5422   7.728   5.986   4.738  0.1609  0.6290 -0.9935
   16MOL   N293 5423   7.854   5.922   4.786  0.0756  0.3272 -0.3591
   16MOL   C294 5424   7.853   5.872   4.920 -0.6274  0.1312 -0.3633
   16MOL   C295 5425   0.093   5.841   4.949 -0.1046  0.6436  0.0021
   16MOL   C296 5426   0.160   5.828   4.811 -0.4575 -0.1660 -0.6503
   16MOL   C297 5427   0.069   5.908   4.723 -0.2451  0.2468 -0.2948
   16MOL   O298 5428   0.096   5.951   4.613  0.0012  0.2550  0.2164
   16MOL   H299 5429   7.709   5.869   4.554  0.7860  0.1939 -0.3290
   16MOL   H300 5430   7.695   5.772   4.684  0.6125 -0.4076 -0.0047
   16MOL   H301 5431   7.666   6.002   4.826  2.0192  1.4261  0.1924
   16MOL   H302 5432   7.802   5.930   4.997  1.8529  1.6769  0.1744
   16MOL   H303 5433   7.791   5.783   4.916 -1.1385  0.4205  0.7238
   16MOL   H304 5434   0.152   5.909   5.011 -3.2163  3.2586  0.2047
   16MOL   H305 5435   0.102   5.752   5.011 -0.1232  0.6001 -0.0576
   16MOL   H306 5436   0.263   5.864   4.821  0.4036 -1.7447 -3.4659
   16MOL   H307 5437   0.166   5.726   4.773 -0.8441  0.2905 -1.9250
   16MOL   C308 5438   7.742   6.117   4.661 -0.5551  1.1421 -0.3308
   16MOL   C309 5439   7.856   6.231   4.706  0.3497 -0.4151 -0.5191
   16MOL   N310 5440   7.867   6.339   4.603  0.5737 -0.3814  0.0329
   16MOL   C311 5441   0.062   6.341   4.500 -0.3884  0.7260  0.2506
   16MOL   C312 5442   0.032   6.458   4.404 -0.0455  0.5822 -0.3498
   16MOL   C313 5443   7.816   6.521   4.462  0.5552  0.7988 -0.3276
   16MOL   C314 5444   7.771   6.430   4.576 -0.4803 -0.2673  0.1433
   16MOL   O315 5445   7.662   6.444   4.630  0.1939 -0.0134  0.2501
   16MOL   H316 5446   7.644   6.164   4.649 -0.4965  0.5344 -3.4889
   16MOL   H317 5447   7.775   6.094   4.560  0.8643  1.1180  0.1195
   16MOL   H318 5448   0.047   6.183   4.722  0.1847 -0.7463 -0.5018
   16MOL   H319 5449   0.162   6.342   4.544 -0.8253 -1.4624  1.4039
   16MOL   H320 5450   0.053   6.248   4.444 -1.3881  0.1338  1.3718
   16MOL   H321 5451   0.112   6.533   4.402  0.3322  0.1758 -0.6478
   16MOL   H322 5452   7.906   6.425   4.305  0.4210 -2.2116  0.3862
   16MOL   H323 5453   7.834   6.624   4.490 -0.3247  1.1142 -0.8910
   16MOL   H324 5454   7.735   6.522   4.388 -1.4710  3.4283  1.8337
   16MOL   C325 5455   7.834   6.283   4.848 -1.1463  0.6580  0.3741
   16MOL   C326 5456   0.038   6.382   4.901  0.2294  0.0278  0.3765
   16MOL   N327 5457   0.023   6.462   5.023 -0.3995  0.5244  0.4976
   16MOL   C328 5458   0.090   6.593   5.037  0.2456  0.2804 -0.2011
   16MOL   C329 5459   0.038   6.659   5.161 -0.4021 -0.2356  0.0916
   16MOL   C330 5460   7.874   6.542   5.236  0.0392 -0.5054  0.1457
   16MOL   C331 5461   7.865   6.428   5.135  0.1168 -0.4639 -0.5587
   16MOL   O332 5462   7.804   6.328   5.166 -0.0052 -0.6114  0.0792
   16MOL   H333 5463   7.831   6.191   4.907 -2.3745 -0.3459 -1.2263
   16MOL   H334 5464   7.732   6.321   4.851 -1.2580  0.5336 -1.2668
   16MOL   H335 5465   0.038   6.467   4.832 -2.8451  0.4906  0.8740
   16MOL   H336 5466   0.192   6.556   5.049  0.0135  0.0383  1.0780
   16MOL   H337 5467   0.091   6.657   4.949 -1.7141  1.8358  0.8494
   16MOL   H338 5468   0.116   6.713   5.216  2.0408 -1.0651 -2.4664
   16MOL   H339 5469   7.859   6.724   5.139 -2.0274 -1.1639  3.2505
   16MOL   H340 5470   0.029   6.505   5.318  3.1499 -0.0681 -1.8903
   16MOL   H341 5471   7.774   6.572   5.269 -0.7066 -1.1981 -1.4293
   16MOL   H342 5472   0.141   6.349   4.887  0.1668  0.3637 -0.9167
   17MOL     C1 5473   4.403   7.772   3.660 -0.4069  0.4417  0.0118
   17MOL     C2 5474   4.466   0.004   3.641 -0.1757 -0.2215  0.2392
   17MOL     N3 5475   4.593   7.891   3.570  0.0457  1.3549  0.1595
   17MOL     C4 5476   4.600   7.850   3.432 -0.9069  0.2459 -0.1443
   17MOL     C5 5477   4.747   7.815   3.405 -0.0472 -0.2220  0.5678
   17MOL     C6 5478   4.813   7.826   3.542  0.0215 -0.4820 -0.3665
   17MOL     C7 5479   4.707   7.877   3.632  0.0290  0.8412  0.3229
   17MOL     O8 5480   4.726   7.894   3.751 -0.2313  0.3476  0.0093
   17MOL     H9 5481   4.476   7.711   3.712 -3.3298 -2.5668  0.7604
   17MOL    H10 5482   4.303   7.759   3.701 -0.7209  0.6459 -0.6783
   17MOL    H11 5483   4.478   0.055   3.737  2.7480  0.6401 -0.5583
   17MOL    H12 5484   4.539   7.764   3.405 -0.1014 -0.1180 -0.8075
   17MOL    H13 5485   4.564   0.028   3.373 -0.5921 -1.0953 -2.3104
   17MOL    H14 5486   4.767   7.713   3.371  0.2044 -0.1936  0.6278
   17MOL    H15 5487   4.801   7.885   3.341  1.2843 -0.1283  1.7626
   17MOL    H16 5488   4.845   7.728   3.578 -0.5120 -0.4299  0.2501
   17MOL    H17 5489   4.891   7.902   3.551 -0.7716  0.2405  0.4919
   17MOL    H18 5490   4.380   7.728   3.563 -0.1465  1.2206 -0.4044
   17MOL    C19 5491   4.373   0.101   3.563 -0.0848 -0.3415 -0.4059
   17MOL    C20 5492   4.439   0.245   3.549  0.1785  0.0480  0.0738
   17MOL    N21 5493   4.373   0.334   3.445  0.0078  0.0537  0.0797
   17MOL    C22 5494   4.447   0.372   3.321  0.8801  0.5455  0.6693
   17MOL    C23 5495   4.358   0.470   3.254 -1.1841 -0.3346  0.1733
   17MOL    C24 5496   4.218   0.444   3.310  0.2070 -0.0953  0.6503
   17MOL    C25 5497   4.245   0.366   3.439  0.5974  0.1244 -0.7361
   17MOL    O26 5498   4.151   0.330   3.509  0.1229 -0.0689 -0.2834
   17MOL    H27 5499   4.273   0.111   3.606 -0.0745  0.9487 -0.6657
   17MOL    H28 5500   4.350   0.054   3.467 -1.9000 -0.1343 -0.0886
   17MOL    H29 5501   4.541   0.240   3.509 -0.0757  1.0482 -0.7030
   17MOL    H30 5502   4.545   0.418   3.338  0.7286  0.6068  1.4102
   17MOL    H31 5503   4.455   0.281   3.261  1.5847  0.6943  0.5343
   17MOL    H32 5504   4.396   0.564   3.293 -1.4650 -0.1704  0.0568
   17MOL    H33 5505   4.366   0.467   3.146  0.9108 -2.1171  0.3452
   17MOL    H34 5506   4.169   0.540   3.327  1.7473  1.0024 -0.8102
   17MOL    H35 5507   4.153   0.374   3.258 -0.4271  0.8462  0.1705
   17MOL    C36 5508   4.443   0.323   3.692 -0.2260 -0.1042  0.8663
   17MOL    C37 5509   4.586   0.364   3.732  0.0003 -0.1738 -0.2688
   17MOL    N38 5510   4.672   0.424   3.625  0.1658  0.2761 -0.5086
   17MOL    C39 5511   4.801   0.370   3.593  0.1027  0.0766 -0.2623
   17MOL    C40 5512   4.848   0.455   3.476 -0.3108  0.4154 -0.6038
   17MOL    C41 5513   4.760   0.578   3.460  0.8099  0.0410 -0.4286
   17MOL    C42 5514   4.645   0.538   3.548 -0.6506 -1.1754  0.1194
   17MOL    O43 5515   4.539   0.601   3.550 -0.2911  0.2706  0.3253
   17MOL    H44 5516   4.384   0.267   3.765 -1.7464  0.2265 -0.0982
   17MOL    H45 5517   4.384   0.414   3.690  1.4319  0.9760 -1.9242
   17MOL    H46 5518   4.629   0.266   3.753 -2.0098 -0.9317  0.4999
   17MOL    H47 5519   4.875   0.382   3.673  1.1329 -0.5800 -1.1025
   17MOL    H48 5520   4.795   0.262   3.580 -0.6350  0.2036 -1.0075
   17MOL    H49 5521   4.949   0.489   3.498 -1.0388  3.1168 -1.3004
   17MOL    H50 5522   4.862   0.392   3.389 -0.5078 -3.6899  2.1983
   17MOL    H51 5523   4.798   0.667   3.510 -1.2229 -0.4542  2.0910
   17MOL    H52 5524   4.718   0.598   3.361 -1.0002 -1.2719  0.0546
   17MOL    C53 5525   4.607   0.451   3.861 -0.1324  0.2299 -0.2339
   17MOL    C54 5526   4.542   0.393   3.985 -0.0497 -0.5745 -0.1032
   17MOL    N55 5527   4.576   0.249   4.018 -0.1957 -0.1484  0.1289
   17MOL    C56 5528   4.466   0.161   4.047 -0.3552 -0.4837  0.1802
   17MOL    C57 5529   4.525   0.027   4.062  0.2543  0.0950  0.0173
   17MOL    C58 5530   4.676   0.048   4.078 -0.2600  0.8170 -0.1035
   17MOL    C59 5531   4.696   0.192   4.041 -0.1154 -0.2027 -0.3659
   17MOL    O60 5532   4.806   0.252   4.025 -0.0258 -0.3204  0.0406
   17MOL    H61 5533   4.580   0.556   3.854 -1.4655 -0.0651  0.4244
   17MOL    H62 5534   4.712   0.441   3.890 -0.3601 -0.4240  0.3861
   17MOL    H63 5535   4.437   0.395   3.956 -0.8156  3.7875  2.4889
   17MOL    H64 5536   4.428   0.200   4.141  2.3117 -1.1473  1.5891
   17MOL    H65 5537   4.386   0.160   3.973  0.1197 -0.5032 -0.3380
   17MOL    H66 5538   4.468   7.872   4.132 -0.0564  0.6181  0.2243
   17MOL    H67 5539   4.508   7.877   3.970  0.2514  2.1634 -1.2639
   17MOL    H68 5540   4.706   0.018   4.179 -0.8726  0.4337 -0.0341
   17MOL    H69 5541   4.731   7.895   4.004  0.2098 -2.0295  2.4117
   17MOL    C70 5542   4.557   0.490   4.108  0.3985  0.6082 -0.4079
   17MOL    C71 5543   4.431   0.583   4.120  0.2158 -0.3149  0.2347
   17MOL    N72 5544   4.320   0.527   4.197 -0.0860 -0.4703  0.1609
   17MOL    C73 5545   4.185   0.525   4.136 -0.8163 -0.4740  0.0468
   17MOL    C74 5546   4.085   0.468   4.237  0.5181  0.1411 -0.2782
   17MOL    C75 5547   4.174   0.441   4.360 -0.4170 -0.1392  0.4038
   17MOL    C76 5548   4.316   0.475   4.321 -0.2680 -0.1049  0.6089
   17MOL    O77 5549   4.415   0.458   4.388  0.3381 -0.0434 -0.1319
   17MOL    H78 5550   4.652   0.541   4.095  0.1216  0.7735 -1.9589
   17MOL    H79 5551   4.561   0.442   4.206  0.4608  0.6981 -0.3674
   17MOL    H80 5552   4.408   0.604   4.016  2.6021 -0.2461 -0.2994
   17MOL    H81 5553   4.160   0.628   4.108 -2.5695 -1.6451 -2.7996
   17MOL    H82 5554   4.193   0.462   4.048  0.1596  0.8461 -0.8451
   17MOL    H83 5555   4.007   0.545   4.246  1.9429  1.5832  0.0685
   17MOL    H84 5556   4.037   0.386   4.184 -1.2117  1.1008 -0.2388
   17MOL    H85 5557   4.154   0.523   4.430 -1.7546 -0.8504  0.8625
   17MOL    H86 5558   4.159   0.346   4.410  0.0930 -1.6775 -2.2847
   17MOL    C87 5559   4.471   0.722   4.179  0.4932 -0.3211 -0.2324
   17MOL    C88 5560   4.561   0.816   4.099 -0.2242  0.2290 -0.3102
   17MOL    N89 5561   4.516   0.833   3.961  0.2836  0.4289  0.3498
   17MOL    C90 5562   4.619   0.892   3.877  0.2041 -0.1971  0.5247
   17MOL    C91 5563   4.548   0.908   3.736  0.2140  0.1094  0.0780
   17MOL    C92 5564   4.398   0.873   3.759 -0.1612 -0.1611  0.1301
   17MOL    C93 5565   4.395   0.832   3.904 -0.2796  0.1959  0.3887
   17MOL    O94 5566   4.289   0.798   3.958 -0.1913  0.4361  0.4876
   17MOL    H95 5567   4.496   0.711   4.285 -1.1511  0.6335  0.2708
   17MOL    H96 5568   4.374   0.772   4.184  0.6369  0.1624 -1.9051
   17MOL    H97 5569   4.663   0.778   4.099 -0.4661 -0.4497 -1.7186
   17MOL    H98 5570   4.662   0.987   3.910 -0.0231  0.3157 -0.6290
   17MOL    H99 5571   4.701   0.820   3.872 -1.4110 -1.9737 -3.8827
   17MOL   H100 5572   4.567   1.010   3.704 -0.0985  0.1738  0.0991
   17MOL   H101 5573   4.583   0.846   3.653 -1.7639 -2.2246  0.9130
   17MOL   H102 5574   4.337   0.960   3.736 -0.2134 -0.8379 -2.4330
   17MOL   H103 5575   4.361   0.788   3.701  0.1680  0.3706 -0.8534
   17MOL   C104 5576   4.563   0.957   4.177  0.0186  0.6482  0.0421
   17MOL   C105 5577   4.653   0.953   4.304  0.8103 -0.2491  0.6953
   17MOL   N106 5578   4.789   0.914   4.278 -0.1204 -0.2592 -0.0918
   17MOL   C107 5579   4.846   0.809   4.366 -0.5513  0.3654  0.4241
   17MOL   C108 5580   4.988   0.789   4.309 -0.3128  0.6471  0.0127
   17MOL   C109 5581   5.012   0.898   4.208  0.3776  0.3739  1.2536
   17MOL   C110 5582   4.875   0.967   4.195 -0.2003  0.4571 -0.7523
   17MOL   O111 5583   4.850   1.058   4.117  0.2661 -0.6691  0.4339
   17MOL   H112 5584   4.457   0.977   4.193 -0.3272 -2.1403  1.5916
   17MOL   H113 5585   4.605   1.038   4.117  0.3986 -0.1882 -0.8330
   17MOL   H114 5586   4.611   0.888   4.381 -1.7389  0.0876 -0.3563
   17MOL   H115 5587   4.851   0.831   4.473 -0.3650  1.3479  0.2229
   17MOL   H116 5588   4.784   0.721   4.352  1.1074 -0.5589 -1.3495
   17MOL   H117 5589   5.064   0.793   4.388 -0.7948  2.1469  0.4008
   17MOL   H118 5590   4.990   0.690   4.263 -1.7416  0.0375  1.2221
   17MOL   H119 5591   5.050   0.861   4.113 -0.8954  0.2727  0.7597
   17MOL   H120 5592   5.095   0.959   4.241  0.4913  1.0616 -0.2428
   17MOL   C121 5593   4.651   1.095   4.369 -0.2861 -0.4888  0.2338
   17MOL   C122 5594   4.509   1.140   4.424  0.1758 -0.2717  0.0486
   17MOL   N123 5595   4.489   1.065   4.553 -0.1317 -0.6364  0.3810
   17MOL   C124 5596   4.381   0.969   4.562  0.4116 -0.2779  0.1304
   17MOL   C125 5597   4.390   0.907   4.699  0.0576 -0.1337 -0.9109
   17MOL   C126 5598   4.497   0.989   4.773 -0.1038 -0.4010 -0.0250
   17MOL   C127 5599   4.546   1.089   4.673 -0.1945  0.0358  0.6189
   17MOL   O128 5600   4.623   1.181   4.705  0.1197 -0.7633  0.2012
   17MOL   H129 5601   4.696   1.167   4.301 -0.1897 -1.1622 -0.4284
   17MOL   H130 5602   4.724   1.101   4.450  0.5956 -0.1883 -0.5787
   17MOL   H131 5603   4.432   1.101   4.357  0.9651 -0.8436 -0.5427
   17MOL   H132 5604   4.384   0.904   4.474  2.0137 -0.6091  0.4130
   17MOL   H133 5605   4.290   1.023   4.536  0.5602 -0.6593 -1.2296
   17MOL   H134 5606   4.293   0.907   4.748  0.0993 -2.5611 -0.7623
   17MOL   H135 5607   4.437   0.809   4.688  0.4894  0.0169 -0.4424
   17MOL   H136 5608   4.454   1.037   4.862  2.9393  0.3449  1.1110
   17MOL   H137 5609   4.585   0.931   4.800  0.2487 -0.1071 -0.5512
   17MOL   C138 5610   4.513   1.299   4.433  0.4886  0.5741  0.3097
   17MOL   C139 5611   4.388   1.354   4.522 -0.0515 -0.5862 -0.2967
   17MOL   N140 5612   4.412   1.497   4.551 -0.0393 -0.8602 -0.3009
   17MOL   C141 5613   4.441   1.544   4.683  0.4375 -0.4844 -0.3223
   17MOL   C142 5614   4.430   1.695   4.672  0.4244  0.4591  0.3451
   17MOL   C143 5615   4.439   1.728   4.526  0.0245 -0.3585 -0.0623
   17MOL   C144 5616   4.423   1.591   4.460 -0.4441 -0.3767  0.0962
   17MOL   O145 5617   4.418   1.571   4.341 -0.0664  0.1038  0.3149
   17MOL   H146 5618   4.525   1.332   4.330  0.1828 -0.6352 -0.1285
   17MOL   H147 5619   4.604   1.331   4.483  1.5190 -1.6857 -0.0256
   17MOL   H148 5620   4.410   1.303   4.616 -0.7176  1.2701  0.8913
   17MOL   H149 5621   4.367   1.509   4.755  1.0852  0.0738  0.6285
   17MOL   H150 5622   4.540   1.516   4.720  1.0877  1.5455 -0.4587
   17MOL   H151 5623   4.333   1.726   4.713  0.5378  0.5910  0.5144
   17MOL   H152 5624   4.500   1.752   4.732  0.1661  1.4933 -0.3201
   17MOL   H153 5625   4.533   1.769   4.488  0.6017 -1.9358 -0.3980
   17MOL   H154 5626   4.354   1.783   4.486 -0.0748 -3.5051 -4.6319
   17MOL   C155 5627   4.245   1.318   4.469 -0.3063  0.4744  0.4859
   17MOL   C156 5628   4.126   1.346   4.565  0.1782  0.0235 -0.7192
   17MOL   N157 5629   4.001   1.363   4.495  0.0479  0.1934  0.2980
   17MOL   C158 5630   3.946   1.495   4.475  0.1467 -0.0459 -0.0125
   17MOL   C159 5631   3.798   1.468   4.464 -0.3389  0.8640 -0.0457
   17MOL   C160 5632   3.783   1.322   4.435 -0.1531  0.8287 -0.1923
   17MOL   C161 5633   3.916   1.263   4.469  0.0665  0.4715  0.0201
   17MOL   O162 5634   3.936   1.142   4.484 -0.1696  0.1183  0.3595
   17MOL   H163 5635   4.251   1.212   4.443 -1.3354  0.1759  1.4303
   17MOL   H164 5636   4.232   1.364   4.371 -0.7679 -1.4835 -0.4099
   17MOL   H165 5637   4.146   1.439   4.618 -1.0482 -0.9873  1.5940
   17MOL   H166 5638   3.978   1.570   4.547 -0.4365 -0.8870  1.1417
   17MOL   H167 5639   3.983   1.526   4.377 -1.4206 -0.5882 -0.7984
   17MOL   H168 5640   3.749   1.493   4.558 -0.5718  0.6371 -0.1064
   17MOL   H169 5641   3.740   1.517   4.385  1.5411 -0.7822 -2.4989
   17MOL   H170 5642   3.696   1.278   4.483 -0.6031  0.4334 -1.3687
   17MOL   H171 5643   3.769   1.311   4.327  0.1018  0.2345 -0.1683
   17MOL   C172 5644   4.128   1.249   4.682 -0.2390  0.7635 -0.3409
   17MOL   C173 5645   4.020   1.282   4.788 -0.1648 -0.1855 -0.4045
   17MOL   N174 5646   3.993   1.159   4.863 -0.5177 -0.1122 -0.2835
   17MOL   C175 5647   3.873   1.080   4.827  0.2130  0.6854 -0.2235
   17MOL   C176 5648   3.880   0.956   4.914  0.3103 -0.7135  0.4510
   17MOL   C177 5649   4.030   0.950   4.967 -0.5720 -0.8631 -0.0783
   17MOL   C178 5650   4.078   1.092   4.940 -0.0889 -0.0201  0.7684
   17MOL   O179 5651   4.186   1.137   4.978 -0.2084 -0.1909  0.0384
   17MOL   H180 5652   4.227   1.253   4.728 -0.5315  0.7593  0.2973
   17MOL   H181 5653   4.124   1.142   4.661  3.4141  0.6876 -0.8870
   17MOL   H182 5654   3.926   1.294   4.732 -0.9238 -2.6498  0.3015
   17MOL   H183 5655   3.782   1.139   4.840  0.6134  1.0782  0.8860
   17MOL   H184 5656   3.882   1.051   4.723  1.5247  0.3315 -0.0157
   17MOL   H185 5657   3.849   0.867   4.859 -1.5092 -0.2937  0.7625
   17MOL   H186 5658   3.816   0.971   5.001 -0.2497 -1.3359  0.1512
   17MOL   H187 5659   4.025   0.920   5.072  1.2160  1.0446  0.5958
   17MOL   H188 5660   4.080   0.887   4.893 -0.8489  0.3096 -1.2566
   17MOL   C189 5661   4.052   1.404   4.879 -0.0179  0.3035  0.2290
   17MOL   C190 5662   3.933   1.454   4.963  0.1291  0.3947  0.6700
   17MOL   N191 5663   3.981   1.541   5.070 -0.1936  0.4514  0.6015
   17MOL   C192 5664   4.015   1.492   5.205  0.4605  0.2046 -0.0666
   17MOL   C193 5665   4.088   1.605   5.275  0.5336 -0.4579  0.6577
   17MOL   C194 5666   4.083   1.726   5.178 -0.3027  0.3883  1.0497
   17MOL   C195 5667   4.005   1.674   5.052 -0.3927  0.2202  0.0565
   17MOL   O196 5668   3.993   1.748   4.954  0.2483  0.3241  0.4326
   17MOL   H197 5669   4.106   1.486   4.831 -0.9215  0.0201 -1.2919
   17MOL   H198 5670   4.129   1.369   4.947  0.2482 -1.3895 -0.9124
   17MOL   H199 5671   3.888   1.368   5.012  0.5936 -0.8021 -0.9707
   17MOL   H200 5672   3.919   1.458   5.245 -1.4262 -0.4284 -4.8405
   17MOL   H201 5673   4.071   1.399   5.207  0.1213  0.0177  1.9309
   17MOL   H202 5674   4.041   1.650   5.363  0.8438  1.4501 -0.1219
   17MOL   H203 5675   4.191   1.580   5.303  1.1188  0.1750 -0.8626
   17MOL   H204 5676   4.032   1.815   5.215  0.6107 -0.4538  4.4788
   17MOL   H205 5677   4.183   1.755   5.147 -0.2670  0.1561  0.9420
   17MOL   C206 5678   3.821   1.509   4.878  0.2300  0.2048 -0.3069
   17MOL   C207 5679   3.687   1.539   4.950  0.3466 -0.1401  0.4083
   17MOL   N208 5680   3.672   1.688   4.970 -0.3019  0.5784 -0.1263
   17MOL   C209 5681   3.643   1.730   5.105  0.3474  0.8749 -0.1343
   17MOL   C210 5682   3.642   1.883   5.094 -0.0249  0.6834 -0.0559
   17MOL   C211 5683   3.637   1.924   4.945 -0.5227 -0.5389  0.4591
   17MOL   C212 5684   3.657   1.789   4.878  0.1362 -0.5326 -0.0924
   17MOL   O213 5685   3.663   1.776   4.758  0.0777  0.1573 -0.3698
   17MOL   H214 5686   3.803   1.448   4.789  0.1731  2.4224 -1.8493
   17MOL   H215 5687   3.853   1.600   4.828  1.0906  0.6308  1.0111
   17MOL   H216 5688   3.681   1.486   5.045 -1.4185 -0.2361  0.2528
   17MOL   H217 5689   3.547   1.687   5.134 -0.4426  0.3201 -3.3577
   17MOL   H218 5690   3.719   1.691   5.172 -1.6767 -1.5375  0.8757
   17MOL   H219 5691   3.554   1.927   5.143 -0.8837 -0.4604 -0.5468
   17MOL   H220 5692   3.735   1.923   5.134 -0.0129  1.3874 -0.7755
   17MOL   H221 5693   3.542   1.968   4.913 -1.2033 -1.3323  1.3464
   17MOL   H222 5694   3.715   1.998   4.928  0.6651 -1.9836 -0.4729
   17MOL   C223 5695   3.564   1.490   4.860 -0.8144 -0.0179 -0.3272
   17MOL   C224 5696   3.420   1.520   4.918 -0.2252 -0.5367  0.0809
   17MOL   N225 5697   3.331   1.523   4.801 -0.4129  0.3551 -0.0684
   17MOL   C226 5698   3.292   1.653   4.751  0.4828  0.7089  0.2567
   17MOL   C227 5699   3.211   1.615   4.625 -0.3482 -0.1659  0.2337
   17MOL   C228 5700   3.210   1.466   4.602 -0.1685  0.3287  0.0876
   17MOL   C229 5701   3.299   1.414   4.719  0.1381 -0.6531 -0.1599
   17MOL   O230 5702   3.339   1.294   4.728  0.3571 -0.1458 -0.2265
   17MOL   H231 5703   3.579   1.382   4.851 -1.0693 -0.2871  2.1062
   17MOL   H232 5704   3.574   1.537   4.762 -0.7359 -0.9240 -0.7613
   17MOL   H233 5705   3.429   1.622   4.955 -2.8247 -0.2404 -0.0156
   17MOL   H234 5706   3.227   1.706   4.821 -0.4010 -2.3535  1.8319
   17MOL   H235 5707   3.383   1.710   4.735  1.0360  0.4642  2.3775
   17MOL   H236 5708   3.115   1.667   4.631 -1.0145 -1.3820  0.1966
   17MOL   H237 5709   3.270   1.661   4.545  0.1559 -0.2589  0.5468
   17MOL   H238 5710   3.109   1.428   4.609 -0.2825  0.9476  2.0004
   17MOL   H239 5711   3.248   1.444   4.502 -0.4852 -3.0336  0.6695
   17MOL   C240 5712   3.368   1.422   5.024 -0.3323  0.1267  0.6288
   17MOL   C241 5713   3.271   1.473   5.123  0.1002 -0.0655 -0.0605
   17MOL   N242 5714   3.154   1.530   5.057  0.0095 -0.2912  0.2741
   17MOL   C243 5715   3.126   1.664   5.094 -0.2037 -0.0078  0.4059
   17MOL   C244 5716   2.987   1.703   5.035  0.6099  0.6305  0.1748
   17MOL   C245 5717   2.940   1.575   4.965  1.2451  0.6573  0.2098
   17MOL   C246 5718   3.045   1.472   5.005  0.1617 -0.3978 -0.0299
   17MOL   O247 5719   3.025   1.353   4.987  0.2120  0.0458  0.0453
   17MOL   H248 5720   3.458   1.392   5.077 -0.8814 -3.0285 -0.1118
   17MOL   H249 5721   3.325   1.332   4.979 -2.5667  0.9628  1.0393
   17MOL   H250 5722   3.318   1.557   5.174  1.0155 -1.1298  0.8700
   17MOL   H251 5723   3.121   1.689   5.200  0.2656 -3.0933  1.1854
   17MOL   H252 5724   3.192   1.736   5.045 -0.8672 -0.4649 -1.1879
   17MOL   H253 5725   2.915   1.738   5.109  2.6476  1.5089  1.7859
   17MOL   H254 5726   2.999   1.785   4.965 -0.2585 -0.0092 -0.7548
   17MOL   H255 5727   2.839   1.549   4.996 -0.0188  3.2981 -1.4845
   17MOL   H256 5728   2.929   1.584   4.857  1.8493 -0.8322  0.0174
   17MOL   C257 5729   3.226   1.378   5.230 -0.4019  0.6519 -0.3367
   17MOL   C258 5730   3.327   1.357   5.344 -0.5299  0.3690  0.0517
   17MOL   N259 5731   3.406   1.471   5.402 -0.0645 -0.5936 -0.5214
   17MOL   C260 5732   3.340   1.584   5.466 -0.4548 -0.6246 -0.3573
   17MOL   C261 5733   3.461   1.658   5.534 -0.5787 -0.3315 -0.3380
   17MOL   C262 5734   3.586   1.609   5.464  0.3491 -0.4329  0.1791
   17MOL   C263 5735   3.542   1.487   5.390 -0.4011  0.5813 -0.4029
   17MOL   O264 5736   3.629   1.399   5.352  0.2532 -0.4064 -0.3018
   17MOL   H265 5737   3.188   1.286   5.187 -3.0630  0.4380  2.2879
   17MOL   H266 5738   3.142   1.426   5.282  0.0673  1.7409 -0.5673
   17MOL   H267 5739   3.403   1.296   5.296  1.0457  2.0938  0.3088
   17MOL   H268 5740   3.282   1.647   5.398 -0.0992 -1.9909 -1.9687
   17MOL   H269 5741   3.267   1.556   5.541 -1.4850 -1.3046 -1.5918
   17MOL   H270 5742   3.450   1.766   5.526 -2.0959 -0.3819  0.7972
   17MOL   H271 5743   3.463   1.619   5.636  0.4761 -0.3355 -0.3555
   17MOL   H272 5744   3.627   1.689   5.403  0.5489  0.3838  1.3540
   17MOL   H273 5745   3.673   1.593   5.528  0.3591  1.3141  0.6284
   17MOL   C274 5746   3.264   1.273   5.460  0.5143  0.3954 -0.3517
   17MOL   C275 5747   3.379   1.220   5.557 -0.0326 -0.3331 -0.3988
   17MOL   N276 5748   3.406   1.308   5.671  0.3468 -0.2581  0.8704
   17MOL   C277 5749   3.543   1.315   5.713  0.6832  0.0390 -0.9640
   17MOL   C278 5750   3.546   1.401   5.836 -0.0456  0.1452  1.5444
   17MOL   C279 5751   3.396   1.435   5.864  0.1113  1.0001 -0.5564
   17MOL   C280 5752   3.322   1.369   5.750  0.1824 -1.0493 -0.0321
   17MOL   O281 5753   3.201   1.357   5.751 -0.1730  0.9545  0.1236
   17MOL   H282 5754   3.220   1.188   5.409 -1.2225  1.8252 -1.3094
   17MOL   H283 5755   3.183   1.328   5.508  1.4287  2.5158 -1.1629
   17MOL   H284 5756   3.473   1.214   5.502 -0.0313 -1.0468 -0.3200
   17MOL   H285 5757   3.598   1.224   5.735  0.2250  0.0635  0.3811
   17MOL   H286 5758   3.603   1.348   5.629  3.8126  0.1239  1.2208
   17MOL   H287 5759   3.590   1.332   5.909  1.7906  2.0164  2.2588
   17MOL   H288 5760   3.610   1.489   5.828  0.2456 -0.1683  0.3341
   17MOL   H289 5761   3.358   1.382   5.951  2.0597 -0.0677 -0.3187
   17MOL   H290 5762   3.381   1.541   5.880 -1.4123  0.8900 -1.1515
   17MOL   C291 5763   3.343   1.081   5.619 -0.0122 -0.5975 -0.1832
   17MOL   C292 5764   3.336   0.957   5.520  0.5178 -0.5362  0.0433
   17MOL   N293 5765   3.462   0.951   5.441 -0.1300 -0.1437 -0.5171
   17MOL   C294 5766   3.467   0.979   5.302  0.2252  0.4010 -0.0516
   17MOL   C295 5767   3.612   0.975   5.259 -0.5944  0.0267 -0.4145
   17MOL   C296 5768   3.695   0.945   5.380  0.1095 -0.2113  0.0332
   17MOL   C297 5769   3.589   0.924   5.486 -0.9986 -0.7648 -0.1606
   17MOL   O298 5770   3.618   0.906   5.603 -0.1141  0.8141 -0.3562
   17MOL   H299 5771   3.253   1.087   5.681  0.3193 -1.4287  0.3868
   17MOL   H300 5772   3.415   1.059   5.697 -0.0041  0.5881  0.1506
   17MOL   H301 5773   3.251   0.961   5.451 -1.4851 -0.0432  2.4440
   17MOL   H302 5774   3.404   0.914   5.242 -1.4090  0.3402  1.6932
   17MOL   H303 5775   3.427   1.077   5.277 -2.0563 -1.0840 -2.5128
   17MOL   H304 5776   3.631   0.904   5.178 -0.4454 -1.1868  0.6643
   17MOL   H305 5777   3.640   1.076   5.230  1.3041 -0.2275  0.4679
   17MOL   H306 5778   3.752   0.852   5.381  0.5934  0.0885  0.8116
   17MOL   H307 5779   3.762   1.030   5.399  0.0371  0.3212 -1.9388
   17MOL   C308 5780   3.310   0.826   5.604 -0.8800  0.4176 -0.7850
   17MOL   C309 5781   3.180   0.820   5.691  0.2435  0.3254 -0.3455
   17MOL   N310 5782   3.063   0.836   5.605 -0.5029  0.4585 -0.1681
   17MOL   C311 5783   2.984   0.963   5.609  1.0347  0.3334  0.5276
   17MOL   C312 5784   2.847   0.929   5.549 -0.3196 -0.6523 -0.0841
   17MOL   C313 5785   2.849   0.780   5.511 -0.0033  0.6244  0.1451
   17MOL   C314 5786   2.991   0.740   5.542 -0.1312 -0.9343  0.6085
   17MOL   O315 5787   3.028   0.622   5.506 -0.5262  0.3504  0.3210
   17MOL   H316 5788   3.402   0.803   5.658 -0.8683 -0.3886 -1.1357
   17MOL   H317 5789   3.304   0.747   5.529  0.6075 -1.1282  0.6660
   17MOL   H318 5790   3.178   0.901   5.764 -1.0236 -1.6906  1.9358
   17MOL   H319 5791   2.968   0.979   5.715 -1.0343 -3.3693  0.8512
   17MOL   H320 5792   3.023   1.056   5.568 -0.8133  0.7352 -0.3606
   17MOL   H321 5793   2.763   0.963   5.611  1.2947  0.9417  1.2797
   17MOL   H322 5794   2.828   0.988   5.459 -1.3603 -0.6124  0.1448
   17MOL   H323 5795   2.782   0.718   5.571  0.7856 -0.3656  0.0189
   17MOL   H324 5796   2.824   0.779   5.405  1.9950 -0.8813 -0.3360
   17MOL   C325 5797   3.177   0.681   5.774 -0.3662  0.2862 -0.6171
   17MOL   C326 5798   3.287   0.671   5.881 -0.0396  0.3197 -0.5005
   17MOL   N327 5799   3.321   0.537   5.933  0.8134  0.0453 -0.5000
   17MOL   C328 5800   3.228   0.475   6.021 -0.2833 -0.1996 -0.1591
   17MOL   C329 5801   3.295   0.339   6.052 -0.7703 -0.5462  0.1460
   17MOL   C330 5802   3.435   0.339   5.990 -0.2128 -0.3735  0.2452
   17MOL   C331 5803   3.440   0.471   5.916  0.5094 -0.4434  0.2878
   17MOL   O332 5804   3.544   0.519   5.863 -0.4868  0.1856  0.0824
   17MOL   H333 5805   3.183   0.599   5.702  0.9317 -0.6150  0.4840
   17MOL   H334 5806   3.085   0.655   5.825  0.8127 -3.3396 -0.1277
   17MOL   H335 5807   3.267   0.723   5.975  1.8947  0.6440 -0.2440
   17MOL   H336 5808   3.224   0.538   6.111  0.6248 -1.7943  1.0295
   17MOL   H337 5809   3.123   0.464   5.994  0.1937 -3.0543 -0.9543
   17MOL   H338 5810   3.293   0.312   6.158 -0.2297  0.9529  0.5611
   17MOL   H339 5811   3.248   0.256   6.000 -0.7910 -2.8632  3.6922
   17MOL   H340 5812   3.510   0.355   6.068  2.4038 -2.5039 -1.7444
   17MOL   H341 5813   3.455   0.244   5.941  1.0442 -0.0446  0.0904
   17MOL   H342 5814   3.383   0.704   5.841  0.5289 -1.1669 -0.4304
   18MOL     C1 5815   4.275   3.688   3.466  0.2219  0.3586 -0.0193
   18MOL     C2 5816   4.201   3.827   3.463  0.0481 -0.8816  0.4974
   18MOL     N3 5817   4.175   3.863   3.321 -0.4915 -0.7839 -0.0313
   18MOL     C4 5818   4.275   3.949   3.254  0.0025 -0.1105 -1.0173
   18MOL     C5 5819   4.220   3.963   3.110  0.2131 -0.4615 -0.1097
   18MOL     C6 5820   4.107   3.863   3.101 -0.0939 -0.7669 -0.7097
   18MOL     C7 5821   4.077   3.815   3.240 -0.7642  0.6192 -0.1394
   18MOL     O8 5822   3.977   3.746   3.271 -0.4713  0.4945 -0.4287
   18MOL     H9 5823   4.325   3.665   3.560  0.4354  0.4068 -0.1196
   18MOL    H10 5824   4.213   3.606   3.429  0.1626  0.0837  0.6825
   18MOL    H11 5825   4.263   3.906   3.504  1.1567 -1.3075 -0.3325
   18MOL    H12 5826   4.275   4.051   3.292 -0.0861 -1.0284  1.5306
   18MOL    H13 5827   4.374   3.906   3.273 -1.1337 -1.7908  1.4206
   18MOL    H14 5828   4.179   4.064   3.101 -0.1465 -0.7040 -1.2819
   18MOL    H15 5829   4.297   3.953   3.033 -0.0992  0.8230 -0.5971
   18MOL    H16 5830   4.014   3.906   3.064 -0.8690 -1.3790  0.4914
   18MOL    H17 5831   4.139   3.780   3.038  0.0141  0.0041 -1.6796
   18MOL    H18 5832   4.350   3.687   3.387  2.5445  0.9788  2.1300
   18MOL    C19 5833   4.069   3.831   3.547  0.2242 -0.3196  0.8149
   18MOL    C20 5834   4.095   3.849   3.702 -0.2685 -0.0338 -0.1191
   18MOL    N21 5835   4.189   3.951   3.754 -0.2638 -0.1165 -0.6066
   18MOL    C22 5836   4.313   3.902   3.805 -1.2054  0.1144 -0.3756
   18MOL    C23 5837   4.367   4.012   3.895  0.0856  0.7337  0.5353
   18MOL    C24 5838   4.278   4.138   3.868  0.6633 -0.7459 -0.0527
   18MOL    C25 5839   4.159   4.074   3.799  0.0395  0.5733  0.2191
   18MOL    O26 5840   4.055   4.132   3.788  0.5559 -0.4261 -0.5035
   18MOL    H27 5841   4.009   3.742   3.526 -0.3864 -0.2830  2.3515
   18MOL    H28 5842   4.008   3.914   3.510  1.4583 -0.0650 -0.6735
   18MOL    H29 5843   4.132   3.752   3.733 -0.3431  0.1690  0.6180
   18MOL    H30 5844   4.307   3.810   3.863  4.2505  0.1141  0.4493
   18MOL    H31 5845   4.375   3.899   3.715 -0.3081  1.3263  0.1869
   18MOL    H32 5846   4.341   3.974   3.994  1.0793 -0.8074  0.2158
   18MOL    H33 5847   4.474   4.026   3.907  0.0621  0.2833  1.2986
   18MOL    H34 5848   4.245   4.173   3.966  1.7936  0.6130 -0.1537
   18MOL    H35 5849   4.319   4.224   3.816 -0.3552  0.2765  0.8226
   18MOL    C36 5850   3.956   3.858   3.769  0.4832  0.7164  0.1045
   18MOL    C37 5851   3.946   3.855   3.922 -0.0196  0.3676  0.0578
   18MOL    N38 5852   3.805   3.847   3.960  0.3919 -0.3923  0.2515
   18MOL    C39 5853   3.748   3.958   4.035 -0.2030 -0.6460  0.4864
   18MOL    C40 5854   3.605   3.919   4.066 -0.3943 -0.2873  0.4531
   18MOL    C41 5855   3.581   3.784   3.994  0.0858  0.2932  0.4466
   18MOL    C42 5856   3.719   3.747   3.939 -0.1604  0.0260  1.2206
   18MOL    O43 5857   3.739   3.647   3.868 -0.4035 -0.2032 -0.2941
   18MOL    H44 5858   3.898   3.775   3.727  0.5742  1.1051 -0.8083
   18MOL    H45 5859   3.901   3.940   3.722  2.3589  2.4936  0.9482
   18MOL    H46 5860   3.993   3.945   3.961 -1.0368  1.4262 -1.1100
   18MOL    H47 5861   3.812   3.984   4.119 -0.3098 -0.0285  0.3784
   18MOL    H48 5862   3.754   4.046   3.970 -2.4472 -1.9412 -1.5909
   18MOL    H49 5863   3.574   3.914   4.170 -0.8940  2.0991  0.4465
   18MOL    H50 5864   3.532   3.993   4.036 -0.0703  1.2878  3.3656
   18MOL    H51 5865   3.546   3.703   4.059 -0.4825 -0.4150 -0.7076
   18MOL    H52 5866   3.501   3.779   3.921  0.0665 -0.4981  0.5094
   18MOL    C53 5867   4.016   3.731   3.995 -0.4654  0.7414  0.6410
   18MOL    C54 5868   4.012   3.709   4.141  0.4279 -0.3115  0.1952
   18MOL    N55 5869   3.890   3.645   4.194  0.0533  0.0465 -0.1732
   18MOL    C56 5870   3.847   3.508   4.151  0.2329  0.7174 -0.7725
   18MOL    C57 5871   3.712   3.486   4.207  0.0846 -0.2885 -0.0630
   18MOL    C58 5872   3.686   3.612   4.292  0.3186  0.3805  0.3843
   18MOL    C59 5873   3.804   3.705   4.274  0.3404  0.2567  1.3046
   18MOL    O60 5874   3.810   3.819   4.318 -0.3891 -0.0168 -0.5038
   18MOL    H61 5875   4.121   3.744   3.968 -1.2586  2.0120 -2.0001
   18MOL    H62 5876   3.994   3.638   3.941 -0.5285  0.6404  0.8384
   18MOL    H63 5877   4.017   3.811   4.178 -2.8615 -0.3385  0.8515
   18MOL    H64 5878   3.850   3.506   4.042  3.4182  0.1314 -0.6977
   18MOL    H65 5879   3.924   3.437   4.180 -1.7854 -1.3646 -0.3279
   18MOL    H66 5880   3.641   3.483   4.124  0.6121  0.0776 -0.5324
   18MOL    H67 5881   3.714   3.397   4.269 -0.5162  0.7057  1.4371
   18MOL    H68 5882   3.582   3.641   4.274  0.6299  1.3487  0.1649
   18MOL    H69 5883   3.684   3.591   4.399  1.9050 -1.3756  0.0915
   18MOL    C70 5884   4.138   3.630   4.188  0.0532 -0.2674 -0.9290
   18MOL    C71 5885   4.270   3.710   4.208 -0.0951 -0.1513 -0.0293
   18MOL    N72 5886   4.250   3.820   4.306  0.3661  0.4297 -0.0509
   18MOL    C73 5887   4.257   3.960   4.262 -0.0345 -0.6674 -0.0920
   18MOL    C74 5888   4.243   4.041   4.397 -0.0616 -0.4791 -0.3271
   18MOL    C75 5889   4.193   3.938   4.497  0.2710  0.3893  0.4520
   18MOL    C76 5890   4.214   3.807   4.432 -0.5181 -0.2585 -0.2020
   18MOL    O77 5891   4.187   3.706   4.498  0.6694 -0.3730 -0.4999
   18MOL    H78 5892   4.150   3.547   4.118 -2.8357 -0.9739 -0.6366
   18MOL    H79 5893   4.102   3.587   4.282 -0.1136  1.7350 -0.0505
   18MOL    H80 5894   4.304   3.753   4.115 -1.1582 -1.4038 -1.0338
   18MOL    H81 5895   4.351   3.981   4.211  0.9819 -0.9122  1.6120
   18MOL    H82 5896   4.163   3.978   4.210  0.7039  3.0958 -0.2629
   18MOL    H83 5897   4.342   4.071   4.431 -1.8404  3.4566  1.7954
   18MOL    H84 5898   4.168   4.120   4.387  1.1765  0.7670  0.0760
   18MOL    H85 5899   4.257   3.940   4.585  0.3823 -0.3985  0.3931
   18MOL    H86 5900   4.089   3.952   4.528  0.1483 -2.9693  1.7636
   18MOL    C87 5901   4.379   3.612   4.249  0.4430 -0.7029 -0.6325
   18MOL    C88 5902   4.503   3.673   4.316 -1.2908  0.1556 -0.7591
   18MOL    N89 5903   4.576   3.564   4.384  0.3832  0.1767  0.2655
   18MOL    C90 5904   4.551   3.520   4.522 -0.5175 -0.2671  0.4218
   18MOL    C91 5905   4.584   3.376   4.527  0.1914 -0.2748 -0.2317
   18MOL    C92 5906   4.681   3.358   4.412  1.0231  0.0158 -0.6310
   18MOL    C93 5907   4.659   3.473   4.324  0.1949 -0.0041 -0.0364
   18MOL    O94 5908   4.709   3.481   4.212  0.1785 -0.0836  0.2550
   18MOL    H95 5909   4.410   3.548   4.167 -0.5167 -1.7171 -0.2118
   18MOL    H96 5910   4.331   3.548   4.323 -1.0214  0.4187 -0.5776
   18MOL    H97 5911   4.470   3.723   4.407 -0.2498 -0.1774 -0.1898
   18MOL    H98 5912   4.618   3.576   4.587  1.3460  0.3314 -1.9759
   18MOL    H99 5913   4.448   3.537   4.554 -1.0839  2.3056 -2.6196
   18MOL   H100 5914   4.633   3.353   4.622  1.9203 -2.2073 -1.5468
   18MOL   H101 5915   4.493   3.316   4.519 -3.1016  3.8694  3.5867
   18MOL   H102 5916   4.784   3.362   4.446  1.0902  3.9819 -1.1216
   18MOL   H103 5917   4.668   3.259   4.368  1.5694 -0.4325  0.2126
   18MOL   C104 5918   4.586   3.756   4.215 -0.4043 -1.2411  0.0839
   18MOL   C105 5919   4.712   3.818   4.269 -0.3841 -0.3835 -0.4862
   18MOL   N106 5920   4.812   3.835   4.157  0.0139 -0.2785  0.2670
   18MOL   C107 5921   4.938   3.758   4.159  0.2008  0.3341  0.3027
   18MOL   C108 5922   5.031   3.825   4.067 -0.8954  0.2492  0.2824
   18MOL   C109 5923   4.938   3.931   3.990  0.5573  0.1589 -0.3611
   18MOL   C110 5924   4.809   3.931   4.066 -0.4073 -0.0184 -0.7562
   18MOL   O111 5925   4.724   4.020   4.056 -0.0941 -0.4064 -0.9559
   18MOL   H112 5926   4.542   3.840   4.162  2.9308 -0.2597 -1.2820
   18MOL   H113 5927   4.614   3.689   4.135  0.1814 -2.0698  0.9718
   18MOL   H114 5928   4.755   3.738   4.330  2.1035  1.3627  0.1310
   18MOL   H115 5929   4.974   3.749   4.262 -0.6956 -0.1624  0.5811
   18MOL   H116 5930   4.912   3.657   4.129 -1.0954  0.6631  0.2673
   18MOL   H117 5931   5.115   3.865   4.123  0.1090  0.9984 -1.7200
   18MOL   H118 5932   5.079   3.758   3.996  1.1807 -1.0318  2.7903
   18MOL   H119 5933   4.905   3.904   3.890  1.7420 -1.1131 -0.4386
   18MOL   H120 5934   4.991   4.026   3.985  0.1736  0.3275 -1.2359
   18MOL   C121 5935   4.693   3.939   4.366 -0.1731 -0.2309 -0.1644
   18MOL   C122 5936   4.819   4.023   4.403 -0.1874  0.5972 -0.3282
   18MOL   N123 5937   4.781   4.161   4.427  0.0783  0.6506  0.2024
   18MOL   C124 5938   4.819   4.259   4.327 -0.1559 -0.7818  0.2782
   18MOL   C125 5939   4.762   4.395   4.376  0.5444  0.3755 -0.1162
   18MOL   C126 5940   4.716   4.370   4.514  0.4888 -0.1278 -0.2905
   18MOL   C127 5941   4.720   4.219   4.526 -0.4449  0.5971 -0.4231
   18MOL   O128 5942   4.662   4.169   4.627 -0.0216 -0.4108  0.4432
   18MOL   H129 5943   4.645   3.902   4.456 -1.5972 -2.0714 -1.6395
   18MOL   H130 5944   4.628   4.008   4.312  2.1697  2.4080  0.3083
   18MOL   H131 5945   4.902   4.027   4.332 -0.1421  0.0766 -0.3059
   18MOL   H132 5946   4.771   4.250   4.229  1.0974 -2.5207 -0.1838
   18MOL   H133 5947   4.927   4.271   4.324 -0.3331  1.2582  1.1120
   18MOL   H134 5948   4.829   4.480   4.364  1.0270 -0.0321 -0.3424
   18MOL   H135 5949   4.670   4.419   4.323 -1.0132 -0.8688  1.9430
   18MOL   H136 5950   4.784   4.411   4.588  1.6652 -0.1567 -1.3551
   18MOL   H137 5951   4.613   4.398   4.536  0.2229 -1.1177 -0.2514
   18MOL   C138 5952   4.887   3.967   4.526  0.0915  0.1647  0.3839
   18MOL   C139 5953   5.016   4.036   4.571 -0.6878  0.0544 -0.6442
   18MOL   N140 5954   5.031   4.039   4.721  0.5682 -0.1069 -0.3981
   18MOL   C141 5955   5.044   4.172   4.789 -0.2587 -0.2086 -0.4121
   18MOL   C142 5956   5.082   4.131   4.926 -0.1244  0.1119 -0.3681
   18MOL   C143 5957   5.073   3.982   4.943  0.0404  0.2064  0.2103
   18MOL   C144 5958   5.026   3.936   4.804  0.4128  0.5703 -0.4237
   18MOL   O145 5959   5.010   3.821   4.775 -0.2132  0.2717 -0.5253
   18MOL   H146 5960   4.914   3.864   4.503 -2.0977 -0.6412  1.2895
   18MOL   H147 5961   4.812   3.967   4.605  2.2824  1.8485  2.5292
   18MOL   H148 5962   5.005   4.140   4.543 -0.4555  1.0888  2.9079
   18MOL   H149 5963   5.118   4.241   4.750 -0.8202  0.3033 -0.5844
   18MOL   H150 5964   4.951   4.228   4.782  0.0480  0.2677 -0.6382
   18MOL   H151 5965   5.174   4.181   4.959 -1.1833  3.0045 -1.5865
   18MOL   H152 5966   5.012   4.180   4.993 -1.5074 -0.4799 -1.3687
   18MOL   H153 5967   5.008   3.954   5.026 -0.3462  0.3889 -0.0254
   18MOL   H154 5968   5.172   3.946   4.971 -0.0912 -2.1720 -2.1743
   18MOL   C155 5969   5.142   3.973   4.492  1.0809  0.1261  0.2002
   18MOL   C156 5970   5.280   4.032   4.523 -0.1742  0.7709  0.6328
   18MOL   N157 5971   5.380   3.927   4.519 -0.3208  0.4211 -0.0539
   18MOL   C158 5972   5.431   3.878   4.648  0.6491 -0.0979  0.2431
   18MOL   C159 5973   5.507   3.749   4.610  0.1595  0.7343  0.4048
   18MOL   C160 5974   5.507   3.735   4.456 -0.1715  0.3323  0.1710
   18MOL   C161 5975   5.404   3.842   4.414 -0.9177  0.0623  0.2439
   18MOL   O162 5976   5.364   3.855   4.296  0.4528 -0.5519  0.0759
   18MOL   H163 5977   5.125   3.982   4.384  1.2267 -0.6090  0.1157
   18MOL   H164 5978   5.139   3.866   4.512 -1.5696  0.0937 -0.1647
   18MOL   H165 5979   5.266   4.048   4.630 -1.0604 -0.1916  0.6703
   18MOL   H166 5980   5.490   3.955   4.697  1.3464 -0.5879  0.1716
   18MOL   H167 5981   5.345   3.855   4.711  0.3494 -1.8803 -0.7812
   18MOL   H168 5982   5.605   3.729   4.653  0.3964 -1.8877 -1.2760
   18MOL   H169 5983   5.446   3.666   4.645  2.5864 -1.2446  0.1024
   18MOL   H170 5984   5.598   3.785   4.422  0.2792  0.0128  0.9006
   18MOL   H171 5985   5.486   3.635   4.418  1.3758  0.1637 -0.2491
   18MOL   C172 5986   5.317   4.163   4.452 -0.6293  0.0492 -0.0099
   18MOL   C173 5987   5.435   4.230   4.521  0.9953 -0.2528  0.2561
   18MOL   N174 5988   5.506   4.319   4.428 -0.0637  0.0515 -0.6306
   18MOL   C175 5989   5.630   4.272   4.379  0.3972 -0.0096  0.7118
   18MOL   C176 5990   5.695   4.379   4.297 -0.0692 -0.1977 -0.6919
   18MOL   C177 5991   5.592   4.492   4.300  0.5304  0.3826  0.2767
   18MOL   C178 5992   5.472   4.439   4.378 -0.2061  0.2749  0.3005
   18MOL   O179 5993   5.366   4.499   4.390 -0.3340 -0.4741 -0.2865
   18MOL   H180 5994   5.232   4.232   4.453 -0.5785  0.1044  0.4465
   18MOL   H181 5995   5.328   4.145   4.345  0.6884  1.7416 -0.1696
   18MOL   H182 5996   5.507   4.154   4.550 -0.0759 -1.3439  0.0662
   18MOL   H183 5997   5.696   4.257   4.464  0.1111 -0.4957  0.8534
   18MOL   H184 5998   5.632   4.175   4.328  2.1397  0.2874  0.1906
   18MOL   H185 5999   5.702   4.346   4.193 -2.6023 -1.0462 -0.6339
   18MOL   H186 6000   5.793   4.412   4.331 -0.4096  0.2493 -0.1309
   18MOL   H187 6001   5.635   4.579   4.349  2.2329  0.1452 -0.7486
   18MOL   H188 6002   5.567   4.537   4.204  5.2610 -0.9322 -1.7357
   18MOL   C189 6003   5.392   4.311   4.646  0.0930 -0.1028 -0.7259
   18MOL   C190 6004   5.497   4.378   4.737 -0.0018 -0.8778 -0.0326
   18MOL   N191 6005   5.504   4.526   4.721  0.3427  0.5832  0.4094
   18MOL   C192 6006   5.635   4.585   4.718 -0.0623 -0.5208  0.1944
   18MOL   C193 6007   5.611   4.737   4.684  0.2744  0.5375 -0.3549
   18MOL   C194 6008   5.457   4.750   4.691 -0.0715  0.5724  0.1729
   18MOL   C195 6009   5.401   4.616   4.714 -0.6272  0.3896  0.1747
   18MOL   O196 6010   5.282   4.596   4.716 -0.0328  0.2757  1.0818
   18MOL   H197 6011   5.340   4.231   4.698 -2.8089  1.2743 -1.4419
   18MOL   H198 6012   5.313   4.381   4.620 -1.6609 -1.5572  0.5974
   18MOL   H199 6013   5.590   4.327   4.715  1.0665 -0.3461  3.1054
   18MOL   H200 6014   5.685   4.577   4.815  2.4605  0.6139 -0.9703
   18MOL   H201 6015   5.688   4.530   4.640  1.4228  2.6775 -1.1385
   18MOL   H202 6016   5.664   4.804   4.753 -0.1881  0.2191  0.3195
   18MOL   H203 6017   5.650   4.749   4.583  0.3744 -0.8965 -0.4951
   18MOL   H204 6018   5.440   4.805   4.784  0.6930 -0.2762  0.8360
   18MOL   H205 6019   5.398   4.803   4.617  1.0799 -0.4493 -1.5024
   18MOL   C206 6020   5.451   4.338   4.876 -0.5737 -0.2471  0.0184
   18MOL   C207 6021   5.549   4.383   4.995 -0.3905  0.0257  0.1589
   18MOL   N208 6022   5.463   4.378   5.115 -0.0212 -0.2498 -0.4621
   18MOL   C209 6023   5.416   4.503   5.171 -0.5751 -0.4170  0.3677
   18MOL   C210 6024   5.319   4.464   5.283  0.0871  0.0909 -0.5106
   18MOL   C211 6025   5.289   4.318   5.259 -0.2458  0.1073  0.0769
   18MOL   C212 6026   5.399   4.276   5.170 -0.6212 -0.5569 -0.1168
   18MOL   O213 6027   5.416   4.156   5.148  0.3031  0.1253 -0.7515
   18MOL   H214 6028   5.448   4.230   4.886 -0.2714 -0.1339  1.6076
   18MOL   H215 6029   5.348   4.369   4.895 -0.2647  0.4835  0.5424
   18MOL   H216 6030   5.576   4.488   4.984  2.2183 -0.6849 -0.6020
   18MOL   H217 6031   5.483   4.577   5.213 -0.3113  0.2198 -1.1170
   18MOL   H218 6032   5.356   4.551   5.093 -0.0002  0.5370  0.5172
   18MOL   H219 6033   5.370   4.463   5.379 -1.6127 -2.5606  0.4031
   18MOL   H220 6034   5.228   4.524   5.287 -0.9334 -1.2269 -3.0702
   18MOL   H221 6035   5.300   4.251   5.344 -4.3727  0.1665  0.7480
   18MOL   H222 6036   5.201   4.295   5.199  1.0669  1.2443 -2.3602
   18MOL   C223 6037   5.668   4.284   5.020  0.3681  0.5581 -0.5700
   18MOL   C224 6038   5.798   4.325   4.944  0.9618  0.5770 -1.1361
   18MOL   N225 6039   5.905   4.377   5.033 -0.4693  0.1137  0.1070
   18MOL   C226 6040   5.941   4.515   5.040  0.7082  0.4600  0.3058
   18MOL   C227 6041   6.064   4.525   5.127 -0.2886 -0.0538 -0.1907
   18MOL   C228 6042   6.088   4.388   5.179 -0.0875 -0.4509  0.4820
   18MOL   C229 6043   5.978   4.303   5.117 -0.2720 -0.2012 -1.1228
   18MOL   O230 6044   5.959   4.185   5.144 -0.0592 -0.4978  0.0420
   18MOL   H231 6045   5.638   4.183   4.995 -2.0887  0.6974  1.5925
   18MOL   H232 6046   5.691   4.277   5.127 -3.0424 -3.0165  0.0387
   18MOL   H233 6047   5.771   4.413   4.884  2.1248  1.1060 -0.8852
   18MOL   H234 6048   5.978   4.556   4.946 -1.8461 -0.6789 -1.2607
   18MOL   H235 6049   5.857   4.570   5.082  0.4449 -0.4423  0.9827
   18MOL   H236 6050   6.149   4.569   5.075  0.7138 -1.5487  0.1171
   18MOL   H237 6051   6.034   4.588   5.210 -2.9344 -0.4025 -0.8496
   18MOL   H238 6052   6.185   4.354   5.145 -0.5076  0.1749 -1.4186
   18MOL   H239 6053   6.098   4.380   5.288  0.9847  0.3873  0.4513
   18MOL   C240 6054   5.839   4.211   4.846  0.1653  0.0692 -0.1885
   18MOL   C241 6055   5.973   4.227   4.770 -0.1588 -0.2701 -0.6077
   18MOL   N242 6056   6.016   4.098   4.711  0.6579  0.7110 -0.2096
   18MOL   C243 6057   6.140   4.030   4.751 -0.1639  0.0708  0.2827
   18MOL   C244 6058   6.129   3.889   4.688  0.0512  0.2517  0.0730
   18MOL   C245 6059   6.023   3.903   4.581  0.8516  0.4740  0.0066
   18MOL   C246 6060   5.955   4.031   4.613  0.2218 -0.1460 -0.2166
   18MOL   O247 6061   5.851   4.069   4.549 -0.6452  0.0772  0.2023
   18MOL   H248 6062   5.761   4.169   4.782  0.1151 -0.6186  0.3179
   18MOL   H249 6063   5.854   4.117   4.899  3.6790 -0.9766 -2.8835
   18MOL   H250 6064   6.059   4.248   4.834 -0.6059  0.6024 -0.2893
   18MOL   H251 6065   6.225   4.089   4.718 -0.9327  1.4172  0.6668
   18MOL   H252 6066   6.125   4.015   4.858  2.4501 -2.3960  0.3575
   18MOL   H253 6067   6.226   3.852   4.655  0.3514  0.7348  0.4147
   18MOL   H254 6068   6.092   3.823   4.767 -3.3858  1.2187 -0.6534
   18MOL   H255 6069   6.072   3.926   4.486  0.8864  0.9770  0.1484
   18MOL   H256 6070   5.948   3.824   4.569  3.0111 -1.5265 -0.7542
   18MOL   C257 6071   5.965   4.349   4.674  0.3477  0.3105 -0.4258
   18MOL   C258 6072   6.100   4.407   4.625 -0.2230 -0.5724  0.0457
   18MOL   N259 6073   6.073   4.505   4.519 -0.1073  0.3519  0.1895
   18MOL   C260 6074   6.088   4.463   4.381 -0.2077 -0.1392  0.7237
   18MOL   C261 6075   6.050   4.580   4.295  0.8229 -0.1809  0.1565
   18MOL   C262 6076   6.024   4.693   4.390  0.9698  0.8153  0.8702
   18MOL   C263 6077   6.035   4.630   4.528 -0.2400  0.1434  0.4133
   18MOL   O264 6078   6.012   4.697   4.631  0.4110  0.3954  0.9194
   18MOL   H265 6079   5.920   4.439   4.716 -0.0667  1.1704 -2.6672
   18MOL   H266 6080   5.897   4.309   4.599  0.6725  0.0446 -0.5802
   18MOL   H267 6081   6.156   4.323   4.584  1.5889  0.4698  0.3561
   18MOL   H268 6082   6.194   4.435   4.372 -0.8419 -2.3154 -0.3213
   18MOL   H269 6083   6.038   4.368   4.361  0.7504 -0.6886  0.8770
   18MOL   H270 6084   6.115   4.612   4.213  0.9977  2.4571  1.2542
   18MOL   H271 6085   5.957   4.556   4.244  0.9293 -0.6567  0.1822
   18MOL   H272 6086   6.098   4.772   4.378  0.2256  1.3063 -0.6578
   18MOL   H273 6087   5.923   4.734   4.383  1.2080  0.9513 -2.3287
   18MOL   C274 6088   6.178   4.476   4.744  0.6257 -0.4419 -0.1758
   18MOL   C275 6089   6.305   4.558   4.700  0.8004  0.0047  0.0584
   18MOL   N276 6090   6.356   4.635   4.811 -0.3802  0.4351  0.2101
   18MOL   C277 6091   6.350   4.782   4.801 -0.3427  0.1272 -0.4478
   18MOL   C278 6092   6.444   4.827   4.919 -0.1814 -0.3786  0.1742
   18MOL   C279 6093   6.445   4.712   5.025  0.0854 -0.3993 -0.1627
   18MOL   C280 6094   6.408   4.590   4.930 -0.4022 -1.0040  0.2273
   18MOL   O281 6095   6.422   4.476   4.965  0.3168  0.6330 -0.4264
   18MOL   H282 6096   6.212   4.404   4.818  3.2503  1.7638  0.8577
   18MOL   H283 6097   6.121   4.549   4.801 -0.8401 -0.4611 -1.5698
   18MOL   H284 6098   6.269   4.632   4.629 -1.2799  1.0508  2.1214
   18MOL   H285 6099   6.400   4.828   4.716  2.4835 -1.3324  0.3540
   18MOL   H286 6100   6.254   4.827   4.826  0.7129  1.3368  1.6565
   18MOL   H287 6101   6.543   4.856   4.884 -0.7416 -0.1769 -1.2987
   18MOL   H288 6102   6.396   4.910   4.970  1.0868 -0.3410  1.3323
   18MOL   H289 6103   6.540   4.705   5.078 -1.2620 -0.7636  2.2601
   18MOL   H290 6104   6.363   4.712   5.097 -1.8805 -1.7830 -2.3193
   18MOL   C291 6105   6.406   4.466   4.640 -0.0068  0.3917  0.0493
   18MOL   C292 6106   6.491   4.528   4.524 -0.7035 -0.2153 -0.9335
   18MOL   N293 6107   6.573   4.641   4.559 -0.1092  0.2834 -0.2922
   18MOL   C294 6108   6.555   4.772   4.500 -0.3962 -0.2990  0.1641
   18MOL   C295 6109   6.664   4.858   4.566 -0.3610  0.2323  0.1669
   18MOL   C296 6110   6.764   4.767   4.634 -0.5144  0.2183  1.0722
   18MOL   C297 6111   6.680   4.638   4.643 -0.0052  0.5251  0.2090
   18MOL   O298 6112   6.715   4.542   4.711  0.3985 -0.4120  0.3059
   18MOL   H299 6113   6.360   4.381   4.590 -0.6414  1.3056 -0.9415
   18MOL   H300 6114   6.463   4.416   4.718  0.8425 -0.0698 -0.8618
   18MOL   H301 6115   6.415   4.574   4.461  1.1411  2.1745 -1.4607
   18MOL   H302 6116   6.568   4.771   4.392  2.7203 -1.4944  0.5274
   18MOL   H303 6117   6.452   4.808   4.507 -0.3307 -0.4038  1.7944
   18MOL   H304 6118   6.706   4.928   4.494  0.4252 -0.6659 -0.2630
   18MOL   H305 6119   6.613   4.896   4.655  0.3067 -0.4777  0.8525
   18MOL   H306 6120   6.849   4.745   4.569 -0.4667  1.1150  0.8323
   18MOL   H307 6121   6.805   4.796   4.731  0.5678  1.2595  0.3153
   18MOL   C308 6122   6.577   4.415   4.451  0.4549 -0.1142 -0.4850
   18MOL   C309 6123   6.660   4.464   4.329 -0.7855  0.1982 -0.0528
   18MOL   N310 6124   6.793   4.383   4.335 -0.3374 -0.1174 -0.2031
   18MOL   C311 6125   6.916   4.461   4.368 -0.1869 -0.0085  0.2390
   18MOL   C312 6126   7.016   4.354   4.407 -0.5876  0.6298 -0.1022
   18MOL   C313 6127   6.968   4.230   4.342  0.0808  0.1142  0.2935
   18MOL   C314 6128   6.820   4.254   4.319 -0.2001 -0.6616  0.0429
   18MOL   O315 6129   6.741   4.164   4.295 -0.2564 -0.3036 -0.9319
   18MOL   H316 6130   6.514   4.333   4.416 -0.4576  0.9845 -1.4400
   18MOL   H317 6131   6.633   4.360   4.526 -1.0110 -0.0609  0.6903
   18MOL   H318 6132   6.690   4.569   4.321 -0.5029  0.0026 -1.6716
   18MOL   H319 6133   6.958   4.511   4.281  2.0680  1.3108  2.0513
   18MOL   H320 6134   6.896   4.530   4.451  1.1341  0.9732 -0.2441
   18MOL   H321 6135   7.116   4.391   4.385  0.0158 -0.3818  0.8554
   18MOL   H322 6136   7.008   4.339   4.515 -1.9148 -1.7936 -0.5081
   18MOL   H323 6137   7.014   4.207   4.246 -0.3362 -0.5929  0.2546
   18MOL   H324 6138   6.991   4.147   4.409  0.1060 -1.0310 -1.1094
   18MOL   C325 6139   6.585   4.435   4.193  0.7664 -0.1070 -0.9300
   18MOL   C326 6140   6.463   4.530   4.156  0.4585  0.2892 -0.0277
   18MOL   N327 6141   6.410   4.512   4.021  0.0656 -0.8812 -0.2263
   18MOL   C328 6142   6.288   4.427   4.012  0.1634 -0.0680  0.3170
   18MOL   C329 6143   6.274   4.398   3.859  0.0459 -0.4335 -0.5343
   18MOL   C330 6144   6.376   4.494   3.796 -0.5426 -0.0120 -0.4406
   18MOL   C331 6145   6.469   4.542   3.907  0.6735  0.9415 -0.2661
   18MOL   O332 6146   6.576   4.595   3.890 -0.2774  0.1965  0.0015
   18MOL   H333 6147   6.555   4.330   4.192  2.2356 -0.5760  0.7514
   18MOL   H334 6148   6.656   4.451   4.112  0.1091 -1.2586 -1.7481
   18MOL   H335 6149   6.496   4.634   4.163 -0.8924  0.6569  1.1456
   18MOL   H336 6150   6.295   4.335   4.069 -0.4748 -0.9775 -1.0250
   18MOL   H337 6151   6.199   4.483   4.042  0.2663 -1.3218  3.0164
   18MOL   H338 6152   6.303   4.294   3.843 -0.4707 -0.8297  1.0483
   18MOL   H339 6153   6.180   4.406   3.804 -0.1949 -1.2749 -0.2537
   18MOL   H340 6154   6.432   4.446   3.716 -3.4734  1.3207 -3.3634
   18MOL   H341 6155   6.326   4.579   3.750  2.6125  1.4245 -1.3497
   18MOL   H342 6156   6.385   4.520   4.231 -1.7313  0.5425 -2.1884
   19MOL     C1 6157   1.106   1.868   0.991  0.4150 -0.1600 -0.5202
   19MOL     C2 6158   1.036   1.801   0.870 -0.0964  0.1514  0.0055
   19MOL     N3 6159   0.891   1.797   0.897 -0.2082 -0.5395  0.1156
   19MOL     C4 6160   0.806   1.918   0.925 -0.1098 -0.0245 -0.6164
   19MOL     C5 6161   0.663   1.880   0.916  0.0623 -0.7789 -0.1242
   19MOL     C6 6162   0.665   1.733   0.871  0.3808 -0.2351  0.0361
   19MOL     C7 6163   0.813   1.693   0.874  0.5582  0.1630  0.0425
   19MOL     O8 6164   0.854   1.580   0.870  0.3370  0.0094  0.1070
   19MOL     H9 6165   1.058   1.961   1.023 -1.1174 -0.8927 -0.6792
   19MOL    H10 6166   1.096   1.797   1.073 -2.4661  0.4867 -0.2741
   19MOL    H11 6167   1.070   1.698   0.871 -1.1806 -0.2121 -0.4585
   19MOL    H12 6168   0.813   1.960   1.026 -2.1735 -2.7292  0.7146
   19MOL    H13 6169   0.828   2.003   0.861 -1.5916  0.5262 -0.4237
   19MOL    H14 6170   0.600   1.886   1.005  0.2040 -1.9419  0.0606
   19MOL    H15 6171   0.605   1.941   0.847  1.4368  0.1976 -0.4283
   19MOL    H16 6172   0.608   1.684   0.950  0.2732  0.6206  0.5044
   19MOL    H17 6173   0.622   1.715   0.773  1.4332 -1.1788 -0.2551
   19MOL    H18 6174   1.211   1.893   0.973  0.8450  0.4549  2.6262
   19MOL    C19 6175   1.077   1.846   0.727  0.0084 -0.4117  0.1842
   19MOL    C20 6176   1.227   1.862   0.690  0.2366 -0.3049  0.8804
   19MOL    N21 6177   1.299   1.741   0.731  0.2217 -0.4930 -0.4123
   19MOL    C22 6178   1.403   1.750   0.834 -0.1659  0.1153 -0.4082
   19MOL    C23 6179   1.499   1.634   0.801 -0.1144  0.4471  0.2046
   19MOL    C24 6180   1.407   1.530   0.736 -0.4365  0.1527  0.0462
   19MOL    C25 6181   1.288   1.615   0.685  0.0789  0.8127  0.2229
   19MOL    O26 6182   1.200   1.578   0.604  0.2943  0.8368  0.1528
   19MOL    H27 6183   1.034   1.943   0.700  1.2648 -0.1993 -1.1257
   19MOL    H28 6184   1.034   1.783   0.650 -2.5143  1.6299 -0.1392
   19MOL    H29 6185   1.255   1.948   0.750 -1.8562  1.7460 -0.9404
   19MOL    H30 6186   1.450   1.848   0.836  1.7086 -0.6670 -3.2581
   19MOL    H31 6187   1.360   1.726   0.932  0.9937 -0.8098 -0.1030
   19MOL    H32 6188   1.579   1.665   0.733 -0.2486 -1.2864 -0.7866
   19MOL    H33 6189   1.555   1.585   0.881  0.5516  1.4477  0.3618
   19MOL    H34 6190   1.435   1.475   0.646 -1.6288 -1.4620  0.6367
   19MOL    H35 6191   1.367   1.457   0.806 -1.6511  2.5747  1.9550
   19MOL    C36 6192   1.255   1.912   0.546  0.5436 -0.4865  0.3293
   19MOL    C37 6193   1.402   1.982   0.520 -0.3568 -0.2208  0.0290
   19MOL    N38 6194   1.510   1.885   0.486  0.0396  0.2467  0.2078
   19MOL    C39 6195   1.645   1.883   0.552 -0.1015  0.4456  0.3849
   19MOL    C40 6196   1.719   1.771   0.474  0.6369  0.2403 -0.8520
   19MOL    C41 6197   1.660   1.791   0.336 -0.6182  0.1852 -0.4656
   19MOL    C42 6198   1.521   1.832   0.363 -1.1263 -0.2133  0.6612
   19MOL    O43 6199   1.429   1.830   0.285  0.3973  0.3834  0.0195
   19MOL    H44 6200   1.177   1.984   0.522  2.0675  1.0924 -0.0460
   19MOL    H45 6201   1.240   1.836   0.469  2.0755 -2.4248  1.8911
   19MOL    H46 6202   1.422   2.011   0.623 -0.1334 -1.9991  0.4981
   19MOL    H47 6203   1.686   1.984   0.555  1.3655 -0.1675  1.3935
   19MOL    H48 6204   1.639   1.861   0.658  1.5969  0.5101  0.5032
   19MOL    H49 6205   1.828   1.781   0.475  0.7725 -1.0189  1.1979
   19MOL    H50 6206   1.680   1.677   0.512  1.2966  0.6004  0.7598
   19MOL    H51 6207   1.715   1.855   0.266  0.3273 -0.2877 -0.1549
   19MOL    H52 6208   1.654   1.693   0.287 -1.2815 -1.0749  2.0872
   19MOL    C53 6209   1.394   2.109   0.432  0.2450  0.5488 -0.0378
   19MOL    C54 6210   1.390   2.242   0.504 -0.4270 -0.4395 -0.4802
   19MOL    N55 6211   1.401   2.352   0.406 -0.2282  0.2478  0.7320
   19MOL    C56 6212   1.506   2.446   0.407 -0.9448 -0.6320  0.6572
   19MOL    C57 6213   1.468   2.561   0.310 -0.0424  0.2342 -0.3556
   19MOL    C58 6214   1.348   2.506   0.233 -0.1731 -0.2979 -0.1283
   19MOL    C59 6215   1.310   2.379   0.308 -0.0202 -0.4095  0.3377
   19MOL    O60 6216   1.215   2.302   0.276  0.1016 -0.1968  0.0521
   19MOL    H61 6217   1.306   2.097   0.368 -0.4738  2.7522  0.5072
   19MOL    H62 6218   1.480   2.108   0.365  0.0552 -0.1708 -0.2801
   19MOL    H63 6219   1.480   2.250   0.565 -0.9390 -0.1792  0.2504
   19MOL    H64 6220   1.522   2.481   0.509  0.0804  2.1378 -0.4247
   19MOL    H65 6221   1.602   2.400   0.381 -0.5488 -0.6122  2.0648
   19MOL    H66 6222   1.460   2.658   0.358  0.7165 -0.2380  0.7496
   19MOL    H67 6223   1.552   2.584   0.245  1.3356  0.4383  1.4663
   19MOL    H68 6224   1.264   2.573   0.247 -0.6570 -1.2013  1.3532
   19MOL    H69 6225   1.369   2.478   0.129 -3.1646  1.2695 -1.2105
   19MOL    C70 6226   1.269   2.266   0.595 -0.1733  0.6486  0.1025
   19MOL    C71 6227   1.295   2.338   0.735 -0.2195  0.2083  0.2321
   19MOL    N72 6228   1.168   2.378   0.788  0.0512 -0.1635 -0.3525
   19MOL    C73 6229   1.117   2.507   0.742  0.1235 -0.1111 -0.4225
   19MOL    C74 6230   0.978   2.514   0.809  0.7673  0.0743  0.4232
   19MOL    C75 6231   0.944   2.377   0.856 -0.0425  0.5476 -0.5479
   19MOL    C76 6232   1.075   2.299   0.855 -0.1267  0.5589  0.3604
   19MOL    O77 6233   1.094   2.186   0.896 -0.2501  0.0994  0.1752
   19MOL    H78 6234   1.222   2.173   0.624  0.2840  0.2153 -0.5355
   19MOL    H79 6235   1.185   2.319   0.550  0.4398  1.2959 -0.2999
   19MOL    H80 6236   1.360   2.423   0.714  0.9455 -0.1350  2.2547
   19MOL    H81 6237   1.182   2.587   0.779 -0.5550  0.8028 -1.2062
   19MOL    H82 6238   1.117   2.505   0.633 -4.1039 -0.2226 -0.5153
   19MOL    H83 6239   0.997   2.583   0.892 -2.2378  0.6082  0.7188
   19MOL    H84 6240   0.905   2.557   0.741 -0.4748 -1.3265  0.8476
   19MOL    H85 6241   0.899   2.390   0.955  0.4171 -0.3318 -0.2149
   19MOL    H86 6242   0.871   2.328   0.792 -1.5321  1.4245  0.4478
   19MOL    C87 6243   1.381   2.251   0.830 -0.5449 -0.1742 -0.3714
   19MOL    C88 6244   1.412   2.292   0.974  0.4762  0.1791  0.0562
   19MOL    N89 6245   1.489   2.195   1.050 -0.1426  0.3395  0.1169
   19MOL    C90 6246   1.416   2.134   1.159  0.2160  0.7421 -0.3805
   19MOL    C91 6247   1.518   2.037   1.215  0.3928 -0.1111  0.1502
   19MOL    C92 6248   1.654   2.048   1.138 -0.3509  0.4064 -0.2907
   19MOL    C93 6249   1.611   2.150   1.034  0.0152 -0.2609 -0.6498
   19MOL    O94 6250   1.689   2.186   0.947 -0.1499  0.4398 -0.0302
   19MOL    H95 6251   1.480   2.246   0.785  0.5093 -2.7049  2.1502
   19MOL    H96 6252   1.344   2.148   0.837  1.0709 -0.5750  3.3958
   19MOL    H97 6253   1.315   2.300   1.023  0.6381 -2.6613  0.9382
   19MOL    H98 6254   1.371   2.198   1.234  2.2801  0.9791  0.6783
   19MOL    H99 6255   1.337   2.068   1.123  0.3069 -0.5463  1.6939
   19MOL   H100 6256   1.527   2.042   1.324  0.5487  1.6698  0.0673
   19MOL   H101 6257   1.487   1.934   1.201  0.9723 -0.4699  1.4581
   19MOL   H102 6258   1.727   2.090   1.206 -1.3117  2.2805 -0.3825
   19MOL   H103 6259   1.693   1.955   1.096  0.1178  0.6377 -0.3686
   19MOL   C104 6260   1.485   2.428   0.980 -0.0475 -0.9878  0.3324
   19MOL   C105 6261   1.434   2.505   1.107  0.1206 -0.2217  0.0731
   19MOL   N106 6262   1.548   2.548   1.180 -0.1922  0.3703 -0.8156
   19MOL   C107 6263   1.595   2.477   1.300  0.2820  0.1274  0.7059
   19MOL   C108 6264   1.674   2.581   1.378 -0.0689 -0.1561  0.7004
   19MOL   C109 6265   1.720   2.678   1.272  0.2792 -0.0677  1.0037
   19MOL   C110 6266   1.625   2.659   1.157 -0.2462 -0.0290 -0.0364
   19MOL   O111 6267   1.617   2.732   1.059 -0.0929 -0.1087  0.2830
   19MOL   H112 6268   1.460   2.494   0.896 -0.3015 -1.4415  0.0475
   19MOL   H113 6269   1.593   2.416   0.986 -0.2247 -1.6298  2.5169
   19MOL   H114 6270   1.389   2.427   1.168 -0.0472 -1.0226 -1.0599
   19MOL   H115 6271   1.515   2.426   1.355  0.0419 -1.1910 -0.8452
   19MOL   H116 6272   1.660   2.394   1.272 -0.0267 -0.3477  1.3558
   19MOL   H117 6273   1.603   2.618   1.452 -1.3797  1.7609 -1.4385
   19MOL   H118 6274   1.754   2.539   1.439 -0.0345 -0.3520  0.5197
   19MOL   H119 6275   1.819   2.657   1.231 -0.3865 -0.3948 -0.5017
   19MOL   H120 6276   1.727   2.781   1.306  0.7228  0.0410  0.5946
   19MOL   C121 6277   1.327   2.611   1.074  1.0492 -0.0073  0.2167
   19MOL   C122 6278   1.235   2.658   1.193 -0.2597  0.0802  0.3614
   19MOL   N123 6279   1.203   2.795   1.172  0.1199 -0.2775  0.0582
   19MOL   C124 6280   1.270   2.903   1.250  0.5798 -0.1689 -0.2450
   19MOL   C125 6281   1.193   3.029   1.214  0.7252  0.2169  0.5569
   19MOL   C126 6282   1.106   2.999   1.101  0.1533  0.3157 -0.5641
   19MOL   C127 6283   1.118   2.848   1.081 -0.0915 -0.1343 -0.1022
   19MOL   O128 6284   1.052   2.785   1.002  0.5737  0.5922 -0.1810
   19MOL   H129 6285   1.259   2.557   1.009  1.4627 -1.8962  1.3171
   19MOL   H130 6286   1.370   2.690   1.012 -3.6272  1.9624 -0.7547
   19MOL   H131 6287   1.298   2.654   1.282 -1.3335  1.6983  1.2018
   19MOL   H132 6288   1.375   2.915   1.224  0.6043 -1.1971 -0.6622
   19MOL   H133 6289   1.255   2.886   1.357  3.5987  2.2278  0.6131
   19MOL   H134 6290   1.130   3.056   1.299 -1.5042 -1.2377 -0.5841
   19MOL   H135 6291   1.248   3.123   1.203 -0.5353  0.7779 -1.1021
   19MOL   H136 6292   1.002   3.024   1.125 -0.5130 -0.3680 -2.5808
   19MOL   H137 6293   1.142   3.056   1.016 -1.6010  3.5228  0.7843
   19MOL   C138 6294   1.118   2.563   1.218 -0.3697  0.4272 -0.5574
   19MOL   C139 6295   0.995   2.604   1.307  0.0234 -0.3156 -0.4545
   19MOL   N140 6296   0.888   2.504   1.299 -0.3799  0.1992 -0.6689
   19MOL   C141 6297   0.757   2.546   1.245 -0.4475 -1.1733  0.0298
   19MOL   C142 6298   0.673   2.418   1.260  0.4452 -0.7299  0.5101
   19MOL   C143 6299   0.761   2.304   1.306 -0.2209 -0.3994 -0.4347
   19MOL   C144 6300   0.891   2.373   1.343 -0.4477 -0.1544 -0.3591
   19MOL   O145 6301   0.984   2.329   1.398 -0.2068  0.3509 -0.3816
   19MOL   H146 6302   1.158   2.468   1.255 -0.5788  0.3154 -0.6187
   19MOL   H147 6303   1.067   2.542   1.124 -0.8096  0.4186 -0.3200
   19MOL   H148 6304   0.956   2.697   1.268  1.5194  1.0314  1.1572
   19MOL   H149 6305   0.718   2.629   1.304  1.0998 -1.8724  2.1102
   19MOL   H150 6306   0.768   2.583   1.143 -0.0454 -2.1138 -0.2722
   19MOL   H151 6307   0.595   2.431   1.336 -0.5423 -3.6753  0.1036
   19MOL   H152 6308   0.619   2.394   1.169 -0.9657  3.0945  0.2819
   19MOL   H153 6309   0.777   2.231   1.226 -0.5255 -1.5775  0.5520
   19MOL   H154 6310   0.715   2.255   1.392  0.8955  1.3066  1.1457
   19MOL   C155 6311   1.034   2.629   1.449  0.4160 -0.6198 -0.1414
   19MOL   C156 6312   0.942   2.719   1.523 -0.5770  0.0671 -0.2393
   19MOL   N157 6313   0.972   2.702   1.668 -0.9579  0.7666  0.3700
   19MOL   C158 6314   0.874   2.652   1.759 -0.2153 -0.1049 -0.5707
   19MOL   C159 6315   0.920   2.688   1.906  0.3444  0.4123 -0.4673
   19MOL   C160 6316   1.066   2.738   1.887 -0.3936  0.4958 -1.0634
   19MOL   C161 6317   1.083   2.746   1.737  0.4413 -0.0206  0.1325
   19MOL   O162 6318   1.181   2.792   1.684 -0.0855  0.3886 -0.4332
   19MOL   H163 6319   1.134   2.670   1.452  0.1497 -0.0275  3.3035
   19MOL   H164 6320   1.046   2.537   1.506 -0.8812 -0.1775  0.9009
   19MOL   H165 6321   0.842   2.685   1.497 -1.0544  1.0191  0.3334
   19MOL   H166 6322   0.779   2.697   1.730  0.8465  3.0680  0.6443
   19MOL   H167 6323   0.866   2.544   1.755  1.2254 -0.2234 -0.4889
   19MOL   H168 6324   0.854   2.760   1.955 -2.3244 -2.4454  0.2505
   19MOL   H169 6325   0.919   2.599   1.968 -0.6111  1.6038  1.2932
   19MOL   H170 6326   1.078   2.836   1.934  3.0956 -0.9104  1.1564
   19MOL   H171 6327   1.143   2.673   1.927 -1.1568  1.1351  1.6114
   19MOL   C172 6328   0.956   2.869   1.487  0.2529  0.5345  0.4528
   19MOL   C173 6329   0.849   2.954   1.555 -0.2183  0.1180 -0.5147
   19MOL   N174 6330   0.910   3.081   1.597  0.9370 -0.4984  0.8686
   19MOL   C175 6331   0.969   3.099   1.730 -0.7978 -0.6300  0.6371
   19MOL   C176 6332   1.035   3.241   1.726 -0.6029 -0.2287 -0.2051
   19MOL   C177 6333   1.002   3.305   1.591  0.3493 -0.0916  0.3094
   19MOL   C178 6334   0.933   3.189   1.521  0.4336 -0.0831  0.3927
   19MOL   O179 6335   0.917   3.192   1.404  0.2367  0.1390  0.1311
   19MOL   H180 6336   0.947   2.875   1.378 -0.4752  1.3576  0.5590
   19MOL   H181 6337   1.056   2.905   1.514  0.1896  1.3998 -0.3960
   19MOL   H182 6338   0.828   2.898   1.646  3.3184  0.8494  0.7996
   19MOL   H183 6339   0.890   3.089   1.804  0.2968  0.0520  1.9293
   19MOL   H184 6340   1.043   3.027   1.764  0.2232 -0.6752 -1.5667
   19MOL   H185 6341   1.144   3.234   1.724 -0.5804  0.3130 -1.1546
   19MOL   H186 6342   1.021   3.304   1.814 -0.2530  2.3809 -1.9839
   19MOL   H187 6343   0.914   3.369   1.593  0.6065  0.4762 -3.3443
   19MOL   H188 6344   1.085   3.353   1.540 -1.5140  1.7261 -1.0681
   19MOL   C189 6345   0.715   2.964   1.474 -0.3653  0.3419 -0.7069
   19MOL   C190 6346   0.589   3.007   1.552 -0.1925 -0.2953  0.1428
   19MOL   N191 6347   0.480   3.045   1.463 -0.2521 -0.7138  0.5899
   19MOL   C192 6348   0.448   2.954   1.356  1.2640  0.5450  0.2839
   19MOL   C193 6349   0.322   3.021   1.283  0.0742  0.5017 -0.3189
   19MOL   C194 6350   0.303   3.160   1.349  0.1623 -0.4329 -0.5029
   19MOL   C195 6351   0.415   3.160   1.451 -0.5382 -0.6268  0.1787
   19MOL   O196 6352   0.438   3.263   1.514  0.5142  0.2924  0.4507
   19MOL   H197 6353   0.694   2.869   1.425  0.0788 -0.5788  0.8544
   19MOL   H198 6354   0.729   3.041   1.397 -1.4219  2.4680  1.1562
   19MOL   H199 6355   0.628   3.093   1.606  0.9244 -1.7942  1.7842
   19MOL   H200 6356   0.525   2.966   1.281  0.8214  0.3281 -0.2105
   19MOL   H201 6357   0.431   2.848   1.377  1.3176  0.0311 -2.1372
   19MOL   H202 6358   0.341   3.014   1.176  1.7106  0.1619 -0.0140
   19MOL   H203 6359   0.233   2.960   1.299 -0.8958  2.3528  1.6459
   19MOL   H204 6360   0.315   3.246   1.283 -1.2610  1.1156  1.1831
   19MOL   H205 6361   0.202   3.165   1.390 -0.2035 -0.4181 -1.3921
   19MOL   C206 6362   0.532   2.899   1.653 -0.0090 -0.6375  0.2619
   19MOL   C207 6363   0.442   2.952   1.764  0.5641 -0.3129  0.3344
   19MOL   N208 6364   0.348   2.849   1.801 -0.5053 -0.9852  0.5770
   19MOL   C209 6365   0.218   2.893   1.830  0.5664 -0.1910  0.4558
   19MOL   C210 6366   0.141   2.763   1.869  0.8241 -0.0678 -0.1679
   19MOL   C211 6367   0.235   2.644   1.847 -0.3104  0.2204 -0.4442
   19MOL   C212 6368   0.367   2.714   1.821 -0.4403  0.1937  0.2308
   19MOL   O213 6369   0.476   2.657   1.812  0.8057 -0.6447  1.0488
   19MOL   H214 6370   0.610   2.836   1.694 -0.3303 -1.3115 -0.1505
   19MOL   H215 6371   0.476   2.829   1.591 -1.4383  0.1428  0.6549
   19MOL   H216 6372   0.384   3.038   1.734  2.2557  0.3983 -0.9645
   19MOL   H217 6373   0.227   2.972   1.905 -2.2877  1.5688 -0.9960
   19MOL   H218 6374   0.180   2.928   1.734 -2.4084 -1.0237  1.2946
   19MOL   H219 6375   0.107   2.765   1.973 -1.5602 -0.6990 -0.9023
   19MOL   H220 6376   0.046   2.741   1.821  0.4248  1.4011 -0.0551
   19MOL   H221 6377   0.243   2.580   1.935  0.2236  0.3959 -0.3623
   19MOL   H222 6378   0.202   2.590   1.758  1.1878 -1.7762  0.1661
   19MOL   C223 6379   0.522   2.987   1.886  0.5216 -0.8438  0.3400
   19MOL   C224 6380   0.531   3.144   1.916 -0.4125 -0.2411 -0.0879
   19MOL   N225 6381   0.399   3.202   1.949  0.2718  0.0222  0.1698
   19MOL   C226 6382   0.340   3.303   1.863 -0.5009  0.7151  0.0925
   19MOL   C227 6383   0.243   3.380   1.956 -0.1888 -0.7860  0.5481
   19MOL   C228 6384   0.225   3.300   2.082 -1.0453  0.3399 -0.4160
   19MOL   C229 6385   0.327   3.189   2.066  0.0382 -0.6626  0.6687
   19MOL   O230 6386   0.345   3.098   2.147  0.3421 -0.6560  0.0684
   19MOL   H231 6387   0.618   2.937   1.878  1.4911  0.7001  2.0528
   19MOL   H232 6388   0.487   2.930   1.972 -1.3785  0.3374  0.3844
   19MOL   H233 6389   0.568   3.189   1.824 -0.2011 -0.1103  0.0592
   19MOL   H234 6390   0.418   3.368   1.825  1.5732 -0.3288  2.4827
   19MOL   H235 6391   0.288   3.256   1.779 -0.7302  1.5612 -0.2403
   19MOL   H236 6392   0.282   3.480   1.971 -1.0661 -0.5940  1.5372
   19MOL   H237 6393   0.145   3.398   1.913 -0.4779  5.2389  3.2603
   19MOL   H238 6394   0.244   3.358   2.172 -1.7487  0.1143 -0.1227
   19MOL   H239 6395   0.123   3.267   2.101 -0.8083 -0.9276 -1.2731
   19MOL   C240 6396   0.636   3.167   2.034 -0.1605 -0.6869 -0.4152
   19MOL   C241 6397   0.738   3.286   2.016 -0.4278 -0.5084  0.7497
   19MOL   N242 6398   0.681   3.404   1.949 -0.3134 -0.2603  0.5867
   19MOL   C243 6399   0.731   3.437   1.812  0.7222  0.7714 -0.2272
   19MOL   C244 6400   0.633   3.547   1.769 -0.2533  0.0981 -0.0803
   19MOL   C245 6401   0.562   3.599   1.897 -0.4386 -0.4232 -0.2561
   19MOL   C246 6402   0.588   3.491   1.993  0.4268  0.0518 -0.1722
   19MOL   O247 6403   0.518   3.482   2.100 -0.0441  0.2992 -0.0738
   19MOL   H248 6404   0.705   3.083   2.028  0.7034  0.0107 -0.4382
   19MOL   H249 6405   0.579   3.187   2.125  1.6355 -2.2710  1.0867
   19MOL   H250 6406   0.818   3.253   1.949 -0.6420 -2.9819  1.6340
   19MOL   H251 6407   0.831   3.479   1.819  1.0488  0.1654 -1.0485
   19MOL   H252 6408   0.733   3.349   1.746 -3.0087  0.0316  0.5277
   19MOL   H253 6409   0.691   3.625   1.720 -3.1234  1.9551 -0.6284
   19MOL   H254 6410   0.565   3.501   1.698 -0.6592  1.3732 -0.5355
   19MOL   H255 6411   0.607   3.692   1.932  0.8757 -1.7216  1.6296
   19MOL   H256 6412   0.454   3.612   1.890 -0.6000 -1.0817  0.8656
   19MOL   C257 6413   0.807   3.299   2.153 -0.0751 -0.2622  0.0568
   19MOL   C258 6414   0.895   3.427   2.184  0.9158 -0.2219 -0.1792
   19MOL   N259 6415   0.919   3.448   2.335  0.2147  0.4359  0.2074
   19MOL   C260 6416   0.900   3.577   2.401 -0.1675 -0.6939  0.4407
   19MOL   C261 6417   0.929   3.559   2.546  0.0864 -0.5014 -0.4735
   19MOL   C262 6418   0.948   3.413   2.567  0.5809  0.2567  0.2525
   19MOL   C263 6419   0.950   3.359   2.427  0.1480  0.8324 -0.0984
   19MOL   O264 6420   0.974   3.242   2.407 -0.4616 -0.3343  0.2718
   19MOL   H265 6421   0.868   3.213   2.183  0.0815  0.8581  3.1603
   19MOL   H266 6422   0.735   3.291   2.235 -0.5250 -1.5978 -0.4453
   19MOL   H267 6423   0.835   3.512   2.151  1.0921  0.5030  1.3267
   19MOL   H268 6424   0.968   3.653   2.362  1.2191 -2.9420 -1.6662
   19MOL   H269 6425   0.801   3.619   2.385 -0.6333 -1.7840  0.4686
   19MOL   H270 6426   1.024   3.610   2.563  0.3969 -0.8354 -1.2139
   19MOL   H271 6427   0.855   3.598   2.617  0.4869  4.2913 -2.4406
   19MOL   H272 6428   1.046   3.402   2.613  0.9839  1.6126 -0.2703
   19MOL   H273 6429   0.871   3.369   2.631  0.7101  1.5179  1.2858
   19MOL   C274 6430   1.037   3.415   2.115 -0.2603  0.5286  0.1739
   19MOL   C275 6431   1.102   3.552   2.077  0.2409 -0.0025  0.1052
   19MOL   N276 6432   1.240   3.542   2.078  0.6164 -0.1999  0.2345
   19MOL   C277 6433   1.310   3.630   2.172  0.4299 -0.2691  0.1308
   19MOL   C278 6434   1.450   3.569   2.171  0.1707 -0.2345  0.2188
   19MOL   C279 6435   1.463   3.485   2.047 -0.1644  0.1956 -0.4405
   19MOL   C280 6436   1.324   3.472   2.001  0.0031  0.5289 -0.6021
   19MOL   O281 6437   1.292   3.405   1.901 -0.1218  0.2217 -0.3048
   19MOL   H282 6438   1.033   3.354   2.025 -0.4641 -0.6070  0.9476
   19MOL   H283 6439   1.105   3.366   2.185  0.9593 -0.3556 -1.6034
   19MOL   H284 6440   1.083   3.621   2.159  1.0771 -0.1986  0.4788
   19MOL   H285 6441   1.311   3.730   2.127 -1.5137 -1.2523 -2.2135
   19MOL   H286 6442   1.270   3.624   2.274  1.5223  1.5159  0.6995
   19MOL   H287 6443   1.526   3.646   2.158  0.6306 -0.7988 -0.5210
   19MOL   H288 6444   1.469   3.516   2.264  1.9257  0.1169  0.0868
   19MOL   H289 6445   1.521   3.534   1.968 -2.1281 -0.2875 -2.2498
   19MOL   H290 6446   1.504   3.386   2.068  1.0826  0.7471 -0.2197
   19MOL   C291 6447   1.039   3.602   1.945  0.1635 -0.3124 -0.6012
   19MOL   C292 6448   1.110   3.717   1.868 -0.2668 -0.2776  0.5959
   19MOL   N293 6449   1.053   3.731   1.734  0.0718 -0.2920 -0.2212
   19MOL   C294 6450   1.127   3.702   1.614  0.1167  0.5572  0.2330
   19MOL   C295 6451   1.034   3.735   1.494  0.4069 -0.0513 -0.1148
   19MOL   C296 6452   0.907   3.783   1.558 -0.3258  0.2364 -0.2604
   19MOL   C297 6453   0.934   3.775   1.706 -0.0426  0.0624  0.0194
   19MOL   O298 6454   0.845   3.793   1.786 -0.2979  0.0596 -0.4722
   19MOL   H299 6455   0.935   3.631   1.960  0.6306  0.6509  0.9744
   19MOL   H300 6456   1.030   3.516   1.879  0.7326 -2.7627  2.4087
   19MOL   H301 6457   1.209   3.677   1.844 -0.1946  0.6895 -0.7372
   19MOL   H302 6458   1.222   3.755   1.608  0.5046 -0.1193  0.4159
   19MOL   H303 6459   1.151   3.596   1.604 -0.7124  0.2284  1.6649
   19MOL   H304 6460   1.074   3.797   1.414 -1.3926  0.8897 -0.3011
   19MOL   H305 6461   1.013   3.640   1.445 -0.5947 -0.1171  0.4209
   19MOL   H306 6462   0.886   3.880   1.513 -1.2691 -0.4309 -1.2966
   19MOL   H307 6463   0.823   3.718   1.532 -0.1018 -0.0170 -0.3469
   19MOL   C308 6464   1.115   3.858   1.939  0.3911 -0.1412  0.2536
   19MOL   C309 6465   1.227   3.948   1.876 -0.1745 -0.7575  0.4925
   19MOL   N310 6466   1.181   4.085   1.860 -0.1718 -0.1829 -0.2809
   19MOL   C311 6467   1.167   4.150   1.731  0.1356 -0.6507 -0.6925
   19MOL   C312 6468   1.104   4.281   1.766 -0.4029 -0.0328  0.1327
   19MOL   C313 6469   1.133   4.310   1.910  0.3558  0.5726 -0.0482
   19MOL   C314 6470   1.165   4.178   1.961  0.3593  0.1081 -0.3060
   19MOL   O315 6471   1.170   4.156   2.084 -0.3894 -0.0979 -0.4771
   19MOL   H316 6472   1.147   3.846   2.043 -1.5065  0.4313  0.9297
   19MOL   H317 6473   1.021   3.914   1.939  0.6226  0.2494  0.6240
   19MOL   H318 6474   1.245   3.910   1.775  0.5445  1.0526 -0.0726
   19MOL   H319 6475   1.267   4.153   1.687  0.4663 -0.4284  0.0787
   19MOL   H320 6476   1.113   4.081   1.665  0.4859  0.1570 -1.8458
   19MOL   H321 6477   1.145   4.366   1.710 -1.7498  2.3914  2.6796
   19MOL   H322 6478   0.997   4.288   1.750 -0.7631 -0.7379  2.1517
   19MOL   H323 6479   1.213   4.383   1.924  2.3254 -0.8632 -3.1297
   19MOL   H324 6480   1.042   4.351   1.954 -0.7943 -1.3291 -0.5799
   19MOL   C325 6481   1.360   3.943   1.957 -0.0775 -0.1172 -0.1813
   19MOL   C326 6482   1.476   4.024   1.894  0.0640  0.0892  0.3463
   19MOL   N327 6483   1.604   4.019   1.970 -0.4962  0.2475  0.9868
   19MOL   C328 6484   1.665   4.144   1.998  0.0010 -0.5844 -0.2594
   19MOL   C329 6485   1.783   4.127   2.087 -0.0182 -0.1165 -0.1832
   19MOL   C330 6486   1.799   3.977   2.091 -0.5977 -0.6135 -0.1117
   19MOL   C331 6487   1.685   3.921   2.004  0.4556  0.1807  0.2182
   19MOL   O332 6488   1.662   3.804   1.996 -0.1694  0.2668 -0.4334
   19MOL   H333 6489   1.392   3.840   1.964 -1.8965 -0.7251 -0.3708
   19MOL   H334 6490   1.339   3.981   2.057 -2.6413  0.1209 -0.7737
   19MOL   H335 6491   1.435   4.125   1.886 -0.2972  0.0095  1.1502
   19MOL   H336 6492   1.692   4.200   1.909  0.3559 -1.9898 -1.0493
   19MOL   H337 6493   1.593   4.199   2.059  0.0260  0.3277 -1.0553
   19MOL   H338 6494   1.866   4.179   2.040 -0.8715  0.8619 -0.6275
   19MOL   H339 6495   1.762   4.185   2.177  2.2210 -2.0071  1.6378
   19MOL   H340 6496   1.893   3.963   2.039  0.5438 -0.2770  1.7982
   19MOL   H341 6497   1.800   3.943   2.195  0.7807 -1.7503 -0.4897
   19MOL   H342 6498   1.486   3.974   1.797 -0.6590 -2.0876  1.3760
   20MOL     C1 6499   6.450   5.257   5.354  0.0116 -0.6599 -0.8278
   20MOL     C2 6500   6.294   5.226   5.317 -0.1818 -0.3239 -0.1937
   20MOL     N3 6501   6.267   5.086   5.350  0.3494 -0.1922  0.0956
   20MOL     C4 6502   6.309   4.980   5.260  0.9118 -0.0075  0.1424
   20MOL     C5 6503   6.287   4.848   5.333  0.4629 -0.3370  0.4540
   20MOL     C6 6504   6.204   4.885   5.457 -0.0124  0.0544 -0.7949
   20MOL     C7 6505   6.203   5.034   5.453  0.1073  0.2284 -0.0724
   20MOL     O8 6506   6.137   5.098   5.537 -0.0438  0.0023  0.2221
   20MOL     H9 6507   6.465   5.263   5.462 -2.4107 -0.2345 -0.4745
   20MOL    H10 6508   6.523   5.189   5.310  0.9519 -0.5743  0.5765
   20MOL    H11 6509   6.285   5.241   5.209  0.8021 -2.0935 -0.5453
   20MOL    H12 6510   6.246   4.973   5.171 -1.0793  0.1219  1.5131
   20MOL    H13 6511   6.412   4.982   5.226  0.9087 -1.3584 -0.0002
   20MOL    H14 6512   6.232   4.776   5.274 -1.1395 -1.1758  2.8852
   20MOL    H15 6513   6.386   4.808   5.355  0.1439 -3.1320 -2.7553
   20MOL    H16 6514   6.103   4.845   5.447  1.0338 -1.8101 -4.9840
   20MOL    H17 6515   6.245   4.846   5.550  1.8988  0.4890 -1.4424
   20MOL    H18 6516   6.482   5.354   5.314 -0.5569 -0.3748 -0.5945
   20MOL    C19 6517   6.207   5.335   5.387 -0.6108  0.3800 -0.7890
   20MOL    C20 6518   6.220   5.481   5.336 -0.4631  0.1250  0.5562
   20MOL    N21 6519   6.201   5.483   5.190  0.1091  0.8258 -0.3593
   20MOL    C22 6520   6.303   5.530   5.103  0.1587  0.1853 -0.2576
   20MOL    C23 6521   6.241   5.535   4.963  0.2635 -0.1414  0.1605
   20MOL    C24 6522   6.106   5.476   4.975  0.1858  0.0366 -0.1017
   20MOL    C25 6523   6.085   5.455   5.123  0.2376 -0.3574 -0.2724
   20MOL    O26 6524   5.983   5.418   5.177  0.0491 -0.3713  0.9357
   20MOL    H27 6525   6.230   5.337   5.494 -3.0341 -1.8077 -0.1584
   20MOL    H28 6526   6.103   5.305   5.372 -1.8793  2.2767  3.2135
   20MOL    H29 6527   6.316   5.522   5.365 -0.0370  1.0085 -2.0049
   20MOL    H30 6528   6.336   5.631   5.129 -0.1902  0.5820 -1.3399
   20MOL    H31 6529   6.388   5.463   5.118 -0.7141 -0.1745  3.7034
   20MOL    H32 6530   6.233   5.638   4.928  1.7420 -0.4198 -1.0817
   20MOL    H33 6531   6.306   5.478   4.896 -0.6417  0.5580 -1.3475
   20MOL    H34 6532   6.027   5.537   4.933  1.3633  1.7304  0.0672
   20MOL    H35 6533   6.103   5.378   4.927 -0.1031 -0.5826  1.1521
   20MOL    C36 6534   6.117   5.573   5.414 -0.0681 -0.0591 -0.2941
   20MOL    C37 6535   6.154   5.594   5.563  0.0427 -0.0604  0.7383
   20MOL    N38 6536   6.285   5.665   5.584  0.2964 -0.7367  0.5375
   20MOL    C39 6537   6.381   5.603   5.674  0.7213 -0.0799  0.2151
   20MOL    C40 6538   6.506   5.682   5.642  0.0256  0.7553 -0.2186
   20MOL    C41 6539   6.487   5.768   5.520 -0.1746 -0.0735 -0.3213
   20MOL    C42 6540   6.341   5.763   5.505 -0.6591  0.2984  0.5734
   20MOL    O43 6541   6.274   5.841   5.435  0.0828  0.2773 -0.4772
   20MOL    H44 6542   6.019   5.525   5.403 -0.3873  0.4358  0.3756
   20MOL    H45 6543   6.106   5.673   5.372  2.1563 -0.3135 -1.5895
   20MOL    H46 6544   6.164   5.496   5.610 -1.6646 -1.0915 -0.9752
   20MOL    H47 6545   6.344   5.602   5.776  0.2062  0.6532  0.0431
   20MOL    H48 6546   6.389   5.496   5.655  1.8656 -0.0434  0.4651
   20MOL    H49 6547   6.530   5.752   5.722  0.9256  0.7520 -0.4820
   20MOL    H50 6548   6.593   5.621   5.616  0.2430  0.3576  1.3924
   20MOL    H51 6549   6.529   5.863   5.551  2.0042 -1.4580  1.0954
   20MOL    H52 6550   6.545   5.731   5.435  0.6910  0.8185 -0.1204
   20MOL    C53 6551   6.044   5.683   5.628 -0.0034 -0.3823 -0.1990
   20MOL    C54 6552   5.906   5.606   5.642 -0.1363  0.4580 -0.0149
   20MOL    N55 6553   5.919   5.480   5.725 -0.5540 -0.6865  0.2371
   20MOL    C56 6554   5.861   5.363   5.664  0.0380 -0.3711  0.2878
   20MOL    C57 6555   5.847   5.253   5.775 -0.5171 -0.3227 -0.0107
   20MOL    C58 6556   5.933   5.322   5.892  0.7536  0.0869 -0.0368
   20MOL    C59 6557   5.957   5.467   5.853 -0.1566  0.5284 -0.5531
   20MOL    O60 6558   5.996   5.551   5.936 -0.2437  0.1154  0.3487
   20MOL    H61 6559   6.049   5.780   5.577 -1.6083  0.3817  1.0352
   20MOL    H62 6560   6.077   5.700   5.730  1.7749  0.9503 -0.9625
   20MOL    H63 6561   5.874   5.572   5.543 -0.8509 -0.1690  0.4318
   20MOL    H64 6562   5.765   5.389   5.619 -0.2764  1.1214  1.7573
   20MOL    H65 6563   5.938   5.331   5.595  0.4707 -0.4476  0.8032
   20MOL    H66 6564   5.745   5.222   5.797 -0.1654 -0.7932  0.9678
   20MOL    H67 6565   5.895   5.160   5.745 -0.1386  0.0144 -0.4588
   20MOL    H68 6566   5.886   5.312   5.990  3.0693 -1.1227  0.9913
   20MOL    H69 6567   6.034   5.283   5.899  0.5448 -0.7512 -1.4207
   20MOL    C70 6568   5.797   5.703   5.683  0.2730  0.0537 -0.3853
   20MOL    C71 6569   5.772   5.826   5.600 -0.1587 -0.4811  0.2454
   20MOL    N72 6570   5.812   5.822   5.460 -0.1783  0.4293  0.0829
   20MOL    C73 6571   5.888   5.931   5.405  1.0991  0.0538 -0.0906
   20MOL    C74 6572   5.923   5.886   5.267 -0.5418  0.3265 -0.3757
   20MOL    C75 6573   5.824   5.783   5.232  0.3082  0.0452  0.0146
   20MOL    C76 6574   5.760   5.749   5.366  0.5962 -0.2834 -0.5059
   20MOL    O77 6575   5.684   5.652   5.373  0.3686 -0.0981  0.3303
   20MOL    H78 6576   5.812   5.747   5.781 -0.8242  2.3052 -1.1903
   20MOL    H79 6577   5.710   5.637   5.684  1.5099 -1.6021  1.6916
   20MOL    H80 6578   5.834   5.904   5.645 -0.5732 -1.2945  2.2982
   20MOL    H81 6579   5.824   6.019   5.412  1.7399  0.4347  1.0962
   20MOL    H82 6580   5.976   5.947   5.467  0.6023  1.9867  0.1520
   20MOL    H83 6581   5.916   5.972   5.200 -1.1559 -0.6402 -1.5499
   20MOL    H84 6582   6.027   5.852   5.269 -1.2267 -1.8096 -0.9711
   20MOL    H85 6583   5.745   5.811   5.162  0.3675 -2.0603 -0.9235
   20MOL    H86 6584   5.873   5.696   5.190 -1.4030 -0.0285 -1.8921
   20MOL    C87 6585   5.621   5.863   5.605 -0.4909  0.0930 -0.2919
   20MOL    C88 6586   5.573   5.907   5.745  0.5194  0.2637  0.8066
   20MOL    N89 6587   5.637   6.028   5.797  0.1376  0.0033 -0.2367
   20MOL    C90 6588   5.663   6.040   5.940 -0.2527  0.3290 -0.3920
   20MOL    C91 6589   5.684   6.190   5.963  0.4690 -0.4261  0.5464
   20MOL    C92 6590   5.723   6.249   5.832  1.2856 -0.1684 -0.6079
   20MOL    C93 6591   5.681   6.139   5.732 -0.2192 -0.2490  0.2667
   20MOL    O94 6592   5.679   6.157   5.612  0.3304 -0.3575 -0.1142
   20MOL    H95 6593   5.556   5.779   5.577 -0.8008 -0.5680  2.3261
   20MOL    H96 6594   5.593   5.943   5.536  1.5861  1.7839  0.7960
   20MOL    H97 6595   5.579   5.818   5.808 -1.0938 -0.3444  0.1323
   20MOL    H98 6596   5.584   5.997   6.002 -0.5790  0.8696 -0.4232
   20MOL    H99 6597   5.751   5.981   5.961 -0.4439  0.1749 -0.0136
   20MOL   H100 6598   5.601   6.246   6.007  3.1771  2.4945  2.2197
   20MOL   H101 6599   5.770   6.197   6.031  2.1716 -2.0338 -1.3667
   20MOL   H102 6600   5.677   6.345   5.812  1.2685 -0.1076 -0.2887
   20MOL   H103 6601   5.832   6.255   5.826  1.2411  3.5303  1.3245
   20MOL   C104 6602   5.423   5.936   5.738  0.0162  0.1828  1.6017
   20MOL   C105 6603   5.314   5.827   5.711 -0.1206  0.0369  0.0473
   20MOL   N106 6604   5.323   5.710   5.803 -0.1821 -0.4173  0.5936
   20MOL   C107 6605   5.365   5.591   5.733 -0.3184  0.7710  0.6590
   20MOL   C108 6606   5.390   5.493   5.846 -0.5073  0.5913 -0.2262
   20MOL   C109 6607   5.379   5.572   5.980  0.0262  0.7586  0.3014
   20MOL   C110 6608   5.334   5.708   5.935 -0.1940  0.2624  0.6030
   20MOL   O111 6609   5.324   5.808   6.013 -0.0147 -0.2754  0.0350
   20MOL   H112 6610   5.406   6.013   5.662  0.9204  1.5408  2.7417
   20MOL   H113 6611   5.398   5.992   5.828 -1.6383  2.6852 -0.3296
   20MOL   H114 6612   5.332   5.782   5.614  1.6468 -0.0174  0.3841
   20MOL   H115 6613   5.292   5.559   5.658 -1.8582  2.4983  1.3833
   20MOL   H116 6614   5.456   5.614   5.679 -1.1010  0.1269 -0.9525
   20MOL   H117 6615   5.314   5.415   5.845 -0.9300  1.0006 -2.5469
   20MOL   H118 6616   5.485   5.445   5.822  0.4395  3.6493 -3.0454
   20MOL   H119 6617   5.479   5.584   6.022  1.2972 -0.2039 -2.3465
   20MOL   H120 6618   5.309   5.529   6.051  0.4825 -1.0067 -0.3100
   20MOL   C121 6619   5.179   5.894   5.714 -0.1686 -0.3795  0.4049
   20MOL   C122 6620   5.060   5.807   5.664  0.9335 -1.2354  0.9828
   20MOL   N123 6621   4.976   5.762   5.774  0.0729  0.7154 -0.0772
   20MOL   C124 6622   4.969   5.619   5.798  0.0754 -0.2930  0.3297
   20MOL   C125 6623   4.875   5.603   5.920  0.6248  1.0879  0.8005
   20MOL   C126 6624   4.835   5.742   5.963  0.1969 -0.2466 -0.4849
   20MOL   C127 6625   4.898   5.836   5.862 -0.2798 -0.1068  0.2250
   20MOL   O128 6626   4.879   5.958   5.863 -0.3114  0.0277 -0.2206
   20MOL   H129 6627   5.188   5.987   5.659 -1.0152 -0.5774 -0.0697
   20MOL   H130 6628   5.162   5.929   5.816  1.1192 -0.1744  0.5640
   20MOL   H131 6629   5.102   5.714   5.626 -2.1566 -3.0662  1.8435
   20MOL   H132 6630   5.062   5.574   5.833  0.7623  1.9579  1.4863
   20MOL   H133 6631   4.933   5.565   5.710  0.1893 -1.7829  1.1716
   20MOL   H134 6632   4.792   5.539   5.891  0.2734  2.1610 -0.6396
   20MOL   H135 6633   4.928   5.560   6.005 -0.5768  1.0997  1.5731
   20MOL   H136 6634   4.727   5.756   5.967  0.1671 -0.4025 -0.7168
   20MOL   H137 6635   4.885   5.770   6.056 -0.0537  2.3675 -1.0857
   20MOL   C138 6636   4.982   5.883   5.553 -0.7059 -0.0848 -0.5569
   20MOL   C139 6637   5.049   5.880   5.414  0.2466  0.0191  0.0039
   20MOL   N140 6638   5.023   5.757   5.336 -0.1236  0.0240 -0.2897
   20MOL   C141 6639   5.125   5.652   5.315 -0.5560  0.2562 -0.0883
   20MOL   C142 6640   5.051   5.537   5.258  0.2600 -0.4509 -0.1106
   20MOL   C143 6641   4.906   5.559   5.275  0.0806  0.0730 -0.1912
   20MOL   C144 6642   4.903   5.706   5.312  0.1425 -0.1159 -0.6142
   20MOL   O145 6643   4.795   5.765   5.328  0.1437 -0.1002  0.3966
   20MOL   H146 6644   4.966   5.984   5.590  0.5280  0.9158 -2.6698
   20MOL   H147 6645   4.883   5.838   5.548 -0.7912  0.0769 -0.3036
   20MOL   H148 6646   5.158   5.883   5.415  0.2792 -0.8572 -0.3968
   20MOL   H149 6647   5.212   5.675   5.253 -0.8859 -0.1603 -0.7009
   20MOL   H150 6648   5.164   5.620   5.412  0.1689  0.0336 -0.4496
   20MOL   H151 6649   5.085   5.532   5.155  0.8483  1.4285 -0.0258
   20MOL   H152 6650   5.087   5.440   5.291 -2.4461 -1.1535  0.8965
   20MOL   H153 6651   4.870   5.501   5.360 -0.6844  1.2468  0.2901
   20MOL   H154 6652   4.844   5.543   5.186 -0.4368  0.8841  0.0209
   20MOL   C155 6653   5.009   6.005   5.325  0.4181  0.1731  0.4997
   20MOL   C156 6654   5.091   6.137   5.359  0.2347  0.9731 -0.0555
   20MOL   N157 6655   5.241   6.122   5.331  0.5953  0.2713  0.8544
   20MOL   C158 6656   5.325   6.211   5.417  0.2647  0.5563 -0.0215
   20MOL   C159 6657   5.468   6.211   5.345 -0.6095  0.6969  0.1814
   20MOL   C160 6658   5.459   6.102   5.237  0.0456 -0.4576  0.2591
   20MOL   C161 6659   5.312   6.071   5.224 -0.2752 -0.3105  0.0337
   20MOL   O162 6660   5.269   6.011   5.123  0.3420 -0.4668 -0.0316
   20MOL   H163 6661   4.905   6.037   5.332 -0.4614 -2.3988 -0.3664
   20MOL   H164 6662   5.030   5.974   5.223  0.3254 -0.9912  0.8323
   20MOL   H165 6663   5.091   6.158   5.466  0.0682 -0.7114  0.2879
   20MOL   H166 6664   5.305   6.318   5.421 -1.2534  0.2560  0.4675
   20MOL   H167 6665   5.346   6.167   5.514 -2.9649 -2.1614 -0.4656
   20MOL   H168 6666   5.474   6.308   5.297  1.8941  0.8689  0.7703
   20MOL   H169 6667   5.542   6.203   5.424  1.2163  1.3600 -1.4155
   20MOL   H170 6668   5.497   6.147   5.145  1.3352 -0.2464  0.8888
   20MOL   H171 6669   5.523   6.015   5.245  0.0192 -0.4828  0.1882
   20MOL   C172 6670   5.039   6.268   5.292  0.8559 -0.1388 -0.5999
   20MOL   C173 6671   4.888   6.309   5.301 -0.4102 -0.0847  0.4864
   20MOL   N174 6672   4.833   6.287   5.433 -0.5483 -0.0654  0.8600
   20MOL   C175 6673   4.719   6.198   5.443  0.7850 -0.8149 -0.3298
   20MOL   C176 6674   4.700   6.172   5.593  0.8129 -0.1969 -1.0192
   20MOL   C177 6675   4.772   6.281   5.661  0.0044 -0.1013 -0.0134
   20MOL   C178 6676   4.863   6.339   5.554 -0.3832  0.4972  0.0788
   20MOL   O179 6677   4.971   6.404   5.570 -0.6400  0.3381  0.2748
   20MOL   H180 6678   5.054   6.253   5.185 -1.1754  1.7182 -1.1694
   20MOL   H181 6679   5.096   6.353   5.328  1.1356  0.2407 -1.9017
   20MOL   H182 6680   4.834   6.246   5.229  0.3628  1.3253 -1.3604
   20MOL   H183 6681   4.629   6.243   5.402 -0.2557 -1.8453  0.7953
   20MOL   H184 6682   4.716   6.108   5.383 -0.8118 -1.9370  1.3778
   20MOL   H185 6683   4.750   6.084   5.633 -0.1359 -0.2285  0.1350
   20MOL   H186 6684   4.598   6.157   5.629  1.3212 -2.4635 -0.4278
   20MOL   H187 6685   4.711   6.366   5.694 -0.8751  0.0631 -2.0370
   20MOL   H188 6686   4.835   6.253   5.746  1.2772  0.5502 -0.7208
   20MOL   C189 6687   4.872   6.458   5.259  0.3880 -0.0288 -0.1292
   20MOL   C190 6688   4.929   6.496   5.122 -0.1025 -0.1655  0.5669
   20MOL   N191 6689   4.870   6.414   5.013  0.4870 -0.8605  0.2569
   20MOL   C192 6690   4.951   6.333   4.923  0.1732  0.6698  0.3790
   20MOL   C193 6691   4.854   6.257   4.838  1.0901  0.6985  0.4728
   20MOL   C194 6692   4.728   6.340   4.839  0.6607  0.1418  0.3098
   20MOL   C195 6693   4.745   6.423   4.968 -0.2265  0.2075 -0.2144
   20MOL   O196 6694   4.656   6.488   5.019 -0.8414 -0.4447  0.2266
   20MOL   H197 6695   4.915   6.523   5.336 -1.5163 -0.4892  1.3516
   20MOL   H198 6696   4.765   6.479   5.258  0.3332 -0.3431 -2.1849
   20MOL   H199 6697   5.031   6.462   5.137 -0.1591 -0.4992  0.1823
   20MOL   H200 6698   5.008   6.397   4.856 -0.9369 -0.9600 -2.2195
   20MOL   H201 6699   5.017   6.275   4.987 -0.6446 -0.5769  0.0985
   20MOL   H202 6700   4.884   6.243   4.734  2.6036 -1.2671  1.1318
   20MOL   H203 6701   4.833   6.158   4.880 -0.7509  0.8703 -0.0065
   20MOL   H204 6702   4.720   6.403   4.751 -0.1552 -0.3603  0.0232
   20MOL   H205 6703   4.647   6.268   4.851 -1.5036  1.9581 -2.6924
   20MOL   C206 6704   4.913   6.651   5.100 -0.6460  0.0343  0.3903
   20MOL   C207 6705   4.982   6.706   4.977  0.5786 -0.3088  0.1665
   20MOL   N208 6706   4.911   6.824   4.932  0.2451 -0.5034  0.4177
   20MOL   C209 6707   4.855   6.822   4.793 -0.2581  0.1702  0.1359
   20MOL   C210 6708   4.796   6.950   4.769 -0.1005  0.5301 -0.1126
   20MOL   C211 6709   4.782   7.026   4.903 -0.1890 -1.1528 -0.1601
   20MOL   C212 6710   4.863   6.937   4.995 -0.0157  0.1179 -0.1780
   20MOL   O213 6711   4.884   6.967   5.117 -0.3488  0.1015 -0.3864
   20MOL   H214 6712   4.954   6.704   5.186 -0.6079  3.1279 -1.4507
   20MOL   H215 6713   4.808   6.678   5.097 -0.4072  1.3498  2.7126
   20MOL   H216 6714   4.982   6.628   4.900  1.9970  0.8622 -1.0366
   20MOL   H217 6715   4.936   6.796   4.725 -0.2814  0.2213  0.0884
   20MOL   H218 6716   4.779   6.746   4.777  1.4739 -1.2093 -1.7429
   20MOL   H219 6717   4.860   6.999   4.696  1.3598  1.6660  1.8723
   20MOL   H220 6718   4.701   6.930   4.719  0.9886 -0.2455 -1.9269
   20MOL   H221 6719   4.836   7.121   4.903 -0.4023 -1.0038  2.1591
   20MOL   H222 6720   4.677   7.043   4.929 -0.8686  2.0915 -4.4660
   20MOL   C223 6721   5.132   6.741   4.995 -0.2792  0.6472  0.4526
   20MOL   C224 6722   5.240   6.641   5.051 -0.3446  0.3468  0.0231
   20MOL   N225 6723   5.270   6.526   4.962  0.4222  0.6446 -0.6709
   20MOL   C226 6724   5.304   6.404   5.033  0.2005 -0.2129  0.2723
   20MOL   C227 6725   5.315   6.299   4.912  0.3458 -0.0455  0.0277
   20MOL   C228 6726   5.309   6.379   4.781  0.0135 -0.4982  0.6563
   20MOL   C229 6727   5.282   6.519   4.829 -0.1182  0.3307 -0.6409
   20MOL   O230 6728   5.264   6.617   4.753  0.6118 -0.0119 -0.4034
   20MOL   H231 6729   5.123   6.818   5.072  0.0429 -1.0497  2.2457
   20MOL   H232 6730   5.162   6.784   4.900  1.5826 -1.8222 -0.1289
   20MOL   H233 6731   5.198   6.610   5.146  0.6668  0.0127  0.3696
   20MOL   H234 6732   5.393   6.426   5.094  1.1270 -0.3048 -1.0190
   20MOL   H235 6733   5.228   6.368   5.102 -0.0493 -0.3484 -0.0747
   20MOL   H236 6734   5.412   6.249   4.900  0.8800  0.9535  0.1038
   20MOL   H237 6735   5.235   6.225   4.910 -0.7498  1.1496 -1.3235
   20MOL   H238 6736   5.404   6.380   4.726  0.7313  0.7281  1.8822
   20MOL   H239 6737   5.229   6.337   4.721  0.4130 -5.6540  3.4730
   20MOL   C240 6738   5.375   6.708   5.084  0.1427  0.1251  0.1059
   20MOL   C241 6739   5.380   6.821   5.193  0.6388 -0.6010  0.1490
   20MOL   N242 6740   5.310   6.775   5.313 -0.3850  0.2147 -0.4439
   20MOL   C243 6741   5.220   6.861   5.389 -0.2334 -0.0064  0.3897
   20MOL   C244 6742   5.189   6.799   5.523  0.9532  0.5056  0.3854
   20MOL   C245 6743   5.260   6.662   5.520  0.4753 -0.7112  0.1742
   20MOL   C246 6744   5.323   6.658   5.381 -0.1459  0.3864  0.3994
   20MOL   O247 6745   5.388   6.562   5.350  0.3962  0.2254 -0.2109
   20MOL   H248 6746   5.410   6.746   4.988  0.7761  0.9988  0.6792
   20MOL   H249 6747   5.448   6.630   5.103 -0.2069 -0.4287 -0.7783
   20MOL   H250 6748   5.332   6.913   5.159  1.5464 -0.9095 -2.0027
   20MOL   H251 6749   5.256   6.962   5.404 -0.5715  0.4405 -1.6169
   20MOL   H252 6750   5.121   6.872   5.344 -0.5679  2.7045  1.6833
   20MOL   H253 6751   5.216   6.864   5.606  1.7304  0.6998 -0.0210
   20MOL   H254 6752   5.083   6.773   5.532  0.9752  0.4622  0.5167
   20MOL   H255 6753   5.334   6.655   5.599  0.0323 -1.4804  0.5321
   20MOL   H256 6754   5.193   6.578   5.540  1.4440 -0.9974  2.3632
   20MOL   C257 6755   5.526   6.851   5.233 -0.0290  0.1771 -0.0816
   20MOL   C258 6756   5.613   6.886   5.113  0.0964 -0.2652 -0.3864
   20MOL   N259 6757   5.573   7.021   5.063 -0.3818  0.0687  0.6620
   20MOL   C260 6758   5.543   7.033   4.924  0.4698 -0.3948 -0.3834
   20MOL   C261 6759   5.505   7.180   4.901  0.1944 -0.3396 -0.5833
   20MOL   C262 6760   5.551   7.249   5.033  0.3546 -0.9432  0.0565
   20MOL   C263 6761   5.586   7.142   5.129  0.0909  0.2357  0.5035
   20MOL   O264 6762   5.624   7.173   5.244 -0.4320  0.0481 -0.6985
   20MOL   H265 6763   5.562   6.758   5.278  1.5180  0.2577 -1.0887
   20MOL   H266 6764   5.527   6.928   5.310 -1.4601  0.2649 -0.1470
   20MOL   H267 6765   5.623   6.819   5.027  0.4369  1.1458 -1.4712
   20MOL   H268 6766   5.624   6.999   4.860 -0.1374 -2.6491 -0.0108
   20MOL   H269 6767   5.457   6.972   4.894 -0.0026  0.3190 -0.4976
   20MOL   H270 6768   5.565   7.215   4.817  0.0424 -0.1285 -0.6040
   20MOL   H271 6769   5.408   7.196   4.856  0.9992  4.2025 -0.8961
   20MOL   H272 6770   5.637   7.316   5.028 -0.7284  0.6507  1.9058
   20MOL   H273 6771   5.464   7.305   5.065  0.7386 -0.6979  0.6949
   20MOL   C274 6772   5.762   6.887   5.169  0.3354 -0.2727  0.6967
   20MOL   C275 6773   5.829   6.750   5.159 -0.3231 -0.6627  0.3381
   20MOL   N276 6774   5.853   6.709   5.020  0.1032  0.6158 -0.7589
   20MOL   C277 6775   5.929   6.792   4.927  0.1590 -0.1033 -0.3983
   20MOL   C278 6776   5.989   6.701   4.819  0.1698  0.4678  0.2746
   20MOL   C279 6777   5.911   6.572   4.832  0.1896  0.8412  0.7435
   20MOL   C280 6778   5.832   6.592   4.965 -0.2570 -0.1806 -0.2214
   20MOL   O281 6779   5.769   6.499   5.007  0.0643 -0.1893 -0.3667
   20MOL   H282 6780   5.757   6.932   5.268 -1.3274  2.4670 -0.5759
   20MOL   H283 6781   5.826   6.958   5.116 -1.4386  0.2296 -0.8211
   20MOL   H284 6782   5.758   6.688   5.214 -0.9210 -0.3167 -0.0382
   20MOL   H285 6783   5.856   6.855   4.875 -0.2363  1.1849  1.6279
   20MOL   H286 6784   5.988   6.873   4.972 -0.5182 -0.2985  0.8821
   20MOL   H287 6785   5.981   6.751   4.723 -0.7099 -0.3381 -0.0779
   20MOL   H288 6786   6.096   6.683   4.828 -0.0080 -1.7293 -1.7784
   20MOL   H289 6787   5.843   6.558   4.748  2.0607 -0.6251 -0.5387
   20MOL   H290 6788   5.969   6.482   4.846  0.1835  0.4396 -1.6937
   20MOL   C291 6789   5.962   6.737   5.247  0.1673  0.2826  0.1006
   20MOL   C292 6790   5.947   6.757   5.398  0.2537  0.0278 -0.4121
   20MOL   N293 6791   5.879   6.634   5.443 -0.3605  0.4384 -0.0918
   20MOL   C294 6792   5.942   6.505   5.418  0.7595 -0.2508 -0.3299
   20MOL   C295 6793   5.853   6.401   5.488  0.1832  0.5718 -0.3112
   20MOL   C296 6794   5.720   6.475   5.495  0.1210  0.1419 -0.8651
   20MOL   C297 6795   5.755   6.620   5.488  0.0664 -0.1820 -0.5384
   20MOL   O298 6796   5.677   6.714   5.507 -0.2144 -0.8143  0.0580
   20MOL   H299 6797   6.023   6.818   5.206  1.2697  1.5706  4.0799
   20MOL   H300 6798   6.024   6.653   5.216  0.7114  1.2811 -1.5936
   20MOL   H301 6799   5.891   6.848   5.421 -0.3593 -0.7874  1.4313
   20MOL   H302 6800   5.937   6.489   5.310 -0.0287 -1.1604 -0.1625
   20MOL   H303 6801   6.046   6.503   5.450 -0.3241 -0.8747  3.3623
   20MOL   H304 6802   5.851   6.304   5.437  1.1225  0.7663 -0.7299
   20MOL   H305 6803   5.893   6.387   5.588  0.4763 -2.6816 -0.8277
   20MOL   H306 6804   5.658   6.446   5.410  1.5917  0.1864 -1.9716
   20MOL   H307 6805   5.663   6.449   5.585  1.2860  0.5183  0.0003
   20MOL   C308 6806   6.076   6.784   5.490 -0.0025 -0.3467 -0.3618
   20MOL   C309 6807   6.154   6.915   5.443 -0.0988 -0.4179  0.1460
   20MOL   N310 6808   6.064   7.035   5.449 -0.2518 -0.4315 -0.4570
   20MOL   C311 6809   6.042   7.104   5.324 -0.1377  0.6115  0.4502
   20MOL   C312 6810   5.988   7.243   5.362 -0.3678 -0.3318 -0.0195
   20MOL   C313 6811   5.924   7.218   5.498 -0.6435  0.3265 -0.7427
   20MOL   C314 6812   5.995   7.090   5.548  0.0963 -1.2002 -1.0453
   20MOL   O315 6813   5.972   7.037   5.654 -0.4779  0.2295  0.0433
   20MOL   H316 6814   6.139   6.700   5.464 -0.1201 -1.4555  2.8123
   20MOL   H317 6815   6.046   6.787   5.595  1.2728 -1.8004  0.0558
   20MOL   H318 6816   6.190   6.900   5.341 -3.7616  2.0768 -1.6195
   20MOL   H319 6817   6.134   7.114   5.266 -0.5247  0.8518 -0.1256
   20MOL   H320 6818   5.962   7.054   5.272  0.4276 -2.0225  2.0351
   20MOL   H321 6819   6.073   7.309   5.377 -0.0027 -1.0738  1.1593
   20MOL   H322 6820   5.918   7.285   5.289 -0.1568 -2.3841 -1.4727
   20MOL   H323 6821   5.931   7.295   5.575  0.6904 -0.0799 -0.4446
   20MOL   H324 6822   5.817   7.202   5.484 -0.4045 -2.4868  0.2693
   20MOL   C325 6823   6.274   6.925   5.536 -0.4002  0.2252  0.4955
   20MOL   C326 6824   6.378   7.029   5.486  0.1680  0.0692 -0.7915
   20MOL   N327 6825   6.507   7.016   5.550  0.2307 -0.8309  0.5250
   20MOL   C328 6826   6.545   7.101   5.654 -0.1435  0.0784 -0.4730
   20MOL   C329 6827   6.698   7.114   5.651  0.0802 -0.0856 -0.7975
   20MOL   C330 6828   6.742   6.989   5.570 -0.3873  0.3411 -0.4208
   20MOL   C331 6829   6.612   6.951   5.502  0.4629  0.7582 -0.9721
   20MOL   O332 6830   6.604   6.862   5.421  0.3023 -0.1543  0.3344
   20MOL   H333 6831   6.328   6.833   5.556 -0.4881  0.2368  0.7927
   20MOL   H334 6832   6.236   6.949   5.636 -1.3511 -0.7877  0.3843
   20MOL   H335 6833   6.343   7.128   5.516 -1.1086 -0.5640 -0.1829
   20MOL   H336 6834   6.506   7.202   5.666  1.0683  0.6290 -1.0329
   20MOL   H337 6835   6.531   7.053   5.751  1.1458  3.5435  1.4998
   20MOL   H338 6836   6.732   7.201   5.595 -0.2686  1.4240  1.2863
   20MOL   H339 6837   6.741   7.117   5.751 -2.4744  0.6935  0.2929
   20MOL   H340 6838   6.813   7.009   5.490 -0.5843 -1.2398 -1.0037
   20MOL   H341 6839   6.791   6.903   5.616  1.2299  2.0929  1.1954
   20MOL   H342 6840   6.388   7.016   5.378  1.8782 -4.5292 -0.1798
   21MOL     C1 6841   3.822   2.845   3.385 -0.5678  0.0087 -0.5685
   21MOL     C2 6842   3.845   2.708   3.445 -0.8496 -0.0674  0.4586
   21MOL     N3 6843   3.756   2.689   3.557 -0.1104 -0.5158  0.5476
   21MOL     C4 6844   3.798   2.705   3.694  0.6650  0.1821 -0.5715
   21MOL     C5 6845   3.680   2.701   3.789  0.1384 -0.0971 -0.8565
   21MOL     C6 6846   3.565   2.673   3.690 -0.2685 -0.0959 -0.2046
   21MOL     C7 6847   3.625   2.682   3.552 -0.3604 -0.7212  0.7086
   21MOL     O8 6848   3.556   2.698   3.448  0.3043  0.3830 -0.1718
   21MOL     H9 6849   3.890   2.875   3.305  1.1110  0.8522  1.1157
   21MOL    H10 6850   3.724   2.848   3.338 -0.4508 -0.6520 -0.8627
   21MOL    H11 6851   3.948   2.709   3.482 -0.3182  1.9814 -0.9913
   21MOL    H12 6852   3.846   2.609   3.717  1.1294  0.5125 -0.1466
   21MOL    H13 6853   3.869   2.786   3.706 -0.2699  0.9371 -0.0949
   21MOL    H14 6854   3.682   2.619   3.861 -1.4870  0.2494 -0.4048
   21MOL    H15 6855   3.665   2.793   3.845 -0.9214 -0.4569 -0.5450
   21MOL    H16 6856   3.525   2.573   3.704 -0.6093  0.2404  1.3287
   21MOL    H17 6857   3.492   2.754   3.689 -0.0989  0.0598 -1.4198
   21MOL    H18 6858   3.819   2.925   3.459 -0.4960 -0.3434 -0.1852
   21MOL    C19 6859   3.842   2.587   3.344 -0.2799  0.4452 -0.2077
   21MOL    C20 6860   3.923   2.612   3.219  0.1035  0.6242 -0.7754
   21MOL    N21 6861   4.065   2.630   3.254  0.3304  0.1200 -0.1854
   21MOL    C22 6862   4.137   2.737   3.184  0.1785  0.6754 -0.3021
   21MOL    C23 6863   4.288   2.699   3.204 -0.1287  0.6748 -0.1452
   21MOL    C24 6864   4.291   2.577   3.296 -0.4206 -0.4801 -0.5327
   21MOL    C25 6865   4.145   2.536   3.308  0.1009 -0.7060 -0.3741
   21MOL    O26 6866   4.118   2.433   3.373 -0.2523 -0.0170 -0.3788
   21MOL    H27 6867   3.750   2.547   3.302 -0.2879 -0.8782  1.0307
   21MOL    H28 6868   3.872   2.496   3.396 -2.0681 -1.1090 -1.8148
   21MOL    H29 6869   3.895   2.709   3.177 -0.8372 -0.5390 -2.9323
   21MOL    H30 6870   4.118   2.754   3.078 -2.5744  0.7103  0.1721
   21MOL    H31 6871   4.126   2.832   3.236  0.5876  1.4417 -1.5889
   21MOL    H32 6872   4.340   2.682   3.110 -0.3018 -1.6500  0.1386
   21MOL    H33 6873   4.346   2.780   3.246 -2.5991  0.9345  2.9435
   21MOL    H34 6874   4.357   2.498   3.260  1.5468  0.9863 -0.2117
   21MOL    H35 6875   4.334   2.603   3.393 -1.2936 -0.4280 -0.1572
   21MOL    C36 6876   3.918   2.495   3.119 -0.4121 -0.4239  0.0526
   21MOL    C37 6877   3.877   2.548   2.978 -0.3938 -0.7564  0.3340
   21MOL    N38 6878   3.920   2.464   2.874  0.8425 -0.4096 -0.1002
   21MOL    C39 6879   4.019   2.512   2.770 -0.2444 -0.2805  0.4020
   21MOL    C40 6880   4.052   2.390   2.676 -0.8140 -0.3150 -0.4250
   21MOL    C41 6881   3.949   2.283   2.724 -0.5553 -0.2327 -0.3610
   21MOL    C42 6882   3.887   2.336   2.848 -0.3939  0.1918 -0.0680
   21MOL    O43 6883   3.816   2.274   2.923 -0.1871 -0.5032 -0.1365
   21MOL    H44 6884   3.844   2.423   3.153  1.7084 -2.0593  1.3338
   21MOL    H45 6885   4.015   2.445   3.111  0.6042  1.5606 -0.2102
   21MOL    H46 6886   3.938   2.638   2.971 -0.0279 -1.1551 -2.5199
   21MOL    H47 6887   3.973   2.590   2.709  3.1117  1.1760 -0.4041
   21MOL    H48 6888   4.107   2.560   2.813 -1.1229  2.4895 -0.7123
   21MOL    H49 6889   4.028   2.401   2.570 -0.5956  2.5961 -0.2157
   21MOL    H50 6890   4.156   2.359   2.679 -0.4527  0.9219 -0.1417
   21MOL    H51 6891   3.882   2.246   2.647 -2.9749  2.6948  0.2488
   21MOL    H52 6892   4.001   2.190   2.744  0.9422  0.0233 -2.9047
   21MOL    C53 6893   3.731   2.590   2.968 -0.4198  0.1332 -0.0190
   21MOL    C54 6894   3.701   2.716   2.883 -0.7372  0.2219  0.1304
   21MOL    N55 6895   3.561   2.713   2.845  0.3361 -0.0809  0.2971
   21MOL    C56 6896   3.521   2.794   2.721 -0.2599 -0.1238  0.5913
   21MOL    C57 6897   3.370   2.767   2.695  0.0320  0.2404  0.0785
   21MOL    C58 6898   3.326   2.682   2.816 -0.3006 -0.6074 -0.0162
   21MOL    C59 6899   3.455   2.650   2.897  0.3266  0.2787 -0.2140
   21MOL    O60 6900   3.454   2.575   2.994 -0.5211 -0.1845 -0.0559
   21MOL    H61 6901   3.689   2.615   3.065 -0.5683 -0.1159 -0.0193
   21MOL    H62 6902   3.680   2.500   2.934  0.6483 -0.9508  1.2331
   21MOL    H63 6903   3.758   2.697   2.793 -0.5169  1.5770 -0.0199
   21MOL    H64 6904   3.537   2.900   2.742  1.1099 -0.0301 -0.8248
   21MOL    H65 6905   3.595   2.782   2.642  1.1308  0.1270  1.8496
   21MOL    H66 6906   3.322   2.864   2.690 -1.8038 -0.7208 -1.3953
   21MOL    H67 6907   3.358   2.708   2.604  1.8061  0.5675 -0.3917
   21MOL    H68 6908   3.266   2.753   2.872  2.7113  1.0367  1.2763
   21MOL    H69 6909   3.267   2.591   2.803 -2.8988  1.1584 -0.7750
   21MOL    C70 6910   3.740   2.847   2.958  0.2683  0.2249  0.3572
   21MOL    C71 6911   3.822   2.948   2.878 -0.0371  0.3653 -0.3714
   21MOL    N72 6912   3.846   3.071   2.956 -0.0181 -0.1262 -0.3769
   21MOL    C73 6913   3.766   3.185   2.930 -0.3761 -0.4668 -0.1283
   21MOL    C74 6914   3.842   3.300   2.988 -1.0834 -0.1752 -0.1772
   21MOL    C75 6915   3.918   3.242   3.108  0.1643  0.0500 -0.4315
   21MOL    C76 6916   3.933   3.096   3.056 -0.2507  0.4623 -0.2277
   21MOL    O77 6917   4.021   3.018   3.099 -0.0733  0.5436  0.3448
   21MOL    H78 6918   3.785   2.828   3.055 -0.5832  2.6792  1.2792
   21MOL    H79 6919   3.642   2.887   2.988  0.1000  0.1773 -0.1320
   21MOL    H80 6920   3.753   2.979   2.800  1.3126  0.2989 -1.6260
   21MOL    H81 6921   3.732   3.202   2.828  0.8504  0.8652 -0.3300
   21MOL    H82 6922   3.676   3.175   2.992  0.1915  0.8263  0.9205
   21MOL    H83 6923   3.905   3.351   2.916 -0.3811  1.2391  1.3991
   21MOL    H84 6924   3.775   3.373   3.034 -1.8721  0.9267 -2.9693
   21MOL    H85 6925   4.003   3.307   3.127  0.8849 -0.3315 -2.2165
   21MOL    H86 6926   3.850   3.248   3.193 -1.4155  0.2364 -1.6739
   21MOL    C87 6927   3.946   2.884   2.811 -0.1029  0.1164  0.2080
   21MOL    C88 6928   4.040   2.991   2.739  0.1846 -0.4748  0.1269
   21MOL    N89 6929   4.168   2.937   2.710 -0.3325  0.3163  0.2675
   21MOL    C90 6930   4.282   2.978   2.792 -0.2243  0.1313  0.6282
   21MOL    C91 6931   4.404   2.920   2.716 -0.2867 -0.6663 -0.4188
   21MOL    C92 6932   4.347   2.809   2.634  0.3471 -0.0879  0.1986
   21MOL    C93 6933   4.201   2.837   2.631  0.0627  0.6385 -0.2168
   21MOL    O94 6934   4.124   2.757   2.579  1.0258  0.6987  0.3313
   21MOL    H95 6935   3.914   2.811   2.736  0.3126 -1.3525  1.4334
   21MOL    H96 6936   3.998   2.836   2.894 -0.5759  0.9767  1.0165
   21MOL    H97 6937   4.057   3.076   2.803 -0.6296 -0.9860  1.0447
   21MOL    H98 6938   4.301   3.085   2.793  0.2137  0.0727 -0.3108
   21MOL    H99 6939   4.284   2.937   2.893  3.0342  1.5677  1.2204
   21MOL   H100 6940   4.451   2.986   2.644 -0.3471 -0.4993 -0.3046
   21MOL   H101 6941   4.482   2.887   2.784  0.5398 -1.3370 -1.6616
   21MOL   H102 6942   4.397   2.809   2.538 -1.0084  1.2403 -0.5374
   21MOL   H103 6943   4.364   2.715   2.687  0.4611  0.4487  1.1214
   21MOL   C104 6944   3.966   3.041   2.606  0.0701  0.2283 -0.1673
   21MOL   C105 6945   4.026   3.162   2.533 -0.3320  0.4980  0.3414
   21MOL   N106 6946   3.954   3.172   2.406 -0.2586 -0.2758  0.1112
   21MOL   C107 6947   4.012   3.121   2.280  0.4837  0.2010 -0.2317
   21MOL   C108 6948   3.898   3.114   2.179  0.5128 -0.0175 -0.0171
   21MOL   C109 6949   3.787   3.207   2.235 -0.8828 -0.1127  0.8497
   21MOL   C110 6950   3.826   3.221   2.381  0.0992  0.1649 -0.9278
   21MOL   O111 6951   3.755   3.285   2.462  0.0797  0.0866  0.5376
   21MOL   H112 6952   3.862   3.062   2.631  0.9107 -0.2904  4.0595
   21MOL   H113 6953   3.960   2.948   2.549 -0.8247  1.1201 -1.5595
   21MOL   H114 6954   4.128   3.147   2.495  0.5574  0.4481  2.6896
   21MOL   H115 6955   4.077   3.203   2.248 -0.3444  0.7443 -0.5368
   21MOL   H116 6956   4.074   3.032   2.289 -1.1873 -0.9894 -0.4104
   21MOL   H117 6957   3.943   3.140   2.084 -0.4185 -2.8269 -1.2889
   21MOL   H118 6958   3.863   3.011   2.174  0.5378  0.0369 -1.5000
   21MOL   H119 6959   3.681   3.183   2.239 -0.9442 -0.0140 -0.2296
   21MOL   H120 6960   3.792   3.308   2.196 -1.3834 -0.3741  0.0892
   21MOL   C121 6961   4.023   3.292   2.615 -0.5661  0.3076 -0.6672
   21MOL   C122 6962   4.075   3.422   2.556  0.0342  0.4297  0.1175
   21MOL   N123 6963   4.030   3.541   2.625  0.0811 -0.3084  0.5643
   21MOL   C124 6964   3.925   3.616   2.560  0.8184 -0.1234 -0.3902
   21MOL   C125 6965   3.878   3.722   2.664 -0.0890 -0.0059 -0.5782
   21MOL   C126 6966   3.934   3.668   2.797  0.4409 -0.0756  0.4293
   21MOL   C127 6967   4.045   3.577   2.753  0.0165 -0.8819 -0.0937
   21MOL   O128 6968   4.131   3.529   2.829  0.2532 -0.2003 -0.0980
   21MOL   H129 6969   4.083   3.272   2.704 -0.6015 -1.6994 -1.0823
   21MOL   H130 6970   3.922   3.314   2.648 -0.2232 -3.1014  3.0632
   21MOL   H131 6971   4.027   3.421   2.459 -1.3219 -1.9611  0.7723
   21MOL   H132 6972   3.845   3.553   2.521  1.4358 -0.0640 -1.8193
   21MOL   H133 6973   3.960   3.673   2.474  1.0672 -1.2497 -1.0454
   21MOL   H134 6974   3.914   3.822   2.638 -0.2837  0.3721  0.5789
   21MOL   H135 6975   3.769   3.719   2.662 -0.1691 -1.8589  2.8650
   21MOL   H136 6976   3.978   3.748   2.858 -0.7833 -0.5828  1.9969
   21MOL   H137 6977   3.860   3.612   2.853  0.5577 -0.4538  0.2029
   21MOL   C138 6978   4.235   3.425   2.543 -0.2265  0.3695 -0.3433
   21MOL   C139 6979   4.280   3.509   2.419 -1.1879  0.2539 -0.0881
   21MOL   N140 6980   4.423   3.531   2.416 -0.3810  0.1419 -0.2026
   21MOL   C141 6981   4.476   3.668   2.425 -0.0968  0.6850  0.6797
   21MOL   C142 6982   4.626   3.650   2.381  0.7130 -0.1037 -0.0799
   21MOL   C143 6983   4.652   3.495   2.371 -0.2058  0.8414 -0.2846
   21MOL   C144 6984   4.516   3.434   2.405  0.8991 -0.4590 -0.6283
   21MOL   O145 6985   4.491   3.317   2.407 -0.4525 -0.0879  0.0278
   21MOL   H146 6986   4.270   3.322   2.546 -0.5923  0.2530  0.0979
   21MOL   H147 6987   4.281   3.469   2.632  0.1691 -1.8563  0.5726
   21MOL   H148 6988   4.230   3.605   2.418 -2.2418 -0.2741  0.8548
   21MOL   H149 6989   4.419   3.742   2.368 -0.3298  0.1151  0.1804
   21MOL   H150 6990   4.458   3.709   2.525 -3.0326  1.6275 -0.1780
   21MOL   H151 6991   4.640   3.696   2.284  2.1563 -2.2849 -0.9528
   21MOL   H152 6992   4.693   3.699   2.451  1.2051 -1.4688  0.4237
   21MOL   H153 6993   4.726   3.459   2.443 -0.4704  2.4763  0.8492
   21MOL   H154 6994   4.689   3.457   2.276 -0.1322 -0.2490  0.1828
   21MOL   C155 6995   4.227   3.452   2.279 -0.0083  0.5335  0.6025
   21MOL   C156 6996   4.272   3.525   2.149 -0.1509  0.2195 -0.0321
   21MOL   N157 6997   4.263   3.430   2.033  0.0039 -0.0790  0.0055
   21MOL   C158 6998   4.381   3.375   1.960 -0.0400 -0.9560 -0.3511
   21MOL   C159 6999   4.322   3.291   1.847  0.0111  0.4811 -0.1037
   21MOL   C160 7000   4.178   3.268   1.887 -0.0662 -0.3481  0.1139
   21MOL   C161 7001   4.147   3.380   1.983 -0.4812 -0.0335  0.3486
   21MOL   O162 7002   4.036   3.395   2.026 -0.1719 -0.2168 -0.2803
   21MOL   H163 7003   4.119   3.442   2.262  0.5033 -3.2344 -0.9043
   21MOL   H164 7004   4.244   3.345   2.280 -1.3713  0.3194  2.1436
   21MOL   H165 7005   4.377   3.551   2.164  0.6535 -3.2907  1.0494
   21MOL   H166 7006   4.455   3.446   1.923  0.2517 -2.9359 -3.8532
   21MOL   H167 7007   4.443   3.310   2.022  1.2108 -0.4622 -1.0632
   21MOL   H168 7008   4.336   3.331   1.746 -1.0388  1.4160  0.1047
   21MOL   H169 7009   4.380   3.199   1.844  0.2914  0.5966  1.5465
   21MOL   H170 7010   4.108   3.266   1.803  0.9057 -0.0016 -0.7084
   21MOL   H171 7011   4.159   3.176   1.942  1.5136 -0.5292  0.3794
   21MOL   C172 7012   4.211   3.670   2.114  0.5304  0.0390  0.3542
   21MOL   C173 7013   4.273   3.746   1.998  0.0907 -0.2368 -0.1034
   21MOL   N174 7014   4.189   3.865   1.958 -1.2594  0.4536  0.3527
   21MOL   C175 7015   4.132   3.873   1.826  0.1602  0.1566 -0.2624
   21MOL   C176 7016   4.086   4.016   1.814  0.0619 -0.3214  1.0771
   21MOL   C177 7017   4.082   4.077   1.959 -1.0124 -0.7046 -0.5368
   21MOL   C178 7018   4.163   3.976   2.038 -0.5194  0.1363 -0.9933
   21MOL   O179 7019   4.196   3.984   2.162  0.0498  0.3017 -0.1853
   21MOL   H180 7020   4.222   3.726   2.207  0.9002 -0.6461  0.7202
   21MOL   H181 7021   4.105   3.662   2.091  0.8379  0.6941 -1.3254
   21MOL   H182 7022   4.274   3.684   1.908 -4.3959 -0.7217  0.0610
   21MOL   H183 7023   4.198   3.831   1.750  0.5751 -0.7357  0.5707
   21MOL   H184 7024   4.044   3.808   1.830 -0.7058  1.1888 -2.1144
   21MOL   H185 7025   3.987   4.029   1.771  0.4676 -1.9128 -0.3827
   21MOL   H186 7026   4.154   4.075   1.752 -0.6996 -1.7033 -1.1204
   21MOL   H187 7027   4.106   4.183   1.963  0.4291 -1.0755  2.1285
   21MOL   H188 7028   3.983   4.070   2.004 -1.0781  0.7360 -0.4140
   21MOL   C189 7029   4.421   3.794   2.027 -0.9967  0.2470  0.3665
   21MOL   C190 7030   4.495   3.847   1.897 -0.4551 -0.5668  0.6191
   21MOL   N191 7031   4.632   3.888   1.931  0.7050  0.6066  0.4219
   21MOL   C192 7032   4.670   4.025   1.931  0.2308  0.8179 -0.1785
   21MOL   C193 7033   4.817   4.027   1.972 -0.1548 -0.3965  0.0740
   21MOL   C194 7034   4.865   3.880   1.983 -0.2887  1.1041  0.2103
   21MOL   C195 7035   4.731   3.807   1.977  0.1371 -0.0328  0.4932
   21MOL   O196 7036   4.712   3.690   2.012  0.1841  0.7254 -0.3808
   21MOL   H197 7037   4.474   3.711   2.074 -0.7705 -0.3106 -0.8376
   21MOL   H198 7038   4.420   3.872   2.103  3.4895 -0.9205  1.7870
   21MOL   H199 7039   4.448   3.940   1.865  0.0785 -0.3705  0.3904
   21MOL   H200 7040   4.658   4.075   1.834  1.4606  0.6410 -0.4287
   21MOL   H201 7041   4.602   4.070   2.003  0.7467  1.4236 -0.0576
   21MOL   H202 7042   4.881   4.076   1.899 -0.6225 -0.5535 -0.4436
   21MOL   H203 7043   4.833   4.087   2.061 -2.7130  1.3373 -0.5719
   21MOL   H204 7044   4.929   3.851   1.901  0.3037 -0.8883  1.3513
   21MOL   H205 7045   4.917   3.850   2.074  2.1360  0.3693 -1.3620
   21MOL   C206 7046   4.503   3.754   1.773  0.8391 -0.4061  0.2158
   21MOL   C207 7047   4.566   3.816   1.648 -0.5720 -0.0753 -0.0577
   21MOL   N208 7048   4.655   3.728   1.567 -0.7662  0.4782 -0.0516
   21MOL   C209 7049   4.792   3.765   1.538 -0.2212  0.0380  0.2998
   21MOL   C210 7050   4.848   3.646   1.456 -0.5544  0.1695  1.0540
   21MOL   C211 7051   4.733   3.539   1.450  0.2502 -0.2770 -0.6573
   21MOL   C212 7052   4.615   3.612   1.506 -0.1429  0.0607 -0.8634
   21MOL   O213 7053   4.504   3.560   1.510  0.1434 -0.1356  0.3735
   21MOL   H214 7054   4.406   3.704   1.764  1.0926 -0.9295  0.3531
   21MOL   H215 7055   4.570   3.670   1.793 -1.8611 -2.5901  0.3922
   21MOL   H216 7056   4.633   3.898   1.671 -1.1567  0.8553 -1.6222
   21MOL   H217 7057   4.818   3.863   1.497  1.5576  0.3917  2.2193
   21MOL   H218 7058   4.843   3.758   1.634 -1.1115  0.1917  0.7899
   21MOL   H219 7059   4.870   3.683   1.355  2.3976  0.0998  1.6403
   21MOL   H220 7060   4.942   3.599   1.484 -1.6691 -2.8559 -0.1236
   21MOL   H221 7061   4.709   3.523   1.345 -0.2986  0.9748 -0.7377
   21MOL   H222 7062   4.752   3.445   1.502 -0.5471 -1.2491 -2.0863
   21MOL   C223 7063   4.440   3.858   1.560  0.2687  0.2186  0.1306
   21MOL   C224 7064   4.469   3.932   1.420 -0.0824 -0.0469  0.1160
   21MOL   N225 7065   4.340   3.942   1.351  0.7348 -0.0608  0.3947
   21MOL   C226 7066   4.320   3.850   1.240  0.2592 -0.0026 -0.0956
   21MOL   C227 7067   4.199   3.900   1.160 -0.0260 -0.6393  0.2080
   21MOL   C228 7068   4.128   3.997   1.262 -0.6593  0.8625  0.0011
   21MOL   C229 7069   4.238   4.033   1.358 -0.6112  0.1008 -0.0468
   21MOL   O230 7070   4.223   4.109   1.449  0.1242  0.3836  0.4624
   21MOL   H231 7071   4.373   3.919   1.622  0.0483  0.7252 -0.6025
   21MOL   H232 7072   4.384   3.765   1.544  0.5140 -0.4539  2.9094
   21MOL   H233 7073   4.535   3.871   1.358  0.8100 -2.1015  2.9732
   21MOL   H234 7074   4.409   3.842   1.177  1.5202  0.2788  1.6161
   21MOL   H235 7075   4.294   3.751   1.277 -0.4169 -0.5867 -2.0474
   21MOL   H236 7076   4.236   3.961   1.077 -1.2160  1.7966  1.4021
   21MOL   H237 7077   4.132   3.820   1.128 -0.1377 -0.5772  0.2864
   21MOL   H238 7078   4.068   4.081   1.229 -0.3666  0.6675 -1.0679
   21MOL   H239 7079   4.059   3.942   1.326 -0.4498 -0.3704 -0.8076
   21MOL   C240 7080   4.544   4.068   1.426 -0.5607  0.3151 -0.1126
   21MOL   C241 7081   4.562   4.142   1.292 -0.6277  0.0448 -0.2529
   21MOL   N242 7082   4.588   4.278   1.321 -0.3612  0.3557  0.0256
   21MOL   C243 7083   4.499   4.378   1.270  0.2095  0.4794  0.1257
   21MOL   C244 7084   4.538   4.501   1.342 -0.0711  0.0718  0.1866
   21MOL   C245 7085   4.681   4.477   1.387 -0.6603  0.1804 -0.4327
   21MOL   C246 7086   4.695   4.332   1.386 -0.6824  0.4151  0.0963
   21MOL   O247 7087   4.788   4.266   1.428 -0.5333  0.2911  0.2137
   21MOL   H248 7088   4.637   4.033   1.470 -1.6380 -2.1556  0.3107
   21MOL   H249 7089   4.488   4.131   1.495 -1.8608 -1.2371  0.2783
   21MOL   H250 7090   4.466   4.128   1.241 -1.2365  3.0526  0.0246
   21MOL   H251 7091   4.504   4.387   1.162 -0.4701 -0.6471  0.0037
   21MOL   H252 7092   4.393   4.362   1.286  0.5846 -3.1397 -0.6901
   21MOL   H253 7093   4.534   4.593   1.284  0.7045 -0.1806 -0.2702
   21MOL   H254 7094   4.470   4.511   1.426  0.1805  2.1423  0.1673
   21MOL   H255 7095   4.740   4.542   1.322 -0.2814  2.0797  1.7693
   21MOL   H256 7096   4.705   4.522   1.483  4.2403 -1.6720 -0.6412
   21MOL   C257 7097   4.665   4.066   1.207  0.3171  0.0299 -0.4234
   21MOL   C258 7098   4.668   4.118   1.061 -0.1156  0.6052  0.2493
   21MOL   N259 7099   4.794   4.071   1.007  0.3925  0.3399 -0.5390
   21MOL   C260 7100   4.892   4.158   0.937  0.3289  0.1341 -0.0301
   21MOL   C261 7101   4.970   4.069   0.845  0.1865  0.3625  0.1322
   21MOL   C262 7102   4.969   3.934   0.911 -0.5303 -0.1510  0.4202
   21MOL   C263 7103   4.844   3.946   0.999  0.4130  0.0553 -0.0837
   21MOL   O264 7104   4.793   3.839   1.043  0.1038  0.4423 -0.9467
   21MOL   H265 7105   4.656   3.958   1.213 -1.1953  0.1145 -0.9315
   21MOL   H266 7106   4.764   4.089   1.247 -0.2957 -1.8457  2.2511
   21MOL   H267 7107   4.664   4.226   1.074 -0.1819  0.7377 -0.8099
   21MOL   H268 7108   4.854   4.255   0.905  1.6089  0.0305 -2.0005
   21MOL   H269 7109   4.949   4.188   1.024  0.5910  0.7941 -0.4270
   21MOL   H270 7110   4.904   4.069   0.758  0.3387  0.9604  0.0127
   21MOL   H271 7111   5.063   4.115   0.812  1.2907 -3.0178 -1.6783
   21MOL   H272 7112   4.975   3.843   0.853  0.8344 -0.4524  0.9982
   21MOL   H273 7113   5.046   3.933   0.988 -0.8605  0.5237  0.7621
   21MOL   C274 7114   4.554   4.079   0.967  0.1588 -0.1371 -0.6685
   21MOL   C275 7115   4.572   4.128   0.819 -0.3878  0.3241  0.0191
   21MOL   N276 7116   4.475   4.058   0.728 -0.3539 -0.6298 -1.1463
   21MOL   C277 7117   4.541   3.991   0.611  0.3591  0.2741  0.1362
   21MOL   C278 7118   4.427   3.978   0.507  0.2976 -0.3669 -0.2832
   21MOL   C279 7119   4.294   4.011   0.586  0.2187  0.8330  0.3604
   21MOL   C280 7120   4.339   4.054   0.724  0.1834  0.2221 -0.5180
   21MOL   O281 7121   4.260   4.098   0.804  0.3711  0.0651  0.2363
   21MOL   H282 7122   4.462   4.122   1.006  1.5875  0.4003  2.2726
   21MOL   H283 7123   4.537   3.972   0.976 -1.9460  0.2866  0.7750
   21MOL   H284 7124   4.675   4.103   0.793 -0.9251 -2.4402  0.4011
   21MOL   H285 7125   4.613   4.054   0.559  0.0247 -0.4800 -1.2958
   21MOL   H286 7126   4.577   3.890   0.634 -0.7032  0.1188  1.1719
   21MOL   H287 7127   4.432   4.051   0.426  1.7069 -1.6622 -1.4127
   21MOL   H288 7128   4.429   3.877   0.465 -0.0763 -0.2274 -0.6425
   21MOL   H289 7129   4.244   4.095   0.539 -2.3994 -0.6691  0.3988
   21MOL   H290 7130   4.217   3.935   0.581 -0.4668  1.5441  0.0645
   21MOL   C291 7131   4.546   4.286   0.797  0.2204  0.5049  0.1735
   21MOL   C292 7132   4.572   4.339   0.661 -0.3295 -0.0412 -0.3231
   21MOL   N293 7133   4.507   4.465   0.639 -0.3188  0.5074 -0.2828
   21MOL   C294 7134   4.390   4.453   0.557  0.5377 -0.1570  0.4176
   21MOL   C295 7135   4.350   4.597   0.525 -0.9004 -0.8711  0.4068
   21MOL   C296 7136   4.420   4.684   0.629 -0.7566 -0.0919  0.5659
   21MOL   C297 7137   4.527   4.592   0.680  0.5919 -0.4710 -0.8905
   21MOL   O298 7138   4.624   4.631   0.742 -0.1396  0.6129  0.0827
   21MOL   H299 7139   4.605   4.346   0.865  3.6197 -0.0999 -2.0886
   21MOL   H300 7140   4.442   4.304   0.823  1.2850  0.8021  4.5707
   21MOL   H301 7141   4.529   4.264   0.596 -0.9179 -1.6420  1.8592
   21MOL   H302 7142   4.392   4.378   0.478  0.6143  0.2957 -0.0184
   21MOL   H303 7143   4.308   4.412   0.615 -1.1350 -0.5513 -2.1627
   21MOL   H304 7144   4.397   4.625   0.431  2.3446 -1.6057  1.7443
   21MOL   H305 7145   4.246   4.628   0.520  0.4889  3.9385 -1.7959
   21MOL   H306 7146   4.474   4.771   0.591 -1.4000 -0.8165 -2.1453
   21MOL   H307 7147   4.349   4.708   0.708 -1.5775  1.9134 -0.7205
   21MOL   C308 7148   4.723   4.344   0.635  0.3734 -1.2356 -0.5008
   21MOL   C309 7149   4.774   4.405   0.500 -0.5212 -0.1693  0.2564
   21MOL   N310 7150   4.918   4.375   0.489 -0.3026 -0.3524 -0.0106
   21MOL   C311 7151   5.007   4.488   0.460  0.1933  0.2924  0.4078
   21MOL   C312 7152   5.141   4.429   0.415  0.2944 -0.1120  0.4177
   21MOL   C313 7153   5.123   4.278   0.442 -0.4450 -0.1881 -0.5107
   21MOL   C314 7154   4.978   4.258   0.479 -0.0405 -0.2831  0.7440
   21MOL   O315 7155   4.931   4.145   0.504  0.1863  0.1364  0.4715
   21MOL   H316 7156   4.767   4.246   0.657  2.0113 -0.3981  0.0545
   21MOL   H317 7157   4.779   4.395   0.713 -0.7322 -1.4931  0.4775
   21MOL   H318 7158   4.763   4.513   0.494 -0.7754 -0.1765  0.5690
   21MOL   H319 7159   4.964   4.553   0.385  1.6817 -0.8066 -1.4392
   21MOL   H320 7160   5.021   4.535   0.558  0.5233 -1.1606  1.0760
   21MOL   H321 7161   5.156   4.452   0.310  0.6804  1.0717  0.7185
   21MOL   H322 7162   5.226   4.476   0.465  0.1514 -0.2406  0.7860
   21MOL   H323 7163   5.155   4.222   0.354 -1.0288  2.2187 -2.3133
   21MOL   H324 7164   5.189   4.240   0.520  1.0734  2.8141 -0.2450
   21MOL   C325 7165   4.706   4.362   0.369  0.7160  0.4632  0.0855
   21MOL   C326 7166   4.761   4.408   0.229 -0.8652 -0.1381  0.1725
   21MOL   N327 7167   4.684   4.380   0.112  0.4672  0.6710  0.8179
   21MOL   C328 7168   4.657   4.486   0.014  0.9088 -0.0815 -0.2678
   21MOL   C329 7169   4.591   4.426   7.796 -0.1397 -0.3580 -0.8423
   21MOL   C330 7170   4.545   4.284   7.854 -0.5259 -0.1162  0.2369
   21MOL   C331 7171   4.615   4.266   0.081 -0.2711  0.4419  0.0049
   21MOL   O332 7172   4.614   4.163   0.153  0.3257 -0.3254 -0.4946
   21MOL   H333 7173   4.603   4.398   0.364  0.3788 -0.3025  1.2332
   21MOL   H334 7174   4.697   4.254   0.375 -0.3653  0.6179  1.7759
   21MOL   H335 7175   4.859   4.365   0.209 -0.8166 -0.0036  0.1140
   21MOL   H336 7176   4.584   4.552   0.061  0.2485 -1.4031  0.5924
   21MOL   H337 7177   4.737   4.554   7.888  0.6957  0.2294 -0.1441
   21MOL   H338 7178   4.504   4.483   7.763  1.7675  2.4892 -1.1210
   21MOL   H339 7179   4.659   4.425   7.710  0.9394  0.0064 -0.0025
   21MOL   H340 7180   4.437   4.289   7.870 -0.4692 -1.0141  0.9021
   21MOL   H341 7181   4.572   4.203   7.787 -1.6594 -0.9763  0.8039
   21MOL   H342 7182   4.765   4.517   0.238 -0.9179 -0.0698 -0.5805
   22MOL     C1 7183   5.892   1.111   2.084 -0.0907  1.6008 -0.4792
   22MOL     C2 7184   5.801   0.989   2.081  0.6079  0.3166  0.0171
   22MOL     N3 7185   5.795   0.930   2.205  0.2721  0.1169  0.2664
   22MOL     C4 7186   5.846   0.798   2.218  0.1730  0.3161 -0.5371
   22MOL     C5 7187   5.793   0.752   2.350 -0.5472 -0.3628  0.0018
   22MOL     C6 7188   5.762   0.882   2.429  0.2958 -0.1269  0.4394
   22MOL     C7 7189   5.756   0.983   2.321  0.9027  0.0657  0.3626
   22MOL     O8 7190   5.708   1.094   2.338 -0.0748 -0.3844  0.1035
   22MOL     H9 7191   5.866   1.195   2.149 -1.3565 -1.2081  2.7640
   22MOL    H10 7192   5.990   1.076   2.117 -0.2537 -0.1677 -1.8185
   22MOL    H11 7193   5.834   0.918   2.005 -0.1295  0.6630 -0.6409
   22MOL    H12 7194   5.824   0.729   2.137 -0.9902 -1.8083  1.5299
   22MOL    H13 7195   5.954   0.809   2.235 -0.2584  0.8861  1.9822
   22MOL    H14 7196   5.706   0.689   2.333 -0.4594 -0.0916 -1.5407
   22MOL    H15 7197   5.854   0.677   2.400 -1.3224  1.2260  3.4666
   22MOL    H16 7198   5.660   0.880   2.467  0.3652 -0.9275  0.5857
   22MOL    H17 7199   5.836   0.892   2.508 -0.9435 -0.4751  1.6695
   22MOL    H18 7200   5.906   1.143   1.981 -1.9009 -1.9664 -1.9081
   22MOL    C19 7201   5.672   1.024   2.017 -0.2784  0.1429 -0.0239
   22MOL    C20 7202   5.573   0.907   1.996 -0.0448  0.0882  0.0401
   22MOL    N21 7203   5.495   0.872   2.116 -0.2736 -0.3938  0.6309
   22MOL    C22 7204   5.413   0.978   2.177 -0.1644  0.9824  0.4219
   22MOL    C23 7205   5.345   0.915   2.298  0.0210  0.5678 -0.4281
   22MOL    C24 7206   5.376   0.769   2.300  0.3534  0.5186 -0.3061
   22MOL    C25 7207   5.468   0.752   2.174  0.3378  0.5559 -0.5619
   22MOL    O26 7208   5.513   0.642   2.141 -0.6396 -0.5739 -0.1440
   22MOL    H27 7209   5.693   1.070   1.920 -0.3235  1.2504  0.4908
   22MOL    H28 7210   5.623   1.099   2.079  0.0519 -1.2567  1.9673
   22MOL    H29 7211   5.629   0.816   1.976  0.5203  0.2328  0.9494
   22MOL    H30 7212   5.469   1.065   2.213 -2.9881  2.9710  0.1218
   22MOL    H31 7213   5.346   1.011   2.097 -0.9038  0.3529  0.7837
   22MOL    H32 7214   5.375   0.968   2.389 -3.8615  1.4091  0.4672
   22MOL    H33 7215   5.236   0.908   2.300  0.0751 -0.0764  1.4289
   22MOL    H34 7216   5.422   0.736   2.393 -0.4563 -2.3488 -0.8732
   22MOL    H35 7217   5.300   0.696   2.270  1.2122 -0.3708 -0.3567
   22MOL    C36 7218   5.474   0.929   1.878  0.3469  0.1076 -1.2076
   22MOL    C37 7219   5.540   0.915   1.742  0.1029  0.1620 -0.3590
   22MOL    N38 7220   5.598   0.786   1.717  0.2780 -0.8190  0.1272
   22MOL    C39 7221   5.521   0.664   1.718 -0.7170  0.3086  0.1385
   22MOL    C40 7222   5.611   0.551   1.670 -0.6306  0.0820 -0.5743
   22MOL    C41 7223   5.743   0.615   1.631 -0.1739 -0.0758  0.5096
   22MOL    C42 7224   5.726   0.761   1.681  0.3623  0.5338  0.1562
   22MOL    O43 7225   5.810   0.846   1.669  0.1474 -0.0135  0.2323
   22MOL    H44 7226   5.426   1.026   1.889 -1.3153 -0.6664 -1.5856
   22MOL    H45 7227   5.394   0.855   1.886 -0.2274  0.7837 -0.6036
   22MOL    H46 7228   5.623   0.985   1.733 -0.4718  0.8424 -0.3624
   22MOL    H47 7229   5.489   0.650   1.821  2.2379 -1.9672  0.8181
   22MOL    H48 7230   5.429   0.672   1.660 -0.6596 -1.6072 -0.2461
   22MOL    H49 7231   5.624   0.478   1.750  1.1843  1.6818  0.6300
   22MOL    H50 7232   5.566   0.512   1.579 -0.9151 -0.5434 -0.1758
   22MOL    H51 7233   5.834   0.577   1.677  1.3407  1.1785 -1.3926
   22MOL    H52 7234   5.746   0.629   1.523 -0.0351 -1.4628  0.3156
   22MOL    C53 7235   5.448   0.968   1.631 -0.5918  0.0063  1.0373
   22MOL    C54 7236   5.392   1.114   1.640 -0.2167 -0.5340  0.2552
   22MOL    N55 7237   5.507   1.214   1.640  0.4378 -0.0762 -0.1209
   22MOL    C56 7238   5.521   1.296   1.762  0.5007  0.5236  0.0806
   22MOL    C57 7239   5.650   1.380   1.749  0.2944  0.3806 -0.2226
   22MOL    C58 7240   5.699   1.354   1.606 -0.1917 -0.8184  0.4906
   22MOL    C59 7241   5.602   1.246   1.552 -0.0417  0.4503 -0.1431
   22MOL    O60 7242   5.622   1.188   1.445  0.2848 -0.0911 -0.2064
   22MOL    H61 7243   5.362   0.903   1.617  1.2839 -2.1321 -0.7962
   22MOL    H62 7244   5.490   0.959   1.531 -0.3856 -0.7879  1.1923
   22MOL    H63 7245   5.328   1.117   1.728 -0.3279 -1.6420  0.2219
   22MOL    H64 7246   5.438   1.363   1.782 -0.0088  0.1948 -0.8869
   22MOL    H65 7247   5.522   1.232   1.850  1.0903 -0.5235 -0.6665
   22MOL    H66 7248   5.630   1.487   1.759 -0.8714  0.1116  0.4020
   22MOL    H67 7249   5.717   1.353   1.830 -0.6851 -0.6677  0.2507
   22MOL    H68 7250   5.676   1.443   1.547  1.0957 -0.8584 -0.0848
   22MOL    H69 7251   5.803   1.330   1.585  0.4119  0.6572  1.7409
   22MOL    C70 7252   5.301   1.141   1.513 -1.1125 -0.1822  0.2317
   22MOL    C71 7253   5.239   1.285   1.498  0.3730 -0.2276 -0.7796
   22MOL    N72 7254   5.183   1.296   1.367 -0.2548 -0.4368 -0.4369
   22MOL    C73 7255   5.275   1.339   1.264 -0.1671  0.4638  0.3198
   22MOL    C74 7256   5.191   1.350   1.137  0.7872  0.3814  0.1859
   22MOL    C75 7257   5.078   1.254   1.169  0.1886 -0.3977 -0.0932
   22MOL    C76 7258   5.074   1.251   1.312  0.4233  0.5091 -0.8673
   22MOL    O77 7259   4.995   1.187   1.384  0.3595  0.8485 -0.3459
   22MOL    H78 7260   5.230   1.058   1.510 -0.7736 -0.4408 -3.2207
   22MOL    H79 7261   5.363   1.133   1.424 -1.6109 -0.7415 -0.0709
   22MOL    H80 7262   5.316   1.361   1.514  0.2144 -0.4189  1.0735
   22MOL    H81 7263   5.352   1.414   1.285  1.4083 -0.9878 -0.0857
   22MOL    H82 7264   5.328   1.245   1.249 -1.7391 -0.1499 -1.5858
   22MOL    H83 7265   5.161   1.449   1.106 -0.9224 -0.6404 -1.5400
   22MOL    H84 7266   5.252   1.314   1.054 -1.3996  0.2975 -1.4159
   22MOL    H85 7267   4.984   1.288   1.128  0.0357  0.2680  0.8006
   22MOL    H86 7268   5.107   1.152   1.144 -1.5447 -0.3768 -2.2262
   22MOL    C87 7269   5.138   1.314   1.613  0.2102 -0.6065  0.4777
   22MOL    C88 7270   5.080   1.460   1.631 -0.7163 -0.0205  0.1173
   22MOL    N89 7271   4.949   1.453   1.704  0.0361  0.7102  0.3087
   22MOL    C90 7272   4.832   1.502   1.637 -0.5503 -0.5827 -0.1014
   22MOL    C91 7273   4.719   1.456   1.734  0.4989  0.2951  0.7136
   22MOL    C92 7274   4.782   1.407   1.862  0.0112 -0.0490  0.2180
   22MOL    C93 7275   4.922   1.399   1.822 -0.4300 -0.2371 -0.5190
   22MOL    O94 7276   5.007   1.358   1.908 -0.0459 -0.1765  0.2253
   22MOL    H95 7277   5.185   1.290   1.708  0.5511  0.6569  0.6354
   22MOL    H96 7278   5.053   1.246   1.599  0.1870 -0.5325  0.2402
   22MOL    H97 7279   5.069   1.511   1.535 -0.2860 -0.5026 -0.1901
   22MOL    H98 7280   4.834   1.611   1.628 -3.6037 -0.5109 -0.5125
   22MOL    H99 7281   4.808   1.466   1.537 -2.6195 -0.5830  0.3537
   22MOL   H100 7282   4.649   1.538   1.752 -0.7723 -0.2174 -1.6109
   22MOL   H101 7283   4.663   1.368   1.705  0.9868 -0.1031  0.9797
   22MOL   H102 7284   4.752   1.471   1.945 -0.3308 -0.4634  0.4193
   22MOL   H103 7285   4.751   1.307   1.894  2.0512 -1.7956 -2.9608
   22MOL   C104 7286   5.178   1.545   1.715 -0.2160  0.6730  0.0525
   22MOL   C105 7287   5.235   1.673   1.648  0.1043 -0.1810  0.4231
   22MOL   N106 7288   5.278   1.765   1.755  0.4912 -0.6620 -0.5424
   22MOL   C107 7289   5.196   1.886   1.784  0.4974  0.3688 -0.3250
   22MOL   C108 7290   5.242   1.932   1.922 -0.1971  0.0767  0.6547
   22MOL   C109 7291   5.367   1.847   1.961  0.0533 -0.3507 -0.3335
   22MOL   C110 7292   5.374   1.743   1.846  0.1013 -0.5068  0.0986
   22MOL   O111 7293   5.455   1.647   1.842  0.3868  0.2923  0.4102
   22MOL   H112 7294   5.261   1.487   1.756 -0.7933 -1.5304 -1.7612
   22MOL   H113 7295   5.123   1.583   1.801 -0.4975 -0.4157  0.3610
   22MOL   H114 7296   5.152   1.726   1.601  1.7308 -0.9279 -3.4601
   22MOL   H115 7297   5.226   1.956   1.706 -0.8957  0.5027 -0.7646
   22MOL   H116 7298   5.087   1.891   1.782  0.4034 -0.0523  1.8185
   22MOL   H117 7299   5.269   2.038   1.920 -0.4050  0.1060 -1.3150
   22MOL   H118 7300   5.168   1.938   2.001  1.4997  1.1453  2.2054
   22MOL   H119 7301   5.343   1.778   2.043  0.2668 -1.2608 -1.0266
   22MOL   H120 7302   5.458   1.897   1.993 -0.9809  1.9870 -0.9696
   22MOL   C121 7303   5.337   1.645   1.533 -0.7337 -0.3613  0.0808
   22MOL   C122 7304   5.425   1.754   1.487 -0.2887 -0.0688 -0.5563
   22MOL   N123 7305   5.552   1.708   1.428 -0.1071  0.4168 -0.4543
   22MOL   C124 7306   5.681   1.755   1.495  0.3976  0.3540  0.8524
   22MOL   C125 7307   5.793   1.697   1.406  0.5114  0.8567 -0.4837
   22MOL   C126 7308   5.721   1.620   1.291  0.3461  0.1481  0.2432
   22MOL   C127 7309   5.573   1.639   1.319  0.5591 -0.0667  0.0196
   22MOL   O128 7310   5.487   1.594   1.248  0.6052 -0.2973 -0.0598
   22MOL   H129 7311   5.276   1.607   1.450  1.1000 -1.1061 -0.9667
   22MOL   H130 7312   5.393   1.567   1.585 -0.9895  1.1948  2.7766
   22MOL   H131 7313   5.461   1.778   1.588  1.8137 -1.0543 -1.0261
   22MOL   H132 7314   5.691   1.720   1.598  0.8175 -0.8538  0.4027
   22MOL   H133 7315   5.684   1.864   1.488 -0.1516  0.3259  0.1192
   22MOL   H134 7316   5.842   1.775   1.347  0.2120 -0.1331 -2.0695
   22MOL   H135 7317   5.867   1.639   1.460  2.2109  2.2610 -1.2512
   22MOL   H136 7318   5.727   1.674   1.196  0.5412 -2.4069 -1.2509
   22MOL   H137 7319   5.768   1.521   1.285 -0.3519 -0.2300  0.9314
   22MOL   C138 7320   5.367   1.881   1.421  0.0865 -0.0449 -0.1407
   22MOL   C139 7321   5.289   1.876   1.285 -0.5477 -0.3421  0.1826
   22MOL   N140 7322   5.170   1.796   1.303 -0.6089 -0.6177  0.0513
   22MOL   C141 7323   5.148   1.679   1.229 -0.2985 -0.2746 -0.1130
   22MOL   C142 7324   5.013   1.619   1.269  0.1675 -0.4179 -0.1853
   22MOL   C143 7325   4.952   1.740   1.339  0.0313  0.5793 -0.4536
   22MOL   C144 7326   5.064   1.835   1.366 -0.1092  0.6744 -0.4771
   22MOL   O145 7327   5.045   1.930   1.441 -0.2200 -0.5893  0.4749
   22MOL   H146 7328   5.449   1.952   1.406  0.3364  0.1584  2.0846
   22MOL   H147 7329   5.302   1.933   1.491  0.5896 -1.0212  1.0772
   22MOL   H148 7330   5.356   1.828   1.214 -1.4184 -0.7399 -0.3839
   22MOL   H149 7331   5.138   1.710   1.125  0.9381  2.0275  0.4226
   22MOL   H150 7332   5.236   1.615   1.244 -0.7396 -1.1077 -1.0514
   22MOL   H151 7333   4.948   1.595   1.184  1.1631 -3.6279 -0.1062
   22MOL   H152 7334   5.018   1.533   1.335 -0.5525  0.6385  1.2684
   22MOL   H153 7335   4.908   1.713   1.435  1.5385 -0.9546 -0.1674
   22MOL   H154 7336   4.882   1.793   1.276  1.3432  1.0476 -1.5404
   22MOL   C155 7337   5.256   2.015   1.229 -0.4211 -0.8840  0.5553
   22MOL   C156 7338   5.368   2.091   1.161  0.4725 -0.3710 -0.1755
   22MOL   N157 7339   5.314   2.159   1.038 -0.3296 -0.0382  0.1213
   22MOL   C158 7340   5.341   2.107   0.906 -0.3640 -1.1524 -0.3071
   22MOL   C159 7341   5.288   2.215   0.803 -0.7473 -0.1572  0.2696
   22MOL   C160 7342   5.209   2.318   0.887 -0.0467  0.2570  0.6061
   22MOL   C161 7343   5.245   2.275   1.033  0.5434 -0.3049 -0.3375
   22MOL   O162 7344   5.199   2.336   1.131  0.5432 -0.3857 -0.5173
   22MOL   H163 7345   5.212   2.073   1.310 -0.6525 -0.1862 -0.0586
   22MOL   H164 7346   5.183   2.005   1.149  0.4396  3.5091 -0.9297
   22MOL   H165 7347   5.441   2.023   1.115  0.3706  0.4948 -1.6487
   22MOL   H166 7348   5.449   2.095   0.895 -0.2690 -0.2466 -0.4148
   22MOL   H167 7349   5.285   2.019   0.876 -2.3178  0.1008 -0.3797
   22MOL   H168 7350   5.379   2.246   0.751 -2.0518 -1.2906 -2.8695
   22MOL   H169 7351   5.222   2.165   0.731  0.1113 -1.5852  0.4626
   22MOL   H170 7352   5.235   2.423   0.870  0.9578 -0.0496  0.2150
   22MOL   H171 7353   5.102   2.321   0.873  0.0627 -1.7295 -0.8410
   22MOL   C172 7354   5.439   2.194   1.259 -0.3049  0.8012 -0.0309
   22MOL   C173 7355   5.584   2.181   1.292  0.0530 -0.8280  0.7781
   22MOL   N174 7356   5.672   2.143   1.177 -0.0938 -0.0081 -0.1653
   22MOL   C175 7357   5.758   2.027   1.187  0.5459  0.0209  0.1902
   22MOL   C176 7358   5.848   2.040   1.059  0.2485 -0.8563  0.2361
   22MOL   C177 7359   5.775   2.138   0.959  0.2389 -0.4089 -0.4900
   22MOL   C178 7360   5.680   2.209   1.057 -0.6229 -0.6894  0.6255
   22MOL   O179 7361   5.612   2.311   1.025 -0.3789  0.5091 -0.2922
   22MOL   H180 7362   5.390   2.202   1.356 -0.4720 -4.0184  0.3993
   22MOL   H181 7363   5.431   2.292   1.211  1.1739  0.6972 -0.4999
   22MOL   H182 7364   5.590   2.100   1.363 -0.4104 -1.4542  0.1149
   22MOL   H183 7365   5.802   2.020   1.286  0.3609 -1.9099  0.1662
   22MOL   H184 7366   5.696   1.937   1.186 -2.0445  1.7390  1.7249
   22MOL   H185 7367   5.859   1.950   0.999  2.8629  1.2504 -2.5969
   22MOL   H186 7368   5.948   2.074   1.086  0.5683 -1.6988  0.1254
   22MOL   H187 7369   5.845   2.203   0.904  0.8629  0.7070  1.5678
   22MOL   H188 7370   5.718   2.081   0.886 -1.4274  0.8623 -0.2080
   22MOL   C189 7371   5.647   2.307   1.350 -0.3918 -0.3402 -0.1557
   22MOL   C190 7372   5.588   2.353   1.475  0.0031 -0.4970 -0.4937
   22MOL   N191 7373   5.594   2.253   1.593 -0.2880 -0.1815 -0.4705
   22MOL   C192 7374   5.466   2.216   1.652  0.3827  0.7437 -0.0581
   22MOL   C193 7375   5.506   2.118   1.771  0.6098  0.1010 -0.0473
   22MOL   C194 7376   5.653   2.117   1.774  0.1452  1.0168  0.0294
   22MOL   C195 7377   5.697   2.197   1.655  0.3624 -0.1505 -0.0800
   22MOL   O196 7378   5.809   2.205   1.618  0.1913  0.2986  0.2911
   22MOL   H197 7379   5.630   2.385   1.277 -1.7098 -0.0904  0.3929
   22MOL   H198 7380   5.749   2.278   1.376  0.4749  0.4092 -2.6303
   22MOL   H199 7381   5.486   2.384   1.453  0.2147  0.1769 -0.5513
   22MOL   H200 7382   5.400   2.296   1.686 -0.5119 -1.1270  2.8173
   22MOL   H201 7383   5.401   2.154   1.590  0.6109  0.1317  0.3051
   22MOL   H202 7384   5.467   2.138   1.871  0.5597  0.8539 -0.2184
   22MOL   H203 7385   5.465   2.023   1.737 -2.2730  0.9171  0.9302
   22MOL   H204 7386   5.693   2.155   1.868  1.5049 -0.2107 -0.0306
   22MOL   H205 7387   5.696   2.017   1.768 -0.0496  0.9455 -0.1816
   22MOL   C206 7388   5.651   2.488   1.521  0.6323  0.7528  0.0945
   22MOL   C207 7389   5.556   2.579   1.610 -0.5693  0.2035  0.5608
   22MOL   N208 7390   5.616   2.596   1.740 -0.4972  0.8747  0.0263
   22MOL   C209 7391   5.748   2.662   1.760 -0.6550  0.3661  0.0638
   22MOL   C210 7392   5.762   2.691   1.913  0.3849 -0.3847 -0.1248
   22MOL   C211 7393   5.641   2.629   1.973  0.0240 -0.0042 -0.2242
   22MOL   C212 7394   5.561   2.566   1.859  0.0075  0.2838 -0.3949
   22MOL   O213 7395   5.460   2.494   1.875  0.2092  0.3563 -0.3666
   22MOL   H214 7396   5.692   2.545   1.438  1.2714  0.5886  0.2992
   22MOL   H215 7397   5.742   2.475   1.579  1.1739  2.2247 -0.3995
   22MOL   H216 7398   5.458   2.536   1.630 -2.2753  3.6994  0.0924
   22MOL   H217 7399   5.826   2.594   1.726  0.3347  0.8830  1.2768
   22MOL   H218 7400   5.761   2.754   1.703  1.2276 -0.8834 -1.6077
   22MOL   H219 7401   5.862   2.661   1.945  1.2070  0.9192 -1.3808
   22MOL   H220 7402   5.758   2.799   1.923  1.3524 -0.2633 -0.9071
   22MOL   H221 7403   5.665   2.548   2.042 -1.1251 -1.3966 -1.4203
   22MOL   H222 7404   5.586   2.703   2.031 -0.1293 -0.8098  0.6934
   22MOL   C223 7405   5.541   2.715   1.546 -0.2851 -0.2193 -0.4772
   22MOL   C224 7406   5.444   2.718   1.414  0.1520 -0.4950  0.2131
   22MOL   N225 7407   5.298   2.723   1.449  0.3919  0.1808 -0.2890
   22MOL   C226 7408   5.212   2.637   1.372 -0.5317  0.1191  0.6263
   22MOL   C227 7409   5.074   2.678   1.414 -0.7051 -0.6236 -0.3928
   22MOL   C228 7410   5.084   2.794   1.511  0.1468  0.0550 -0.2638
   22MOL   C229 7411   5.231   2.818   1.516  0.5002  0.4484  0.6031
   22MOL   O230 7412   5.282   2.927   1.553 -0.6721  0.3075  0.3233
   22MOL   H231 7413   5.630   2.772   1.522 -1.0113  0.6046 -1.2863
   22MOL   H232 7414   5.492   2.780   1.618 -0.8150  1.4234 -2.2793
   22MOL   H233 7415   5.469   2.626   1.361  0.1986  2.1619 -4.7086
   22MOL   H234 7416   5.227   2.641   1.264  0.8111 -1.9751  0.7238
   22MOL   H235 7417   5.227   2.530   1.387 -1.7409  0.0134  1.1530
   22MOL   H236 7418   5.013   2.712   1.330 -0.2061  1.2553 -0.0031
   22MOL   H237 7419   5.012   2.602   1.463 -1.5762  0.1229 -0.3237
   22MOL   H238 7420   5.036   2.882   1.468 -1.2780 -1.3126 -1.5019
   22MOL   H239 7421   5.056   2.775   1.615 -1.0261  0.1889 -0.5524
   22MOL   C240 7422   5.482   2.826   1.314 -0.3887  0.1875 -0.2513
   22MOL   C241 7423   5.594   2.787   1.216 -0.7156  0.6800 -0.3436
   22MOL   N242 7424   5.540   2.770   1.082  0.0998 -0.2640 -0.1002
   22MOL   C243 7425   5.539   2.637   1.029  0.6821 -0.0660 -0.4688
   22MOL   C244 7426   5.509   2.643   0.869  0.3099 -0.6138 -0.0209
   22MOL   C245 7427   5.486   2.790   0.855  0.5165  0.0821 -0.1780
   22MOL   C246 7428   5.506   2.858   0.987 -0.3999 -0.0946 -0.0216
   22MOL   O247 7429   5.490   2.981   1.003 -0.7302  0.0878  0.1361
   22MOL   H248 7430   5.521   2.910   1.371 -0.4603  1.2430 -1.7316
   22MOL   H249 7431   5.388   2.855   1.267 -0.4747  0.4590  0.0884
   22MOL   H250 7432   5.633   2.688   1.242  0.3833  0.7842 -1.5646
   22MOL   H251 7433   5.639   2.595   1.042  0.0214 -0.9491  1.9966
   22MOL   H252 7434   5.472   2.571   1.085  0.4010  1.8280  1.4781
   22MOL   H253 7435   5.593   2.614   0.806  0.9388  2.1371 -0.5134
   22MOL   H254 7436   5.434   2.573   0.832  2.1253 -3.7350  1.9865
   22MOL   H255 7437   5.559   2.836   0.787  1.3968 -0.1525  0.5984
   22MOL   H256 7438   5.386   2.799   0.812  0.7233  3.3189 -0.1228
   22MOL   C257 7439   5.699   2.904   1.221  0.0306 -1.1174  0.5449
   22MOL   C258 7440   5.822   2.887   1.127 -0.3608 -0.1777  0.3941
   22MOL   N259 7441   5.904   3.010   1.136 -0.7561  0.0359  0.1787
   22MOL   C260 7442   5.888   3.115   1.039 -0.5343 -0.4467 -0.2360
   22MOL   C261 7443   5.939   3.244   1.114  0.0720 -0.0104 -0.0473
   22MOL   C262 7444   6.029   3.188   1.222  1.2794 -0.5027 -0.2822
   22MOL   C263 7445   5.980   3.047   1.239  0.2341  0.5454  0.9599
   22MOL   O264 7446   6.015   2.971   1.325  0.2355 -0.6095  0.1660
   22MOL   H265 7447   5.739   2.928   1.320  1.5230 -0.1999 -0.2616
   22MOL   H266 7448   5.644   2.990   1.182 -1.2657 -1.9849  0.4123
   22MOL   H267 7449   5.767   2.873   1.034  0.5309 -0.4146 -0.1037
   22MOL   H268 7450   5.957   3.098   0.956  0.9375 -1.6995  1.2123
   22MOL   H269 7451   5.787   3.123   1.000 -0.1218  0.1026 -1.1976
   22MOL   H270 7452   5.990   3.310   1.045  2.1617  0.1159  1.5839
   22MOL   H271 7453   5.854   3.289   1.167  0.9458  0.4338  0.9963
   22MOL   H272 7454   6.136   3.187   1.201  1.2031  1.3361 -0.8586
   22MOL   H273 7455   6.007   3.250   1.309 -2.1705 -0.1262 -1.3543
   22MOL   C274 7456   5.900   2.753   1.153 -0.3558 -0.1290  0.0631
   22MOL   C275 7457   6.025   2.727   1.058 -0.5271 -0.3290 -0.4159
   22MOL   N276 7458   6.118   2.632   1.114  0.0236 -0.7759 -0.5428
   22MOL   C277 7459   6.208   2.684   1.208 -0.3433  0.6886  0.1556
   22MOL   C278 7460   6.264   2.556   1.279  0.3325 -0.8770 -0.3649
   22MOL   C279 7461   6.216   2.438   1.201 -0.0287 -0.4223 -0.3646
   22MOL   C280 7462   6.113   2.500   1.115  0.0150 -0.0839  0.3497
   22MOL   O281 7463   6.039   2.427   1.049 -0.1869 -0.6513 -0.1619
   22MOL   H282 7464   5.832   2.670   1.137  1.4547 -1.7559  0.6067
   22MOL   H283 7465   5.926   2.756   1.259 -0.4212  2.2962  0.0443
   22MOL   H284 7466   6.077   2.822   1.050  0.9545 -1.1254 -0.5525
   22MOL   H285 7467   6.287   2.739   1.158 -0.7155  1.4298  0.3723
   22MOL   H286 7468   6.148   2.746   1.275 -0.5654  0.4194  0.2089
   22MOL   H287 7469   6.372   2.564   1.274  0.2000  0.6719 -1.4022
   22MOL   H288 7470   6.232   2.546   1.383  0.2163 -2.9685 -0.5816
   22MOL   H289 7471   6.290   2.399   1.132  1.5131  1.1649  0.3470
   22MOL   H290 7472   6.186   2.356   1.267  0.7955  0.5862  1.2939
   22MOL   C291 7473   5.971   2.692   0.918 -0.2987  0.3312 -0.6778
   22MOL   C292 7474   6.074   2.682   0.802  0.1777 -0.1258  0.0722
   22MOL   N293 7475   5.999   2.632   0.686  0.4510 -0.2286  0.3773
   22MOL   C294 7476   6.048   2.509   0.630  0.3228  0.3160 -0.9772
   22MOL   C295 7477   5.927   2.451   0.544  0.6351  0.0205  0.0581
   22MOL   C296 7478   5.835   2.572   0.524 -0.7194  0.7081 -0.1936
   22MOL   C297 7479   5.880   2.669   0.635 -0.8757 -0.7805  1.0135
   22MOL   O298 7480   5.807   2.762   0.668  0.0439 -0.0564 -0.4243
   22MOL   H299 7481   5.900   2.772   0.901 -0.4632  0.6317  1.3521
   22MOL   H300 7482   5.909   2.603   0.927 -3.6631  2.6268 -0.4173
   22MOL   H301 7483   6.148   2.605   0.826 -0.7350 -1.1321 -0.3393
   22MOL   H302 7484   6.144   2.511   0.579  1.8355  0.4811  1.8444
   22MOL   H303 7485   6.072   2.440   0.711 -0.6526  2.8036  1.5178
   22MOL   H304 7486   5.953   2.416   0.444 -1.2083  2.9115 -1.5203
   22MOL   H305 7487   5.877   2.382   0.612  0.3848  0.0975 -0.0498
   22MOL   H306 7488   5.832   2.614   0.424 -0.7230 -2.0912 -1.4276
   22MOL   H307 7489   5.736   2.529   0.540 -0.2669 -0.4099 -0.3046
   22MOL   C308 7490   6.138   2.819   0.770 -0.0232  0.2784 -0.1910
   22MOL   C309 7491   6.275   2.850   0.827 -0.3401 -0.2520  0.0126
   22MOL   N310 7492   6.370   2.760   0.772  0.3343 -0.4152  0.2394
   22MOL   C311 7493   6.421   2.654   0.856 -0.0940 -0.2952  0.0829
   22MOL   C312 7494   6.533   2.591   0.775  0.9772  0.1117  0.4631
   22MOL   C313 7495   6.503   2.627   0.633 -0.1187 -0.1898 -0.1179
   22MOL   C314 7496   6.420   2.748   0.645 -0.5578 -0.7696 -0.4485
   22MOL   O315 7497   6.409   2.826   0.548  0.2556 -0.5288  0.3522
   22MOL   H316 7498   6.069   2.898   0.800 -0.6354 -0.7827  1.2261
   22MOL   H317 7499   6.148   2.826   0.662  1.3092 -0.2299 -0.1094
   22MOL   H318 7500   6.269   2.844   0.936  1.8983  1.9498  0.3050
   22MOL   H319 7501   6.457   2.687   0.953 -1.7480  1.2310  0.2144
   22MOL   H320 7502   6.345   2.580   0.880  1.0840 -2.4019 -2.3902
   22MOL   H321 7503   6.626   2.641   0.802  1.7297  0.2263 -2.1688
   22MOL   H322 7504   6.547   2.484   0.790 -1.3476 -0.4648 -1.2899
   22MOL   H323 7505   6.586   2.663   0.572 -1.9476  0.8140 -2.0979
   22MOL   H324 7506   6.442   2.545   0.594 -0.9514 -0.3839  1.5539
   22MOL   C325 7507   6.321   2.996   0.810  0.5002  0.8485 -0.6791
   22MOL   C326 7508   6.460   3.013   0.870 -0.2111 -0.4948 -0.3865
   22MOL   N327 7509   6.496   3.145   0.914 -0.1792 -0.2905 -0.2443
   22MOL   C328 7510   6.626   3.202   0.875  0.2752 -0.1475 -0.7032
   22MOL   C329 7511   6.626   3.340   0.943 -0.1788  0.1537  0.3940
   22MOL   C330 7512   6.506   3.349   1.026 -0.4970 -0.1169 -0.3983
   22MOL   C331 7513   6.427   3.232   0.995  0.6502  0.2653  0.4371
   22MOL   O332 7514   6.316   3.218   1.048  0.0872  0.4455  0.2690
   22MOL   H333 7515   6.250   3.062   0.859  0.8339  1.6166 -1.2234
   22MOL   H334 7516   6.326   3.019   0.703  2.4086  0.7737 -0.6240
   22MOL   H335 7517   6.530   2.956   0.808  0.3851 -0.0267 -0.1456
   22MOL   H336 7518   6.716   3.144   0.897  0.6342  1.3280  1.9841
   22MOL   H337 7519   6.624   3.215   0.766  2.5466  0.8050 -0.6504
   22MOL   H338 7520   6.715   3.350   1.004 -0.3416  2.2437  0.3193
   22MOL   H339 7521   6.638   3.412   0.862  0.1022 -0.0069  0.2944
   22MOL   H340 7522   6.524   3.354   1.133 -2.4119  1.2242 -0.1080
   22MOL   H341 7523   6.449   3.439   1.002 -3.3105 -2.7556 -4.3144
   22MOL   H342 7524   6.469   2.954   0.961  0.9744 -0.9474 -0.7792
   23MOL     C1 7525   3.566   3.569   1.564  0.3083  0.4233  0.3230
   23MOL     C2 7526   3.702   3.498   1.599  0.3681 -0.0368  0.0103
   23MOL     N3 7527   3.696   3.458   1.739 -0.4176 -0.4699 -0.5034
   23MOL     C4 7528   3.736   3.562   1.830  0.0197  0.0145 -0.5823
   23MOL     C5 7529   3.712   3.499   1.970 -0.2719  0.4849 -0.1545
   23MOL     C6 7530   3.670   3.352   1.944 -0.0696  0.2485  0.7158
   23MOL     C7 7531   3.654   3.344   1.793 -0.0928  0.2242  0.0544
   23MOL     O8 7532   3.615   3.243   1.732 -0.1666 -0.4251  0.2843
   23MOL     H9 7533   3.485   3.498   1.580  1.3890 -1.2704 -1.4871
   23MOL    H10 7534   3.543   3.657   1.623 -1.7152  0.2060 -0.1214
   23MOL    H11 7535   3.783   3.567   1.581  0.6170  0.5970  3.1459
   23MOL    H12 7536   3.842   3.582   1.814  0.1086  0.3661  0.4317
   23MOL    H13 7537   3.684   3.657   1.830  0.9191  0.5135 -0.0750
   23MOL    H14 7538   3.799   3.483   2.033 -0.5330 -1.0291 -0.1693
   23MOL    H15 7539   3.648   3.560   2.033  1.3204  0.4205  1.5496
   23MOL    H16 7540   3.750   3.281   1.964 -0.5589 -0.3154  0.6921
   23MOL    H17 7541   3.582   3.309   1.993 -0.7744 -1.2367 -1.7738
   23MOL    H18 7542   3.553   3.589   1.458 -3.1449 -0.6596  0.4738
   23MOL    C19 7543   3.742   3.385   1.500 -0.0699 -0.0365 -0.1327
   23MOL    C20 7544   3.808   3.425   1.369  0.7341 -0.5717 -0.8759
   23MOL    N21 7545   3.953   3.463   1.399  0.3586  0.7411 -0.3870
   23MOL    C22 7546   3.978   3.607   1.373  0.2171  0.2536 -0.5270
   23MOL    C23 7547   4.087   3.636   1.472  0.1303 -0.6166  0.4331
   23MOL    C24 7548   4.169   3.499   1.490 -0.6893 -0.3118 -0.2275
   23MOL    C25 7549   4.060   3.398   1.448 -0.3127  0.7863 -0.2289
   23MOL    O26 7550   4.058   3.277   1.488 -0.3845 -0.5780  0.3601
   23MOL    H27 7551   3.653   3.324   1.486  1.1561 -1.5851 -1.2998
   23MOL    H28 7552   3.813   3.316   1.544  0.8161  0.9591  0.0135
   23MOL    H29 7553   3.755   3.512   1.329  1.8504  1.6155  2.2397
   23MOL    H30 7554   4.027   3.620   1.277 -0.3869 -0.1659 -0.9017
   23MOL    H31 7555   3.894   3.675   1.384  0.3327  0.0138  2.2150
   23MOL    H32 7556   4.149   3.720   1.440 -0.6082  0.1461  0.9694
   23MOL    H33 7557   4.057   3.676   1.569  0.1052  0.6277 -0.0795
   23MOL    H34 7558   4.253   3.491   1.422  0.9939  2.1406  1.4683
   23MOL    H35 7559   4.205   3.487   1.592 -2.8659 -0.9686  0.4980
   23MOL    C36 7560   3.803   3.327   1.251  0.9263  0.0559 -0.6361
   23MOL    C37 7561   3.669   3.312   1.167 -0.7660  0.0075 -0.3767
   23MOL    N38 7562   3.648   3.431   1.085  0.2295  0.3674  0.2767
   23MOL    C39 7563   3.537   3.521   1.115 -0.1250 -0.0579  0.6422
   23MOL    C40 7564   3.503   3.602   0.984  0.0836  0.3974  0.0627
   23MOL    C41 7565   3.601   3.555   0.887 -0.6446 -0.4166 -0.0517
   23MOL    C42 7566   3.702   3.465   0.970  0.6108  0.5873  0.0077
   23MOL    O43 7567   3.796   3.415   0.921  0.1677 -0.0358 -0.0204
   23MOL    H44 7568   3.836   3.235   1.298 -0.4666 -1.2553 -2.1900
   23MOL    H45 7569   3.888   3.353   1.188  1.4532  0.5496  0.2616
   23MOL    H46 7570   3.584   3.316   1.235 -3.1861  1.0163 -3.3322
   23MOL    H47 7571   3.452   3.465   1.152  1.0514 -1.9895  0.4468
   23MOL    H48 7572   3.576   3.587   1.193 -1.4763  1.4229  0.0976
   23MOL    H49 7573   3.405   3.567   0.952  0.8655 -1.0074 -0.8479
   23MOL    H50 7574   3.491   3.710   0.996  0.2254  0.3653  0.5343
   23MOL    H51 7575   3.557   3.494   0.807 -1.5177 -0.5621  0.5331
   23MOL    H52 7576   3.661   3.630   0.836  0.2200 -0.4092  0.9583
   23MOL    C53 7577   3.662   3.179   1.088  0.3408 -0.2430 -0.3324
   23MOL    C54 7578   3.577   3.068   1.149 -0.3710  0.5581  0.0252
   23MOL    N55 7579   3.445   3.113   1.185 -0.3552 -0.4095 -0.1755
   23MOL    C56 7580   3.398   3.085   1.323  0.0026  0.2038 -0.4429
   23MOL    C57 7581   3.255   3.133   1.329 -0.0160  0.3492 -0.6607
   23MOL    C58 7582   3.210   3.158   1.178 -0.0787  0.0245 -0.4766
   23MOL    C59 7583   3.349   3.163   1.108  1.0631 -0.5410  0.3338
   23MOL    O60 7584   3.346   3.188   0.989 -0.0997 -0.0314 -0.0945
   23MOL    H61 7585   3.764   3.148   1.062  0.2189 -0.8873 -0.0604
   23MOL    H62 7586   3.623   3.202   0.989  0.8048  0.3726 -0.3719
   23MOL    H63 7587   3.633   3.030   1.235  0.3528  1.6380  0.0443
   23MOL    H64 7588   3.388   2.977   1.329  2.8888  0.0181  2.2974
   23MOL    H65 7589   3.471   3.118   1.397  0.0766 -0.4192 -0.2418
   23MOL    H66 7590   3.191   3.052   1.364  1.7960 -0.5971  0.5469
   23MOL    H67 7591   3.241   3.225   1.387  1.0206 -0.5346  1.0360
   23MOL    H68 7592   3.146   3.078   1.141 -0.9633 -0.9047  2.8990
   23MOL    H69 7593   3.158   3.251   1.156 -0.3104  0.3476  1.3600
   23MOL    C70 7594   3.554   2.948   1.053  0.2920 -0.0393 -0.3408
   23MOL    C71 7595   3.675   2.864   1.003  0.7262  0.0341 -0.4831
   23MOL    N72 7596   3.767   2.822   1.105  0.1167  0.5215  0.2590
   23MOL    C73 7597   3.721   2.758   1.230 -0.2765 -0.3671 -0.1525
   23MOL    C74 7598   3.840   2.730   1.318 -0.2144  0.0404  0.3924
   23MOL    C75 7599   3.952   2.746   1.218 -0.5056  0.8589 -0.3761
   23MOL    C76 7600   3.897   2.814   1.092 -0.4482 -0.6345 -0.9113
   23MOL    O77 7601   3.978   2.856   1.004  0.0733  0.2432 -0.4792
   23MOL    H78 7602   3.496   2.995   0.975 -1.3220 -0.3047  0.6833
   23MOL    H79 7603   3.490   2.877   1.106 -0.5257  1.3799  0.6124
   23MOL    H80 7604   3.740   2.930   0.946 -1.8579  3.6478  0.5769
   23MOL    H81 7605   3.649   2.821   1.283  0.5056  1.7330 -1.5224
   23MOL    H82 7606   3.664   2.666   1.216 -0.3799 -0.0514 -1.8968
   23MOL    H83 7607   3.846   2.811   1.391 -1.8181 -0.2538  0.8620
   23MOL    H84 7608   3.846   2.632   1.364  0.1920 -0.2316 -0.2345
   23MOL    H85 7609   4.035   2.803   1.259 -0.9545  1.9892 -1.0148
   23MOL    H86 7610   3.993   2.654   1.177  0.6363  1.6999 -1.1490
   23MOL    C87 7611   3.626   2.739   0.927 -0.2262 -0.5982  0.0457
   23MOL    C88 7612   3.558   2.760   0.794 -0.4646 -0.6162  0.7522
   23MOL    N89 7613   3.660   2.786   0.685  0.9188 -0.7225  0.4088
   23MOL    C90 7614   3.636   2.890   0.593  0.2324 -0.5931 -0.0572
   23MOL    C91 7615   3.750   2.882   0.486 -0.5740  0.2067  0.3648
   23MOL    C92 7616   3.831   2.760   0.532 -0.0427  0.1658  0.3847
   23MOL    C93 7617   3.751   2.700   0.644 -0.1137 -0.2701  0.7782
   23MOL    O94 7618   3.772   2.589   0.691 -0.3889 -0.4346  0.2618
   23MOL    H95 7619   3.549   2.689   0.987  0.2963  0.5078  1.6721
   23MOL    H96 7620   3.711   2.671   0.916  0.2907  0.1597 -0.7041
   23MOL    H97 7621   3.492   2.845   0.803 -1.3147 -1.4936  3.3923
   23MOL    H98 7622   3.540   2.886   0.543  0.1397 -0.3361  0.0993
   23MOL    H99 7623   3.649   2.983   0.649  0.0120 -1.4342  1.4332
   23MOL   H100 7624   3.715   2.879   0.383  0.9546 -0.4530 -0.1526
   23MOL   H101 7625   3.810   2.973   0.493 -0.8088  0.4100 -0.1887
   23MOL   H102 7626   3.849   2.695   0.446  0.6097  1.9803 -0.9042
   23MOL   H103 7627   3.911   2.794   0.597  1.0665 -1.6542  0.0020
   23MOL   C104 7628   3.472   2.637   0.754 -0.6197  0.4617 -0.9246
   23MOL   C105 7629   3.318   2.650   0.773  0.0198  0.0902  0.4568
   23MOL   N106 7630   3.280   2.671   0.914  0.2311 -0.5849  0.5919
   23MOL   C107 7631   3.271   2.553   1.000 -0.6448  0.1440  0.7528
   23MOL   C108 7632   3.212   2.603   1.137 -0.8358 -0.2543  0.0074
   23MOL   C109 7633   3.212   2.752   1.124 -0.0137  0.6724 -0.3641
   23MOL   C110 7634   3.256   2.783   0.984  0.5656 -0.2110 -0.0356
   23MOL   O111 7635   3.245   2.899   0.949 -0.5091  0.2102 -0.6840
   23MOL   H112 7636   3.516   2.551   0.804 -2.2949  1.0239  1.6001
   23MOL   H113 7637   3.490   2.608   0.651  1.0315 -0.3285 -0.4311
   23MOL   H114 7638   3.293   2.547   0.747  0.3053  0.2791 -0.5623
   23MOL   H115 7639   3.205   2.486   0.944  0.3848  0.3790 -0.7816
   23MOL   H116 7640   3.373   2.521   1.018 -1.6863 -2.1463  2.9690
   23MOL   H117 7641   3.109   2.566   1.143 -0.2221 -2.0250 -0.3799
   23MOL   H118 7642   3.255   2.581   1.234 -1.2271 -0.7072  0.0837
   23MOL   H119 7643   3.280   2.794   1.198 -0.5693  0.6122  0.1912
   23MOL   H120 7644   3.115   2.800   1.140 -1.0048 -1.3766 -0.0973
   23MOL   C121 7645   3.249   2.748   0.672  0.2247  0.2799 -0.2377
   23MOL   C122 7646   3.158   2.669   0.572 -1.0677 -0.1128 -0.0150
   23MOL   N123 7647   3.049   2.604   0.644  0.2452 -0.1997 -0.1725
   23MOL   C124 7648   3.049   2.462   0.644 -0.6270  0.3406  0.1243
   23MOL   C125 7649   2.912   2.422   0.698 -0.3022 -0.4911 -0.6573
   23MOL   C126 7650   2.822   2.550   0.689 -0.6584  0.1103 -0.1214
   23MOL   C127 7651   2.925   2.656   0.669 -0.1932  0.2648 -0.5328
   23MOL   O128 7652   2.894   2.777   0.673  0.2995  0.6470  0.2820
   23MOL   H129 7653   3.321   2.817   0.627  0.2042  0.6857  0.3523
   23MOL   H130 7654   3.179   2.817   0.719  1.9390 -0.1451  3.1182
   23MOL   H131 7655   3.215   2.586   0.530 -0.5806  0.4423 -0.4672
   23MOL   H132 7656   3.128   2.414   0.701 -0.6776  1.5353  1.2327
   23MOL   H133 7657   3.057   2.430   0.540  0.4434 -3.1227  1.2121
   23MOL   H134 7658   2.861   2.334   0.658  1.1382 -2.3768  1.5170
   23MOL   H135 7659   2.914   2.408   0.806 -1.0685  0.5637 -0.5036
   23MOL   H136 7660   2.743   2.541   0.615 -0.6004 -0.7033 -0.0895
   23MOL   H137 7661   2.766   2.578   0.779  0.4541  1.0049  0.3041
   23MOL   C138 7662   3.115   2.746   0.435 -0.0993 -0.9665  0.8153
   23MOL   C139 7663   3.226   2.795   0.339 -0.0754 -0.5306 -0.5469
   23MOL   N140 7664   3.284   2.678   0.281 -0.3624  0.0237 -0.7133
   23MOL   C141 7665   3.427   2.660   0.308 -0.2539 -0.3675  0.1211
   23MOL   C142 7666   3.467   2.529   0.235  0.7332 -0.1510 -0.0742
   23MOL   C143 7667   3.337   2.465   0.190  0.2807  0.1752  1.0713
   23MOL   C144 7668   3.232   2.574   0.215  0.1862 -0.6537  0.2671
   23MOL   O145 7669   3.119   2.571   0.162 -0.2626  0.0355  0.3227
   23MOL   H146 7670   3.066   2.836   0.472  0.1489 -0.7220  0.5550
   23MOL   H147 7671   3.050   2.683   0.375 -1.3758 -0.2588  1.4232
   23MOL   H148 7672   3.303   2.842   0.401  0.5855 -1.2972 -0.7824
   23MOL   H149 7673   3.492   2.744   0.284 -1.1948 -0.3560 -2.5311
   23MOL   H150 7674   3.452   2.649   0.414  0.7488  0.4569 -0.0166
   23MOL   H151 7675   3.543   2.547   0.159  2.0004  3.1119  1.8454
   23MOL   H152 7676   3.519   2.473   0.313  0.1333  2.8920  2.6482
   23MOL   H153 7677   3.309   2.379   0.250  0.3600  1.0187  2.3232
   23MOL   H154 7678   3.332   2.433   0.086 -0.7030 -0.8673  1.4378
   23MOL   C155 7679   3.179   2.898   0.228 -0.0761 -0.4311 -0.3844
   23MOL   C156 7680   3.292   2.951   0.127 -0.2391  0.1880  0.1203
   23MOL   N157 7681   3.227   2.982   0.001  0.2573 -0.4449  0.5481
   23MOL   C158 7682   3.230   2.887   7.801  0.7083 -0.3296  0.1234
   23MOL   C159 7683   3.181   2.953   7.682  0.2424 -0.9036  0.3567
   23MOL   C160 7684   3.116   3.080   7.725  0.6336  0.1926  0.3679
   23MOL   C161 7685   3.154   3.088   7.870 -0.0415  0.0566 -0.5394
   23MOL   O162 7686   3.114   3.176   0.041  0.4435 -0.0131  0.5814
   23MOL   H163 7687   3.144   2.991   0.273  0.9987  0.1325 -0.6785
   23MOL   H164 7688   3.097   2.862   0.167  0.8119  0.3703 -2.0991
   23MOL   H165 7689   3.356   2.863   0.116 -0.9904 -0.4365  0.6073
   23MOL   H166 7690   3.330   2.846   7.787  2.0948  2.8787  0.1596
   23MOL   H167 7691   3.160   2.809   7.829  0.7048 -0.7147 -0.9355
   23MOL   H168 7692   3.264   2.980   7.616 -0.2799  0.3751  0.2198
   23MOL   H169 7693   3.118   2.888   7.621  1.2356 -1.3740 -0.1937
   23MOL   H170 7694   3.166   3.168   7.684  1.5276  0.1276  1.3006
   23MOL   H171 7695   3.008   3.085   7.710  0.8751  1.2448 -1.1303
   23MOL   C172 7696   3.376   3.072   0.187  0.1532  0.5021  0.1040
   23MOL   C173 7697   3.505   3.118   0.107  1.0082 -0.2944 -0.1185
   23MOL   N174 7698   3.564   3.227   0.178  0.0116  0.1156 -0.6889
   23MOL   C175 7699   3.532   3.355   0.126 -0.3954  0.0579 -0.2114
   23MOL   C176 7700   3.575   3.451   0.237 -0.2546 -0.6248  0.3748
   23MOL   C177 7701   3.646   3.373   0.351 -0.7366  0.3834 -0.2896
   23MOL   C178 7702   3.623   3.237   0.295  0.8931  0.0388  0.4163
   23MOL   O179 7703   3.646   3.137   0.359  0.5512 -0.5042  0.1802
   23MOL   H180 7704   3.417   3.033   0.279  1.7923 -0.4745 -1.0129
   23MOL   H181 7705   3.303   3.148   0.213  0.1836 -0.0575  1.8687
   23MOL   H182 7706   3.475   3.159   0.011 -0.1354  2.0276  1.2048
   23MOL   H183 7707   3.592   3.357   0.035 -0.4960 -2.7772 -0.3651
   23MOL   H184 7708   3.424   3.365   0.110 -0.3028  2.8249  0.6372
   23MOL   H185 7709   3.487   3.510   0.264 -1.0448 -0.4381 -2.4194
   23MOL   H186 7710   3.640   3.520   0.183 -1.0100 -0.5074 -0.4009
   23MOL   H187 7711   3.753   3.396   0.350 -0.2001 -1.8165  1.5108
   23MOL   H188 7712   3.598   3.386   0.448  1.0595 -1.2988  0.8622
   23MOL   C189 7713   3.598   2.997   0.082 -0.4768  0.0589  0.1338
   23MOL   C190 7714   3.747   3.024   0.033  0.4546  0.1048 -0.0580
   23MOL   N191 7715   3.813   2.889   0.018  0.3008  0.0587  0.8668
   23MOL   C192 7716   3.903   2.842   0.120  0.3931  0.3494  0.1944
   23MOL   C193 7717   3.940   2.700   0.079  0.1926 -0.0904 -0.3784
   23MOL   C194 7718   3.857   2.661   7.859  0.8800 -0.2943  0.1876
   23MOL   C195 7719   3.775   2.792   7.831 -0.4175 -0.3408 -0.3895
   23MOL   O196 7720   3.690   2.803   7.740 -0.3314  0.2820  0.2253
   23MOL   H197 7721   3.547   2.930   0.013 -0.6965  1.1442 -0.7650
   23MOL   H198 7722   3.607   2.942   0.176  0.9074 -0.5087 -0.3070
   23MOL   H199 7723   3.801   3.071   0.116  0.8017  1.6378 -1.1332
   23MOL   H200 7724   3.990   2.907   0.116 -0.3875  1.4540  0.8805
   23MOL   H201 7725   3.861   2.854   0.220 -0.0432  1.0252 -0.0703
   23MOL   H202 7726   4.046   2.694   0.057  0.2800 -2.4465  0.4965
   23MOL   H203 7727   3.913   2.630   0.158  2.0775 -2.0208 -1.3792
   23MOL   H204 7728   3.927   2.633   7.781 -2.6658  0.7248 -3.5704
   23MOL   H205 7729   3.801   2.571   7.880  1.4729 -0.9372 -0.9264
   23MOL   C206 7730   3.759   3.115   7.813 -0.4256  0.4595  0.1085
   23MOL   C207 7731   3.895   3.165   7.749  0.3875  0.0336 -0.5656
   23MOL   N208 7732   3.906   3.310   7.760  0.6237 -0.2720  1.2980
   23MOL   C209 7733   3.912   3.387   7.639  0.4838 -0.7147  0.3366
   23MOL   C210 7734   3.944   3.531   7.690  0.2888  0.4508 -0.7656
   23MOL   C211 7735   3.895   3.533   7.839  0.7561 -0.0729 -0.0277
   23MOL   C212 7736   3.900   3.387   7.871 -0.5356  0.2407 -0.6690
   23MOL   O213 7737   3.886   3.344   0.082 -0.0630  0.8320 -0.1041
   23MOL   H214 7738   3.701   3.206   7.824  1.3924  1.8469 -1.4385
   23MOL   H215 7739   3.700   3.078   7.729  0.6828  0.8599 -0.8733
   23MOL   H216 7740   3.893   3.138   7.644  1.9718  0.2434 -0.6719
   23MOL   H217 7741   3.982   3.362   7.559  0.1933  3.2439 -1.3092
   23MOL   H218 7742   3.813   3.386   7.593  0.2241  1.6905  0.7671
   23MOL   H219 7743   4.048   3.561   7.704  0.6292 -1.0210 -0.0718
   23MOL   H220 7744   3.889   3.605   7.632 -0.8348 -0.7093 -1.2124
   23MOL   H221 7745   3.971   3.582   7.900 -0.3068  2.3251 -0.5764
   23MOL   H222 7746   3.797   3.578   7.853  1.6889  2.0212 -0.0108
   23MOL   C223 7747   4.019   3.090   7.811 -0.0708 -0.2959  0.6993
   23MOL   C224 7748   4.157   3.104   7.732  0.5810  0.1748 -0.3637
   23MOL   N225 7749   4.135   3.056   7.596 -0.6986  0.7427  0.0231
   23MOL   C226 7750   4.163   3.142   7.479  0.6376 -0.3192  0.3076
   23MOL   C227 7751   4.159   3.057   7.358  0.2953  0.6625 -0.3568
   23MOL   C228 7752   4.121   2.913   7.414 -0.5354 -0.0010 -0.0588
   23MOL   C229 7753   4.111   2.930   7.561  0.2140  0.5699  0.0676
   23MOL   O230 7754   4.069   2.833   7.627  0.4973 -0.4891  0.7106
   23MOL   H231 7755   3.989   2.985   7.805  2.3515 -1.1625  2.7880
   23MOL   H232 7756   4.015   3.121   0.009 -0.8859 -0.9011  0.8554
   23MOL   H233 7757   4.226   3.035   7.781 -0.6878 -1.9523 -1.4946
   23MOL   H234 7758   4.088   3.221   7.474 -0.3180 -1.2868 -0.7105
   23MOL   H235 7759   4.254   3.200   7.463  1.2405 -1.0332  1.1298
   23MOL   H236 7760   4.088   3.080   7.278 -0.1508 -1.4144 -0.5906
   23MOL   H237 7761   4.257   3.051   7.312  0.2121 -2.3735 -0.2111
   23MOL   H238 7762   4.024   2.876   7.379 -0.1823 -2.9417  1.9815
   23MOL   H239 7763   4.200   2.841   7.393  1.2904  2.5114 -2.1980
   23MOL   C240 7764   4.230   3.239   7.740 -0.1816  0.7499  0.2384
   23MOL   C241 7765   4.262   3.296   7.872 -0.1320  0.7048  0.4117
   23MOL   N242 7766   4.354   3.200   0.044  0.3240 -0.7037 -0.0608
   23MOL   C243 7767   4.324   3.139   0.169 -0.6806  0.0454 -0.2004
   23MOL   C244 7768   4.459   3.121   0.239 -0.8415  0.1001 -0.0903
   23MOL   C245 7769   4.557   3.121   0.134  0.0711  0.0195  0.7013
   23MOL   C246 7770   4.488   3.192   0.024  0.1870 -0.1604  0.1759
   23MOL   O247 7771   4.548   3.239   7.837  0.0493 -0.4752  0.1971
   23MOL   H248 7772   4.164   3.315   7.697 -1.8704  0.1070  1.6192
   23MOL   H249 7773   4.314   3.230   7.672 -0.2123 -0.5587  0.3628
   23MOL   H250 7774   4.172   3.302   0.028  0.0283 -4.5044  1.4461
   23MOL   H251 7775   4.273   3.215   0.228  1.8205  1.2557  0.4870
   23MOL   H252 7776   4.264   3.049   0.163 -1.3356  0.5658 -1.5621
   23MOL   H253 7777   4.473   3.211   0.299 -0.2481 -0.3550  0.4592
   23MOL   H254 7778   4.466   3.039   0.311  2.2913 -0.9565 -1.5326
   23MOL   H255 7779   4.653   3.168   0.156  0.4333 -0.3823 -0.0172
   23MOL   H256 7780   4.568   3.016   0.106  0.0885  0.3589 -0.5850
   23MOL   C257 7781   4.305   3.448   7.872  0.9606 -0.1866  0.3315
   23MOL   C258 7782   4.320   3.507   0.106  0.0309 -0.0632 -0.4838
   23MOL   N259 7783   4.406   3.631   0.102  0.2229  0.1113 -0.1687
   23MOL   C260 7784   4.536   3.619   0.172 -0.2999  0.0357 -0.1094
   23MOL   C261 7785   4.603   3.753   0.151  0.5351 -0.2580  0.1357
   23MOL   C262 7786   4.501   3.843   0.092 -1.0151 -0.8331  0.0135
   23MOL   C263 7787   4.378   3.755   0.061 -0.0505 -0.3491 -0.0516
   23MOL   O264 7788   4.273   3.790   0.003  0.1313 -0.1339 -0.4761
   23MOL   H265 7789   4.218   3.489   7.821  0.4688  0.6841  1.8327
   23MOL   H266 7790   4.392   3.471   7.811  0.1948  0.8000 -0.3974
   23MOL   H267 7791   4.369   3.427   0.162 -0.4979  0.7597  1.1836
   23MOL   H268 7792   4.522   3.597   0.278  2.0749  1.0095  0.4384
   23MOL   H269 7793   4.597   3.545   0.121 -1.9879 -1.9099  0.6087
   23MOL   H270 7794   4.636   3.797   0.245 -2.0485  2.1866 -0.0376
   23MOL   H271 7795   4.690   3.746   0.086 -0.1719 -2.0644 -0.6483
   23MOL   H272 7796   4.475   3.918   0.167  0.6909  0.1049 -0.3037
   23MOL   H273 7797   4.534   3.892   0.000  2.0970 -1.8119  0.5586
   23MOL   C274 7798   4.175   3.542   0.169  0.2312 -0.1814  0.7025
   23MOL   C275 7799   4.175   3.572   0.321 -0.6244  0.5800 -0.2859
   23MOL   N276 7800   4.063   3.664   0.345 -0.2229 -0.1422 -0.1700
   23MOL   C277 7801   3.927   3.614   0.327  0.4177 -0.3937 -0.3591
   23MOL   C278 7802   3.837   3.741   0.328 -0.3995  0.7403 -0.0396
   23MOL   C279 7803   3.928   3.867   0.344  0.5544 -0.4014  0.2384
   23MOL   C280 7804   4.063   3.803   0.338  0.3389  0.3011 -0.0355
   23MOL   O281 7805   4.165   3.866   0.346 -0.5430 -0.0202  0.6373
   23MOL   H282 7806   4.103   3.464   0.146  2.6005 -1.7672 -1.6222
   23MOL   H283 7807   4.136   3.621   0.106  1.8482  0.5551  0.6014
   23MOL   H284 7808   4.259   3.635   0.348 -0.5168 -0.9771  3.2295
   23MOL   H285 7809   3.921   3.573   0.226 -2.1713 -0.0436 -0.3770
   23MOL   H286 7810   3.891   3.553   0.410  1.6090  2.3128  2.2529
   23MOL   H287 7811   3.794   3.747   0.227  0.8566 -2.5568 -0.8290
   23MOL   H288 7812   3.773   3.730   0.416 -0.5596 -2.9602 -0.5276
   23MOL   H289 7813   3.911   3.934   0.260 -0.2459 -0.3556  0.4337
   23MOL   H290 7814   3.921   3.922   0.437  0.9195  0.2112 -0.0964
   23MOL   C291 7815   4.173   3.447   0.416  0.3277 -0.1799 -0.2989
   23MOL   C292 7816   4.130   3.463   0.566  0.0710  0.4247  0.3913
   23MOL   N293 7817   4.094   3.333   0.628  0.1181  0.3522  0.7749
   23MOL   C294 7818   3.956   3.294   0.656  0.7009 -0.1018  0.3462
   23MOL   C295 7819   3.957   3.171   0.746 -0.7405  0.6859  0.3208
   23MOL   C296 7820   4.103   3.121   0.743  0.3662  0.0262  0.7093
   23MOL   C297 7821   4.172   3.227   0.661 -0.2257  0.6900 -0.3350
   23MOL   O298 7822   4.288   3.214   0.623 -0.2803  0.6989  0.3367
   23MOL   H299 7823   4.280   3.429   0.426 -0.1963 -3.1375  0.2593
   23MOL   H300 7824   4.123   3.363   0.368 -1.6525  0.9092 -0.2025
   23MOL   H301 7825   4.040   3.524   0.562 -0.8466 -0.7185  2.4601
   23MOL   H302 7826   3.907   3.387   0.685  1.8360  0.7784 -0.5268
   23MOL   H303 7827   3.924   3.252   0.561 -0.1324 -2.2772  1.5663
   23MOL   H304 7828   3.936   3.198   0.849  1.9593  1.0103  0.8147
   23MOL   H305 7829   3.894   3.095   0.700  0.4948 -0.4530  0.4614
   23MOL   H306 7830   4.149   3.111   0.841 -0.0740  0.3846  0.9546
   23MOL   H307 7831   4.088   3.030   0.685 -1.2759  1.7085 -1.5936
   23MOL   C308 7832   4.246   3.531   0.651 -0.3084  0.3979  0.7948
   23MOL   C309 7833   4.218   3.565   0.800  0.2405  0.5720  0.3183
   23MOL   N310 7834   4.341   3.562   0.879 -0.3386  0.0044 -0.0540
   23MOL   C311 7835   4.363   3.458   0.976 -0.8630  0.1063 -0.9360
   23MOL   C312 7836   4.508   3.489   1.028 -0.0846  0.1065  0.1436
   23MOL   C313 7837   4.559   3.614   0.953  0.2831  0.1446 -0.5935
   23MOL   C314 7838   4.431   3.658   0.880  0.3404  0.2514 -0.8854
   23MOL   O315 7839   4.443   3.755   0.802  0.0104  0.3032 -0.3910
   23MOL   H316 7840   4.286   3.621   0.605  1.0085 -0.6358 -0.1525
   23MOL   H317 7841   4.336   3.469   0.652 -0.9099 -0.4941  0.2072
   23MOL   H318 7842   4.148   3.490   0.836 -0.2704  0.4683 -0.8745
   23MOL   H319 7843   4.289   3.461   1.056 -0.2137  0.5015 -0.3410
   23MOL   H320 7844   4.373   3.363   0.923  2.4173 -1.1032  1.6236
   23MOL   H321 7845   4.499   3.522   1.131 -2.0093  0.2907 -0.0742
   23MOL   H322 7846   4.579   3.406   1.021  0.9834  0.9994  0.0866
   23MOL   H323 7847   4.603   3.682   1.027  2.9197 -0.3569 -1.6382
   23MOL   H324 7848   4.643   3.585   0.889 -1.3955 -0.9651 -2.3451
   23MOL   C325 7849   4.141   3.698   0.823 -0.4348 -0.3349 -0.0521
   23MOL   C326 7850   3.991   3.690   0.790  0.0771 -0.3435 -0.7908
   23MOL   N327 7851   3.908   3.799   0.846  0.0920 -0.1662  0.0004
   23MOL   C328 7852   3.857   3.906   0.762  0.5974 -0.1482 -0.0930
   23MOL   C329 7853   3.768   3.988   0.851  0.1913  0.1075 -0.3193
   23MOL   C330 7854   3.785   3.926   0.989  0.0510  0.5526  0.1042
   23MOL   C331 7855   3.875   3.802   0.972 -0.2919 -0.2059  0.4087
   23MOL   O332 7856   3.906   3.723   1.068 -0.4631  0.3474 -0.0205
   23MOL   H333 7857   4.181   3.789   0.778  1.2279 -1.8019 -1.6513
   23MOL   H334 7858   4.146   3.715   0.930 -0.8987  0.0811 -0.0938
   23MOL   H335 7859   3.960   3.591   0.823 -1.7401  0.0661 -1.2084
   23MOL   H336 7860   3.931   3.964   0.707  1.5158 -3.1215 -2.1547
   23MOL   H337 7861   3.805   3.859   0.678 -0.1883 -0.4285  0.5372
   23MOL   H338 7862   3.802   4.091   0.853  1.5603 -0.3517  0.9985
   23MOL   H339 7863   3.663   3.986   0.823 -0.1596 -1.0813  1.0159
   23MOL   H340 7864   3.828   4.002   1.054 -1.2575  1.1188  0.3166
   23MOL   H341 7865   3.690   3.893   1.030 -0.8474 -0.4849 -2.6905
   23MOL   H342 7866   3.979   3.695   0.682  1.8605 -2.6263 -1.1239
   24MOL     C1 7867   5.606   6.661   5.872 -0.3786  0.2416  0.1140
   24MOL     C2 7868   5.699   6.701   5.993  0.5501 -0.3964  0.1524
   24MOL     N3 7869   5.834   6.640   5.974 -0.1001  0.6040  0.1074
   24MOL     C4 7870   5.926   6.677   5.863 -0.1137 -0.1979 -0.3793
   24MOL     C5 7871   6.061   6.610   5.898 -0.2872  0.9040  0.1866
   24MOL     C6 7872   6.027   6.501   6.002 -0.5996 -0.4219  0.1666
   24MOL     C7 7873   5.883   6.534   6.040 -0.0340  0.1247 -0.3820
   24MOL     O8 7874   5.819   6.465   6.120  0.1164 -0.7751  0.1805
   24MOL     H9 7875   5.506   6.701   5.885 -0.2159  0.6503  0.0931
   24MOL    H10 7876   5.649   6.684   5.775  1.4397 -1.7428  0.3967
   24MOL    H11 7877   5.647   6.658   6.078  0.7575  1.4699  1.2480
   24MOL    H12 7878   5.887   6.658   5.763 -0.8652  0.6030 -0.2510
   24MOL    H13 7879   5.932   6.786   5.873 -1.9357 -0.2232  1.3051
   24MOL    H14 7880   6.111   6.570   5.810 -0.8843 -2.1646  1.1849
   24MOL    H15 7881   6.127   6.684   5.943 -0.6396  0.3366  1.6371
   24MOL    H16 7882   6.019   6.402   5.956 -3.9662 -0.5771  0.9566
   24MOL    H17 7883   6.101   6.493   6.081  0.0749 -0.3349 -0.4419
   24MOL    H18 7884   5.588   6.554   5.861 -2.2431  0.5611 -0.0490
   24MOL    C19 7885   5.708   6.859   6.020  0.3601 -0.5489  0.3300
   24MOL    C20 7886   5.570   6.937   6.024 -0.2084  0.6819 -0.2739
   24MOL    N21 7887   5.493   6.881   6.134  0.0022 -0.2683 -0.2384
   24MOL    C22 7888   5.364   6.816   6.113  0.3723  0.2362 -0.0240
   24MOL    C23 7889   5.306   6.804   6.252  0.7926  0.2656 -0.0775
   24MOL    C24 7890   5.391   6.879   6.350 -0.7827 -0.0310 -0.0486
   24MOL    C25 7891   5.505   6.928   6.259 -0.2578 -0.0073 -0.4465
   24MOL    O26 7892   5.590   7.000   6.310  0.0241  0.0523 -0.4127
   24MOL    H27 7893   5.778   6.906   5.951 -0.2315 -0.4714 -0.2251
   24MOL    H28 7894   5.767   6.865   6.112 -1.8635 -1.2746  1.8452
   24MOL    H29 7895   5.512   6.916   5.934 -0.3400 -0.4474  0.0646
   24MOL    H30 7896   5.299   6.887   6.062  0.2588 -1.1509 -1.8450
   24MOL    H31 7897   5.372   6.728   6.049 -1.7739  0.5139 -0.7205
   24MOL    H32 7898   5.197   6.818   6.255  0.5148 -1.4846 -1.0865
   24MOL    H33 7899   5.306   6.697   6.273  2.8521  0.8236  2.9646
   24MOL    H34 7900   5.350   6.965   6.404  0.3753 -0.3687  1.3871
   24MOL    H35 7901   5.433   6.809   6.421  1.2924 -2.8851 -3.9286
   24MOL    C36 7902   5.596   7.093   6.020 -0.1856 -0.4807  0.5068
   24MOL    C37 7903   5.658   7.150   5.898 -0.1141 -0.0601  0.9549
   24MOL    N38 7904   5.576   7.107   5.787  0.0923  0.5376  0.7581
   24MOL    C39 7905   5.614   6.996   5.695  0.1037  0.8636  0.4953
   24MOL    C40 7906   5.528   7.011   5.569  0.0118 -0.7328 -0.5593
   24MOL    C41 7907   5.414   7.101   5.604  0.3407 -0.2644  0.0250
   24MOL    C42 7908   5.457   7.152   5.740  0.8074 -0.2789  0.3366
   24MOL    O43 7909   5.392   7.239   5.797  0.5351  0.5873  0.1515
   24MOL    H44 7910   5.649   7.110   6.113  0.6827 -1.7485  0.2476
   24MOL    H45 7911   5.501   7.146   6.032  0.3718  0.6795 -0.0944
   24MOL    H46 7912   5.749   7.094   5.877  0.9884  1.5746  1.2556
   24MOL    H47 7913   5.718   6.998   5.662  0.9819  2.2776  3.1616
   24MOL    H48 7914   5.587   6.900   5.738 -0.7073  0.3033 -1.2234
   24MOL    H49 7915   5.593   7.049   5.490  0.5626  1.7932  1.0214
   24MOL    H50 7916   5.492   6.911   5.545 -0.0499 -0.9816  0.5591
   24MOL    H51 7917   5.424   7.199   5.559 -1.1337  0.0221  0.2811
   24MOL    H52 7918   5.315   7.054   5.598  0.6077 -0.6442 -1.7189
   24MOL    C53 7919   5.686   7.302   5.914  1.0932  0.1878 -0.2248
   24MOL    C54 7920   5.784   7.330   6.032  0.6229 -0.0526  0.4357
   24MOL    N55 7921   5.915   7.263   6.008  0.2087 -0.1415  0.4174
   24MOL    C56 7922   5.975   7.155   6.088  0.6454 -0.4908 -0.1350
   24MOL    C57 7923   6.086   7.089   6.010 -0.5815  0.2063  0.3043
   24MOL    C58 7924   6.120   7.198   5.912  0.6750  0.5412  0.7082
   24MOL    C59 7925   5.998   7.285   5.907  1.1356 -0.6209 -0.0907
   24MOL    O60 7926   5.961   7.354   5.809  0.0487 -0.0643 -0.3709
   24MOL    H61 7927   5.598   7.362   5.936  0.3666 -0.5228 -1.1319
   24MOL    H62 7928   5.722   7.337   5.817 -1.2706  1.2978 -0.7415
   24MOL    H63 7929   5.741   7.300   6.128 -1.9113  0.7262 -0.4174
   24MOL    H64 7930   6.011   7.201   6.179  0.3004 -0.5605  0.0356
   24MOL    H65 7931   5.898   7.093   6.133 -0.2370 -0.1065 -1.0993
   24MOL    H66 7932   6.169   7.058   6.074 -0.8308  1.3550  1.2122
   24MOL    H67 7933   6.044   7.000   5.963 -1.1092  1.0046 -0.7456
   24MOL    H68 7934   6.197   7.264   5.951 -0.1347  1.3986  0.8822
   24MOL    H69 7935   6.123   7.167   5.808 -1.0172 -0.3348  0.9040
   24MOL    C70 7936   5.795   7.487   6.046 -0.5727  0.3691  0.0682
   24MOL    C71 7937   5.887   7.538   6.161  0.1664  0.5446  0.2778
   24MOL    N72 7938   5.918   7.679   6.135 -0.9623 -0.0097  0.2991
   24MOL    C73 7939   6.049   7.716   6.070 -0.3047  0.2444  0.6246
   24MOL    C74 7940   6.018   7.857   6.020  0.2576 -0.8194 -0.0467
   24MOL    C75 7941   5.901   0.008   6.097  0.2904  0.4584 -0.4080
   24MOL    C76 7942   5.841   7.790   6.160 -0.4778  0.2854 -0.3361
   24MOL    O77 7943   5.727   7.791   6.211  0.0069  0.4655 -0.2129
   24MOL    H78 7944   5.701   7.539   6.062  0.2932  1.5977  1.3507
   24MOL    H79 7945   5.831   7.528   5.951 -1.0500 -0.5178 -0.4953
   24MOL    H80 7946   5.979   7.480   6.152  0.5266  1.2958 -0.9388
   24MOL    H81 7947   6.125   7.722   6.148 -0.7869  0.9053  1.0413
   24MOL    H82 7948   6.083   7.649   5.991  1.9841  0.1935  1.6248
   24MOL    H83 7949   6.102   0.017   6.041 -0.7619  0.0963  1.2178
   24MOL    H84 7950   5.997   7.853   5.913 -2.3684 -2.7086  0.5023
   24MOL    H85 7951   5.937   0.071   6.178 -0.8740  0.7786 -0.1266
   24MOL    H86 7952   5.828   0.066   6.040  0.5590  1.5182  0.3191
   24MOL    C87 7953   5.823   7.510   6.314  0.3179 -0.9422 -0.1861
   24MOL    C88 7954   5.914   7.427   6.405  0.0937  0.0993 -0.3454
   24MOL    N89 7955   6.016   7.510   6.459 -0.0301  0.2079 -0.2988
   24MOL    C90 7956   5.995   7.646   6.501 -0.5812 -0.1377 -0.0662
   24MOL    C91 7957   6.127   7.698   6.565 -0.1174  0.2082  0.4805
   24MOL    C92 7958   6.230   7.578   6.552 -0.2792 -0.2712 -0.1172
   24MOL    C93 7959   6.142   7.470   6.488  0.4390 -0.3793  0.0734
   24MOL    O94 7960   6.186   7.358   6.470 -0.4637 -0.3194 -0.2750
   24MOL    H95 7961   5.728   7.458   6.299 -1.0071  1.4237 -0.2125
   24MOL    H96 7962   5.787   7.601   6.361  0.0843 -0.5084 -1.1760
   24MOL    H97 7963   5.964   7.346   6.352  0.8786  0.0466  0.4739
   24MOL    H98 7964   5.983   7.702   6.408  1.4740 -1.4767 -1.1557
   24MOL    H99 7965   5.911   7.648   6.571  1.2516 -2.9234  2.3170
   24MOL   H100 7966   6.171   7.787   6.521  3.6479  0.2912  4.1671
   24MOL   H101 7967   6.110   7.731   6.667  1.6387 -5.2808  2.7236
   24MOL   H102 7968   6.321   7.601   6.495 -0.0745  0.0822  0.3519
   24MOL   H103 7969   6.253   7.560   6.656 -1.1466 -0.0060  0.1248
   24MOL   C104 7970   5.832   7.372   6.517  0.5331  0.1126 -1.2173
   24MOL   C105 7971   5.873   7.237   6.583  0.3775 -0.2082 -0.6369
   24MOL   N106 7972   5.810   7.223   6.710  0.0137  0.1402 -0.2376
   24MOL   C107 7973   5.661   7.219   6.728  0.2589  0.0747 -0.0127
   24MOL   C108 7974   5.632   7.162   6.867 -0.8117  0.2970  0.2055
   24MOL   C109 7975   5.764   7.194   6.938  0.0515  0.1748  0.4730
   24MOL   C110 7976   5.866   7.225   6.831  0.2432  0.2760  0.1250
   24MOL   O111 7977   5.985   7.237   6.855  0.0268 -0.0694  0.5146
   24MOL   H112 7978   5.729   7.351   6.487  0.0070 -1.7956  1.7627
   24MOL   H113 7979   5.818   7.447   6.596  0.2333 -1.8748  0.6538
   24MOL   H114 7980   5.979   7.243   6.607 -0.0188  0.7892  0.9193
   24MOL   H115 7981   5.622   7.315   6.696 -1.6254 -0.5466  0.3289
   24MOL   H116 7982   5.621   7.144   6.659 -1.4622  3.9411 -3.4444
   24MOL   H117 7983   5.544   7.207   6.913  0.2250 -0.4639  3.0358
   24MOL   H118 7984   5.617   7.055   6.864 -1.6555  0.4486 -1.4581
   24MOL   H119 7985   5.807   7.110   6.992 -0.9933 -0.8605 -0.3033
   24MOL   H120 7986   5.748   7.284   6.998  0.8393 -0.5542  1.7880
   24MOL   C121 7987   5.851   7.115   6.489  0.1442 -0.6235 -0.2747
   24MOL   C122 7988   5.933   6.995   6.533 -0.1663 -0.0327  0.0584
   24MOL   N123 7989   5.855   6.872   6.491  0.6344  0.2527  0.7526
   24MOL   C124 7990   5.759   6.814   6.579  0.7163  0.4230 -0.4889
   24MOL   C125 7991   5.713   6.690   6.513  0.5075 -0.1037  0.9283
   24MOL   C126 7992   5.783   6.690   6.373  0.3061 -0.1246 -0.1529
   24MOL   C127 7993   5.858   6.814   6.374 -0.1287 -0.5836 -0.3694
   24MOL   O128 7994   5.933   6.844   6.277 -0.5545 -0.7893  0.2908
   24MOL   H129 7995   5.868   7.133   6.383 -0.1923 -1.7777 -0.5346
   24MOL   H130 7996   5.744   7.096   6.494  0.2871 -1.2312  0.5812
   24MOL   H131 7997   5.931   6.991   6.642 -1.1827  0.3648  0.0576
   24MOL   H132 7998   5.672   6.879   6.584  0.8483  0.6439 -0.9773
   24MOL   H133 7999   5.807   6.791   6.674  0.7774  1.6243 -0.2150
   24MOL   H134 8000   5.755   6.602   6.561  0.6909 -0.0678  0.8348
   24MOL   H135 8001   5.604   6.684   6.512  0.5777 -2.1174  1.6765
   24MOL   H136 8002   5.831   6.593   6.366  0.8911 -0.0038  2.0408
   24MOL   H137 8003   5.712   6.695   6.291 -0.6627 -1.0650  0.6150
   24MOL   C138 8004   6.084   7.017   6.498  0.9048  0.1478  0.3464
   24MOL   C139 8005   6.183   6.936   6.596 -0.8055 -0.0953 -0.0783
   24MOL   N140 8006   6.156   6.792   6.607  0.0389 -0.3838  0.4110
   24MOL   C141 8007   6.120   6.748   6.741  0.1698  0.1443 -0.6967
   24MOL   C142 8008   6.124   6.592   6.731 -0.0572 -0.0836 -0.0081
   24MOL   C143 8009   6.121   6.565   6.577 -0.0671 -0.0730 -0.7309
   24MOL   C144 8010   6.182   6.693   6.521  0.2422  0.7749 -0.0194
   24MOL   O145 8011   6.222   6.709   6.407  0.4914 -0.2151 -0.1712
   24MOL   H146 8012   6.112   7.122   6.497  2.4303 -0.2329  1.2493
   24MOL   H147 8013   6.104   6.989   6.395  3.7993  0.5126  0.7578
   24MOL   H148 8014   6.167   6.987   6.691 -2.2259  0.5654 -0.6621
   24MOL   H149 8015   6.202   6.786   6.802 -0.8415 -0.3219  1.0033
   24MOL   H150 8016   6.028   6.792   6.781  1.5774  1.5436  1.1037
   24MOL   H151 8017   6.219   6.551   6.764  0.6053  1.4054 -0.0292
   24MOL   H152 8018   6.051   6.535   6.788  0.6805 -0.9713  0.0556
   24MOL   H153 8019   6.021   6.575   6.537  0.2604 -1.0051 -1.8097
   24MOL   H154 8020   6.168   6.475   6.536  1.5961  0.2892  0.3305
   24MOL   C155 8021   6.332   6.955   6.550  0.3399  0.2278 -0.1293
   24MOL   C156 8022   6.390   7.098   6.568  0.8106  0.0103  0.1707
   24MOL   N157 8023   6.375   7.145   6.703  0.3899 -0.0803 -0.0286
   24MOL   C158 8024   6.313   7.276   6.727 -0.9545  0.1211 -0.1575
   24MOL   C159 8025   6.366   7.297   6.871 -0.4524  0.2956 -0.1623
   24MOL   C160 8026   6.376   7.159   6.937 -0.2052 -0.2556  0.4794
   24MOL   C161 8027   6.404   7.078   6.819 -0.4393 -0.1192  0.2972
   24MOL   O162 8028   6.453   6.963   6.835  0.1579  0.2045  0.4253
   24MOL   H163 8029   6.328   6.936   6.443  0.4861  0.7530 -0.2297
   24MOL   H164 8030   6.398   6.882   6.597  0.5665  0.1700 -0.5353
   24MOL   H165 8031   6.326   7.160   6.505  3.2719 -0.0614 -2.5170
   24MOL   H166 8032   6.362   7.348   6.661  1.6621 -1.5743 -0.1432
   24MOL   H167 8033   6.206   7.260   6.713 -0.9768  0.4388 -0.3686
   24MOL   H168 8034   6.468   7.334   6.874  0.2684 -1.6787  0.4003
   24MOL   H169 8035   6.296   7.355   6.931 -2.6977 -0.1459 -2.2500
   24MOL   H170 8036   6.460   7.144   7.005 -0.4572  1.7863  1.2987
   24MOL   H171 8037   6.286   7.126   6.989 -0.1009  0.9328  1.4350
   24MOL   C172 8038   6.533   7.129   6.521  0.1889  1.0803  0.3547
   24MOL   C173 8039   6.538   7.128   6.366  0.7024 -0.2092  0.1967
   24MOL   N174 8040   6.483   7.248   6.299 -0.3361 -0.3489  0.3137
   24MOL   C175 8041   6.384   7.227   6.192  0.4912 -0.4551  0.0736
   24MOL   C176 8042   6.337   7.361   6.143 -0.2463 -0.9727  1.3646
   24MOL   C177 8043   6.411   7.469   6.227  0.3951  0.6878  0.2517
   24MOL   C178 8044   6.496   7.384   6.317  0.0558 -0.3743 -0.6762
   24MOL   O179 8045   6.570   7.436   6.404  0.3031 -0.3182 -0.2559
   24MOL   H180 8046   6.584   7.040   6.559 -0.8930 -0.9568 -2.7703
   24MOL   H181 8047   6.578   7.219   6.563 -1.3093  2.6946 -1.3943
   24MOL   H182 8048   6.470   7.049   6.334 -0.3803  0.6034  0.4921
   24MOL   H183 8049   6.423   7.164   6.113  2.3818 -0.0988  0.7031
   24MOL   H184 8050   6.300   7.177   6.240  0.3721  1.6148  2.1115
   24MOL   H185 8051   6.229   7.367   6.144 -0.1388  2.3272 -0.3117
   24MOL   H186 8052   6.384   7.365   6.044 -2.3593 -2.6137  0.2624
   24MOL   H187 8053   6.456   7.533   6.151  0.1865  2.1122  1.3246
   24MOL   H188 8054   6.342   7.526   6.288 -3.0927 -2.9256 -0.1155
   24MOL   C189 8055   6.680   7.093   6.310  0.1624 -0.2087  0.6674
   24MOL   C190 8056   6.704   6.938   6.294 -0.2549  0.4640 -0.9418
   24MOL   N191 8057   6.610   6.877   6.191 -0.2943 -1.0381 -0.0271
   24MOL   C192 8058   6.525   6.767   6.236 -0.1522  0.7661 -0.6053
   24MOL   C193 8059   6.422   6.754   6.124  0.3526 -0.7226  0.5999
   24MOL   C194 8060   6.474   6.834   6.007  0.4299  0.2523 -0.9328
   24MOL   C195 8061   6.587   6.918   6.066 -0.0458  0.5298  0.3383
   24MOL   O196 8062   6.638   7.016   6.010 -0.0909 -0.5243 -0.2238
   24MOL   H197 8063   6.752   7.128   6.384  2.7849  0.1722 -1.9408
   24MOL   H198 8064   6.717   7.151   6.225 -0.6319  0.2059  0.6066
   24MOL   H199 8065   6.678   6.885   6.385  1.0904 -0.7776 -1.2628
   24MOL   H200 8066   6.585   6.676   6.243 -1.0489  0.0210 -2.3103
   24MOL   H201 8067   6.478   6.796   6.330 -2.0049  0.6175 -1.4648
   24MOL   H202 8068   6.398   6.651   6.096  0.1062 -0.7002  0.7277
   24MOL   H203 8069   6.325   6.791   6.156 -0.2442 -0.2947 -1.6342
   24MOL   H204 8070   6.520   6.776   5.927  0.7761  0.9829 -1.2752
   24MOL   H205 8071   6.393   6.892   5.962 -0.4751 -0.8316 -0.6993
   24MOL   C206 8072   6.848   6.901   6.253  0.8646 -0.8499 -0.0864
   24MOL   C207 8073   6.956   6.920   6.360  0.8626 -0.1113  0.0628
   24MOL   N208 8074   6.911   6.855   6.485 -0.0007 -0.5171 -0.1070
   24MOL   C209 8075   6.886   6.932   6.611  0.1318  0.0235 -0.4466
   24MOL   C210 8076   6.865   6.822   6.716 -0.4278  0.4930 -0.0907
   24MOL   C211 8077   6.835   6.693   6.645  0.0229  0.2703  0.0775
   24MOL   C212 8078   6.891   6.723   6.503  0.1827 -0.3354 -0.9705
   24MOL   O213 8079   6.896   6.635   6.419 -0.4104  0.0139 -0.0160
   24MOL   H214 8080   6.873   6.967   6.170  0.3003  0.5212  0.8150
   24MOL   H215 8081   6.844   6.795   6.229  1.2972 -0.9770  0.3826
   24MOL   H216 8082   6.960   7.027   6.381  0.1097 -0.0971  0.1439
   24MOL   H217 8083   6.971   6.999   6.619  0.5645 -0.3939 -1.4882
   24MOL   H218 8084   6.790   6.985   6.603 -1.0755 -1.8530  1.3146
   24MOL   H219 8085   6.951   6.818   6.782  0.2901 -0.6570 -1.0819
   24MOL   H220 8086   6.786   6.859   6.782 -1.5901  1.6255 -2.0609
   24MOL   H221 8087   6.883   6.599   6.672 -0.9092 -0.5994 -1.1494
   24MOL   H222 8088   6.727   6.680   6.636  0.2808 -1.5935 -0.7277
   24MOL   C223 8089   7.098   6.873   6.323 -0.1789 -0.6809  0.6180
   24MOL   C224 8090   7.163   6.957   6.207  0.2646  0.4165  0.0248
   24MOL   N225 8091   7.219   7.088   6.258  0.3348 -0.2760 -0.6049
   24MOL   C226 8092   7.184   7.212   6.190 -0.3245  0.1787 -0.2604
   24MOL   C227 8093   7.270   7.321   6.253  0.1204  0.1164 -0.1211
   24MOL   C228 8094   7.361   7.247   6.348 -0.3001 -1.1476  0.7705
   24MOL   C229 8095   7.319   7.107   6.345 -0.3501  0.7490  0.2008
   24MOL   O230 8096   7.382   7.013   6.404  0.0055  0.2974  0.0220
   24MOL   H231 8097   7.086   6.768   6.294 -0.4871 -0.4471 -0.1127
   24MOL   H232 8098   7.162   6.889   6.410  0.6346  0.4813 -0.1885
   24MOL   H233 8099   7.094   6.981   6.126 -1.3867  1.4480  1.7035
   24MOL   H234 8100   7.217   7.191   6.088  2.6267 -1.7443  1.0068
   24MOL   H235 8101   7.078   7.235   6.201 -0.6272 -0.1424 -2.4201
   24MOL   H236 8102   7.317   7.386   6.179 -0.9902  1.2006  0.1040
   24MOL   H237 8103   7.218   7.390   6.319  0.1453  1.7200 -1.7501
   24MOL   H238 8104   7.467   7.261   6.327 -0.6389  2.4828  1.1062
   24MOL   H239 8105   7.343   7.284   6.449 -3.2262  0.3836 -0.2597
   24MOL   C240 8106   7.280   6.870   6.149 -0.0343  0.2218 -0.1203
   24MOL   C241 8107   7.233   6.780   6.035  0.0827  0.2292 -0.2623
   24MOL   N242 8108   7.181   6.856   5.918  0.1722 -0.1181 -0.7465
   24MOL   C243 8109   7.046   6.828   5.879  0.1854 -0.5918 -0.3852
   24MOL   C244 8110   7.025   6.907   5.753 -0.0179  0.3903  0.6120
   24MOL   C245 8111   7.135   7.008   5.745 -0.4905  0.2925  0.3078
   24MOL   C246 8112   7.240   6.948   5.841  0.1934 -0.1014  0.0690
   24MOL   O247 8113   7.358   6.982   5.853  0.1255 -0.6973  0.2549
   24MOL   H248 8114   7.338   6.821   6.227  0.6003 -0.0941 -0.7834
   24MOL   H249 8115   7.352   6.934   6.099  1.1860 -0.7500  0.3785
   24MOL   H250 8116   7.141   6.737   6.074 -0.2464  1.1786  0.0308
   24MOL   H251 8117   7.031   6.720   5.886  1.6356 -0.7028  1.2999
   24MOL   H252 8118   6.992   6.879   5.959  0.6017 -1.6831  0.5984
   24MOL   H253 8119   7.044   6.840   5.669  3.7656  3.2492 -0.9826
   24MOL   H254 8120   6.928   6.957   5.762 -0.3061  0.2457 -1.4609
   24MOL   H255 8121   7.178   7.009   5.645  0.4454  2.0443  0.7031
   24MOL   H256 8122   7.098   7.108   5.766 -0.7910  0.1474  0.4621
   24MOL   C257 8123   7.320   6.665   5.990 -0.0144 -0.1882 -0.3530
   24MOL   C258 8124   7.355   6.558   6.089  0.2260  0.1657  0.3396
   24MOL   N259 8125   7.250   6.496   6.166 -0.6094 -0.4285  0.1438
   24MOL   C260 8126   7.274   6.470   6.306 -0.1353 -0.0683 -0.6198
   24MOL   C261 8127   7.155   6.371   6.350  0.2649  0.0716  0.2966
   24MOL   C262 8128   7.062   6.360   6.228  0.0870  0.5254  0.0588
   24MOL   C263 8129   7.141   6.436   6.121 -0.4266  0.4957  0.3934
   24MOL   O264 8130   7.094   6.455   6.009 -0.2536 -0.0406 -0.2103
   24MOL   H265 8131   7.417   6.707   5.964  1.2827 -2.4847  0.6435
   24MOL   H266 8132   7.281   6.618   5.900 -0.3511 -2.1598  0.7928
   24MOL   H267 8133   7.407   6.617   6.164  1.0748 -1.3460  0.9433
   24MOL   H268 8134   7.370   6.422   6.327  0.4415  0.4974 -1.9561
   24MOL   H269 8135   7.275   6.565   6.359  1.2986 -0.5338  0.2318
   24MOL   H270 8136   7.195   6.271   6.366  0.9734 -0.1925 -2.8473
   24MOL   H271 8137   7.100   6.410   6.436 -0.8399 -1.0435  0.0983
   24MOL   H272 8138   7.037   6.263   6.186  1.2249  0.8359 -1.3820
   24MOL   H273 8139   6.974   6.420   6.249  0.3026  0.0670  2.3449
   24MOL   C274 8140   7.462   6.454   6.050  0.1583 -0.0597  0.1190
   24MOL   C275 8141   7.597   6.523   6.017 -0.3663  0.2542  0.2697
   24MOL   N276 8142   7.642   6.619   6.123 -0.5777 -0.3763 -1.1087
   24MOL   C277 8143   7.680   6.749   6.084  0.2021  0.1911 -0.2252
   24MOL   C278 8144   7.707   6.837   6.209  0.4589 -0.2526  0.7963
   24MOL   C279 8145   7.696   6.738   6.321 -0.9592 -0.6149  0.2124
   24MOL   C280 8146   7.655   6.604   6.255  0.0977 -0.0669  0.0079
   24MOL   O281 8147   7.636   6.498   6.316  0.0477  0.4182  0.1619
   24MOL   H282 8148   7.428   6.423   5.952  0.4679  1.2632 -0.4180
   24MOL   H283 8149   7.475   6.363   6.108 -1.6622 -1.1600 -1.1407
   24MOL   H284 8150   7.592   6.577   5.923 -1.4403  1.0684  0.7765
   24MOL   H285 8151   7.763   6.765   6.014  0.3205  2.6941  0.4394
   24MOL   H286 8152   7.601   6.804   6.033  0.4308  2.0830  1.3939
   24MOL   H287 8153   7.804   6.886   6.220  0.2624  0.1988  0.5314
   24MOL   H288 8154   7.636   6.919   6.215 -0.5219 -0.9539 -0.9613
   24MOL   H289 8155   7.797   6.732   6.361 -1.3878 -2.4558  1.0585
   24MOL   H290 8156   7.607   6.758   6.380 -1.4946  0.5920 -0.9904
   24MOL   C291 8157   7.708   6.420   6.007 -0.1127 -0.5601 -0.2719
   24MOL   C292 8158   7.704   6.325   5.879 -0.3598 -0.2895  0.6275
   24MOL   N293 8159   7.735   6.404   5.763 -0.3479  0.0118  0.3674
   24MOL   C294 8160   7.636   6.442   5.661 -0.2760 -0.0447  0.1820
   24MOL   C295 8161   7.721   6.536   5.568 -0.0075  0.2474  0.8242
   24MOL   C296 8162   7.863   6.504   5.590 -0.2287 -0.4354  0.2626
   24MOL   C297 8163   7.859   6.449   5.732  1.2621 -0.2887  0.3867
   24MOL   O298 8164   0.056   6.442   5.808  0.3935  0.0520 -0.1427
   24MOL   H299 8165   7.692   6.353   6.092  1.3702 -1.1391 -0.4219
   24MOL   H300 8166   7.808   6.463   6.015 -0.8081  1.2782 -1.4958
   24MOL   H301 8167   7.598   6.304   5.864 -0.5590  0.8383  0.4011
   24MOL   H302 8168   7.606   6.351   5.609 -0.8345 -0.7606  1.7151
   24MOL   H303 8169   7.541   6.482   5.696 -0.4724 -0.8183  0.5480
   24MOL   H304 8170   7.695   6.515   5.464  1.9970  3.3272 -0.3517
   24MOL   H305 8171   7.704   6.643   5.579 -0.0004  0.6856 -2.7684
   24MOL   H306 8172   7.897   6.422   5.525  0.9143 -1.1932  1.7986
   24MOL   H307 8173   0.021   6.591   5.575  2.0214 -1.8519  1.4153
   24MOL   C308 8174   7.785   6.194   5.893 -0.1723  0.1481  0.5700
   24MOL   C309 8175   7.726   6.072   5.973 -0.0315  0.0323 -0.1156
   24MOL   N310 8176   7.586   6.073   5.964  0.2214  0.2716 -0.3901
   24MOL   C311 8177   7.502   6.060   6.091 -0.2000  0.8448 -0.4375
   24MOL   C312 8178   7.356   6.081   6.041  0.0817 -0.6194  0.5177
   24MOL   C313 8179   7.361   6.045   5.888 -0.0479  0.5842  0.1641
   24MOL   C314 8180   7.506   6.053   5.857  0.4907 -0.6247  0.5515
   24MOL   O315 8181   7.543   6.046   5.740 -0.0729 -0.5962 -0.0958
   24MOL   H316 8182   7.887   6.221   5.921 -0.3402 -1.1710  2.5449
   24MOL   H317 8183   7.804   6.160   5.791  0.0415  1.6345  0.0951
   24MOL   H318 8184   7.756   6.086   6.076  0.1739  0.1404 -0.1905
   24MOL   H319 8185   7.508   5.960   6.134 -1.8709  0.7099 -0.4893
   24MOL   H320 8186   7.522   6.137   6.165  0.4347 -1.1528  1.5186
   24MOL   H321 8187   7.283   6.015   6.087 -0.9706 -0.1348 -0.4347
   24MOL   H322 8188   7.316   6.179   6.067 -2.5626 -1.5091 -0.0527
   24MOL   H323 8189   7.339   5.943   5.856  3.0656  0.6060 -2.2518
   24MOL   H324 8190   7.319   6.110   5.810 -0.5780 -0.7800 -0.7199
   24MOL   C325 8191   7.784   5.935   5.942  0.0474 -0.5622  0.3980
   24MOL   C326 8192   0.018   5.905   5.997 -0.7025 -0.6557 -0.3987
   24MOL   N327 8193   0.079   5.776   5.955  0.9765  0.5218  0.9171
   24MOL   C328 8194   0.221   5.767   5.943  0.3717 -0.3934 -0.7331
   24MOL   C329 8195   0.255   5.621   5.914 -0.2122 -0.1830 -0.3761
   24MOL   C330 8196   0.136   5.543   5.964  0.3601 -0.3232 -0.1462
   24MOL   C331 8197   0.037   5.652   5.991  0.3579 -0.8528 -0.1900
   24MOL   O332 8198   7.830   5.620   6.027  0.1804  0.3376 -0.0403
   24MOL   H333 8199   7.782   5.904   5.837 -1.4124 -0.9360  0.5203
   24MOL   H334 8200   7.709   5.863   5.974  0.0660 -1.7819 -2.1289
   24MOL   H335 8201   0.016   5.907   6.106  2.5912  1.2810 -0.3153
   24MOL   H336 8202   0.264   5.833   5.868 -1.6628  1.1208 -0.6213
   24MOL   H337 8203   0.259   5.795   6.041  0.2452  0.4839 -0.9257
   24MOL   H338 8204   0.270   5.607   5.807  0.4212 -1.9990 -0.0633
   24MOL   H339 8205   0.351   5.598   5.960 -1.2612 -4.1663 -0.0022
   24MOL   H340 8206   0.088   5.479   5.890  1.3461 -0.3867 -0.7382
   24MOL   H341 8207   0.152   5.494   6.060 -2.7609 -1.6970 -0.2601
   24MOL   H342 8208   0.090   5.981   5.967  0.2955 -0.5230  2.1749
   25MOL     C1 8209   1.939   6.540   0.150 -0.2380 -0.4247 -0.4676
   25MOL     C2 8210   1.880   6.448   0.042 -0.0798  0.3104 -0.2842
   25MOL     N3 8211   1.770   6.368   0.099 -0.0729  0.5830  0.3627
   25MOL     C4 8212   1.776   6.226   0.118  0.5333  0.4703 -0.0456
   25MOL     C5 8213   1.644   6.185   0.189  0.2967  0.6713 -0.3241
   25MOL     C6 8214   1.552   6.306   0.192  0.2826 -0.5975  0.3969
   25MOL     C7 8215   1.647   6.414   0.138 -0.0301 -0.2790  0.1109
   25MOL     O8 8216   1.618   6.531   0.148  0.1645 -0.5225 -0.1616
   25MOL     H9 8217   1.968   6.481   0.237 -0.7012 -2.1560 -1.4705
   25MOL    H10 8218   2.024   6.590   0.105  0.0392  0.6732  1.2275
   25MOL    H11 8219   1.952   6.374   0.007 -1.3919 -1.8369  1.4236
   25MOL    H12 8220   1.798   6.162   0.033 -1.1654 -2.8361  1.9023
   25MOL    H13 8221   1.855   6.210   0.192  2.8148  0.2018 -2.4716
   25MOL    H14 8222   1.591   6.109   0.131  0.5314 -0.5358  1.0100
   25MOL    H15 8223   1.668   6.155   0.291  2.0888  1.8454 -0.3873
   25MOL    H16 8224   1.462   6.303   0.130 -0.3809 -1.9265  1.4052
   25MOL    H17 8225   1.507   6.334   0.288 -0.8424 -0.7401 -0.0793
   25MOL    H18 8226   1.876   6.621   0.186  0.0139 -0.4135 -0.0419
   25MOL    C19 8227   1.849   6.527   7.820  0.1950 -0.6597 -0.0134
   25MOL    C20 8228   1.836   6.463   7.680  0.0937 -0.3326  0.1501
   25MOL    N21 8229   1.752   6.344   7.671 -0.1534  0.3369 -0.2124
   25MOL    C22 8230   1.811   6.206   7.631 -0.2942 -0.2114  0.5953
   25MOL    C23 8231   1.689   6.103   7.633 -0.1129 -0.1187 -1.1888
   25MOL    C24 8232   1.566   6.194   7.663 -0.1642  0.5183  0.0776
   25MOL    C25 8233   1.621   6.327   7.700 -0.6094  0.3006 -0.2823
   25MOL    O26 8234   1.553   6.422   7.734 -0.3059  0.0200 -0.7320
   25MOL    H27 8235   1.933   6.596   7.804  0.3085 -1.1747 -1.7457
   25MOL    H28 8236   1.767   6.594   7.846  0.1674 -1.3027  1.6340
   25MOL    H29 8237   1.933   6.435   7.638 -0.4839 -0.0941 -1.3775
   25MOL    H30 8238   1.851   6.203   7.530  0.7536  0.4815  0.9807
   25MOL    H31 8239   1.903   6.178   7.683  1.8103  3.6504 -0.7910
   25MOL    H32 8240   1.672   6.042   7.545 -2.3494 -0.9585 -0.2183
   25MOL    H33 8241   1.712   6.032   7.713  3.0252  0.3099 -1.6546
   25MOL    H34 8242   1.501   6.210   7.578  0.8772 -0.1687 -0.8706
   25MOL    H35 8243   1.505   6.159   7.746 -1.2629 -1.3101 -1.4817
   25MOL    C36 8244   1.774   6.564   7.579  0.8125 -0.5266  0.1925
   25MOL    C37 8245   1.763   6.522   7.429 -0.3026  1.1175 -0.6723
   25MOL    N38 8246   1.648   6.584   7.373 -0.3131 -0.1713 -0.0597
   25MOL    C39 8247   1.523   6.505   7.367 -0.0940  0.5171 -0.1770
   25MOL    C40 8248   1.414   6.599   7.323  0.3534  0.1742 -0.1626
   25MOL    C41 8249   1.488   6.727   7.281  0.6287  0.3946 -0.0579
   25MOL    C42 8250   1.628   6.717   7.346 -0.0836  0.6081 -0.0890
   25MOL    O43 8251   1.709   6.810   7.367  0.1008  0.3838 -0.0798
   25MOL    H44 8252   1.826   6.659   7.590 -0.3420  0.0257  0.9989
   25MOL    H45 8253   1.677   6.596   7.616  0.8471  2.0912 -1.8547
   25MOL    H46 8254   1.746   6.414   7.434 -1.3228  1.3112  0.2481
   25MOL    H47 8255   1.554   6.424   7.302 -0.0218 -0.8369  1.5273
   25MOL    H48 8256   1.501   6.470   7.468  0.6955  0.1072 -0.1459
   25MOL    H49 8257   1.372   6.557   7.231  0.2539  0.2752 -0.1628
   25MOL    H50 8258   1.340   6.619   7.401 -1.1827 -0.4850 -1.4166
   25MOL    H51 8259   1.505   6.736   7.174  2.6898  2.0129  0.3699
   25MOL    H52 8260   1.432   6.811   7.324  0.2414  0.0553  0.1038
   25MOL    C53 8261   1.885   6.535   7.333 -0.0709  0.5628  0.1866
   25MOL    C54 8262   1.902   6.432   7.226  0.0340  0.5806  0.3648
   25MOL    N55 8263   2.010   6.481   7.140  0.6558 -0.3702 -0.1032
   25MOL    C56 8264   1.975   6.570   7.025  0.4072  0.5853 -1.0769
   25MOL    C57 8265   2.106   6.593   6.952 -0.2757  0.5057  0.5154
   25MOL    C58 8266   2.214   6.538   7.039  0.3585 -0.7352 -1.0226
   25MOL    C59 8267   2.141   6.468   7.153 -0.4335  0.1380 -0.4965
   25MOL    O60 8268   2.197   6.415   7.247 -0.1371 -0.6178  0.2573
   25MOL    H61 8269   1.977   6.548   7.391 -0.4256  2.7810  0.2853
   25MOL    H62 8270   1.880   6.634   7.288 -2.3658  2.2411  3.8969
   25MOL    H63 8271   1.808   6.420   7.172  1.2169  1.6655 -2.0436
   25MOL    H64 8272   1.910   6.518   6.955 -0.0932 -0.9291  0.4914
   25MOL    H65 8273   1.937   6.669   7.052  0.3461 -0.0832  1.3468
   25MOL    H66 8274   2.127   6.553   6.853  0.5959  3.1943 -0.4455
   25MOL    H67 8275   2.120   6.698   6.925 -0.3736  0.2075 -0.7376
   25MOL    H68 8276   2.283   6.463   7.001  0.1282 -1.5439  0.1258
   25MOL    H69 8277   2.274   6.619   7.082  1.0861 -1.8388  0.0925
   25MOL    C70 8278   1.933   6.287   7.274 -0.3176  0.1207 -0.5109
   25MOL    C71 8279   1.975   6.188   7.169  0.4441 -0.4806  0.1293
   25MOL    N72 8280   2.039   6.078   7.242  0.8110 -0.0187  0.0929
   25MOL    C73 8281   2.179   6.068   7.248  0.3025  0.1177 -0.3382
   25MOL    C74 8282   2.211   5.949   7.341 -0.8586 -0.4778 -0.6038
   25MOL    C75 8283   2.075   5.882   7.368 -0.1985  0.2278  0.4361
   25MOL    C76 8284   1.977   5.983   7.317  0.5966 -0.1363  0.2296
   25MOL    O77 8285   1.853   5.966   7.332 -0.5715 -0.6563 -0.0544
   25MOL    H78 8286   1.844   6.255   7.328  0.5124 -0.4588  0.5637
   25MOL    H79 8287   1.998   6.289   7.363 -3.9946  0.2861  2.2892
   25MOL    H80 8288   2.056   6.230   7.109 -2.0575  0.2596 -2.8759
   25MOL    H81 8289   2.213   6.053   7.145  2.5059  2.6680 -0.0328
   25MOL    H82 8290   2.231   6.161   7.270  0.5276  0.0296 -0.4901
   25MOL    H83 8291   2.287   5.877   7.310  1.4821  0.8312  1.8700
   25MOL    H84 8292   2.247   5.994   7.434  0.1069  0.7416 -1.5560
   25MOL    H85 8293   2.059   5.792   7.310  3.7355 -0.2894  0.0352
   25MOL    H86 8294   2.059   5.857   7.473 -1.9850 -0.3850  0.0417
   25MOL    C87 8295   1.867   6.133   7.069 -0.0481 -0.6807 -0.1980
   25MOL    C88 8296   1.873   6.190   6.918 -0.0711  0.1098  0.3199
   25MOL    N89 8297   2.001   6.163   6.849 -0.2793 -0.0450  0.1258
   25MOL    C90 8298   2.076   6.277   6.800 -0.6005  0.2283 -0.2811
   25MOL    C91 8299   2.205   6.229   6.731  1.4156 -0.2250 -0.1701
   25MOL    C92 8300   2.201   6.081   6.752  0.1811 -0.7961 -0.3645
   25MOL    C93 8301   2.073   6.051   6.828 -0.3000  0.2576  0.0604
   25MOL    O94 8302   2.036   5.932   6.852 -0.2196 -0.0489 -0.3036
   25MOL    H95 8303   1.770   6.156   7.114 -0.1644 -0.1447 -0.7228
   25MOL    H96 8304   1.867   6.024   7.070 -3.4336 -0.7149  0.4221
   25MOL    H97 8305   1.863   6.297   6.935  0.0449  0.3305 -0.9556
   25MOL    H98 8306   2.026   6.352   6.738  1.8503  0.9096 -1.5378
   25MOL    H99 8307   2.107   6.327   6.891  0.9315  1.6504 -1.5382
   25MOL   H100 8308   2.209   6.259   6.626  1.0815 -1.0896 -0.4309
   25MOL   H101 8309   2.294   6.281   6.768  3.3451 -1.9372 -2.2847
   25MOL   H102 8310   2.180   6.028   6.659 -1.2965  1.8008 -1.5772
   25MOL   H103 8311   2.292   6.032   6.786 -0.0334 -1.5257 -0.8280
   25MOL   C104 8312   1.760   6.140   6.831 -0.4420  0.3890  0.9043
   25MOL   C105 8313   1.613   6.178   6.880 -0.2073  0.4872  0.2373
   25MOL   N106 8314   1.594   6.324   6.880 -0.2947  0.3651  0.0931
   25MOL   C107 8315   1.539   6.380   6.997  0.7279  0.3963  1.0032
   25MOL   C108 8316   1.546   6.537   6.987 -0.2232 -0.0906 -0.1259
   25MOL   C109 8317   1.544   6.545   6.832  0.6705 -0.3632 -0.2605
   25MOL   C110 8318   1.581   6.409   6.779  0.0461  0.0904 -0.4708
   25MOL   O111 8319   1.597   6.384   6.659 -0.1756 -0.5319  0.4793
   25MOL   H112 8320   1.775   6.032   6.830 -2.1493  0.1516 -0.9826
   25MOL   H113 8321   1.780   6.185   6.734  0.3818  0.9173  1.3106
   25MOL   H114 8322   1.608   6.141   6.982  1.1925  1.3973  0.6506
   25MOL   H115 8323   1.435   6.352   7.016  0.3816  0.4888 -0.6979
   25MOL   H116 8324   1.591   6.342   7.085  2.4359 -0.2236 -0.2440
   25MOL   H117 8325   1.459   6.586   7.031 -1.0433  0.0168 -1.8504
   25MOL   H118 8326   1.643   6.571   7.023  0.7163 -1.9084 -0.8327
   25MOL   H119 8327   1.610   6.620   6.791 -0.4825 -0.5461 -2.5057
   25MOL   H120 8328   1.439   6.556   6.805  0.1485 -1.3788  1.2843
   25MOL   C121 8329   1.506   6.106   6.795 -0.6451 -0.3714  0.2676
   25MOL   C122 8330   1.510   5.951   6.803  0.1703  0.5842 -0.1820
   25MOL   N123 8331   1.522   5.910   6.949 -0.1395  0.1343 -1.1707
   25MOL   C124 8332   1.606   5.795   6.972 -0.1837  0.8146 -0.8477
   25MOL   C125 8333   1.587   5.764   7.123 -0.1847 -0.4077  0.8487
   25MOL   C126 8334   1.473   5.852   7.172  0.0993 -0.5445  0.0230
   25MOL   C127 8335   1.436   5.931   7.051  0.8257 -0.2970  0.0764
   25MOL   O128 8336   1.334   5.998   7.046 -0.6811  0.3276 -0.1180
   25MOL   H129 8337   1.504   6.152   6.696  0.6865 -0.8545 -0.0082
   25MOL   H130 8338   1.420   6.153   6.841 -0.3699 -2.6856  3.2712
   25MOL   H131 8339   1.595   5.903   6.756 -0.1160 -1.5278  1.3941
   25MOL   H132 8340   1.705   5.833   6.950  0.6603 -0.5853  0.4497
   25MOL   H133 8341   1.577   5.708   6.913 -0.1751  0.1246  0.1497
   25MOL   H134 8342   1.570   5.657   7.134  1.0135 -0.6871  0.1073
   25MOL   H135 8343   1.678   5.781   7.180 -0.5997 -1.4678  1.8334
   25MOL   H136 8344   1.399   5.775   7.191  0.8506 -1.2062  0.2933
   25MOL   H137 8345   1.493   5.911   7.261 -0.9071  1.4265 -1.0148
   25MOL   C138 8346   1.379   5.887   6.747 -0.3517  0.3026 -0.2798
   25MOL   C139 8347   1.326   5.922   6.602 -0.4503 -0.2446  0.3976
   25MOL   N140 8348   1.431   5.948   6.501  0.0071  0.4414 -0.2208
   25MOL   C141 8349   1.431   6.067   6.421  0.0163  0.0844  0.3806
   25MOL   C142 8350   1.570   6.072   6.355  0.5025  0.6966  0.3268
   25MOL   C143 8351   1.628   5.927   6.372  1.0058 -0.0852 -0.5967
   25MOL   C144 8352   1.536   5.867   6.473  0.2521 -0.4903 -0.1095
   25MOL   O145 8353   1.552   5.754   6.524  0.1753  0.4169  0.2187
   25MOL   H146 8354   1.291   5.907   6.808 -0.4115 -0.1917 -0.2027
   25MOL   H147 8355   1.393   5.779   6.749 -1.4918  0.1603  0.1832
   25MOL   H148 8356   1.282   6.022   6.606 -0.7793 -0.2685 -1.7390
   25MOL   H149 8357   1.347   6.054   6.352 -0.5705 -0.7287  1.2294
   25MOL   H150 8358   1.405   6.159   6.473 -1.2026  0.7170 -1.3111
   25MOL   H151 8359   1.571   6.121   6.258  0.9082  0.2655  0.1078
   25MOL   H152 8360   1.636   6.130   6.420  1.2658 -0.2207  0.3905
   25MOL   H153 8361   1.734   5.936   6.396  0.7588 -0.7514  0.8012
   25MOL   H154 8362   1.617   5.872   6.278  0.2167  2.9412 -2.3155
   25MOL   C155 8363   1.217   5.822   6.548  0.1386 -0.0940 -0.4385
   25MOL   C156 8364   1.106   5.781   6.650 -0.3190 -0.2868 -0.8292
   25MOL   N157 8365   1.013   5.896   6.681  0.3104  0.1014 -0.2115
   25MOL   C158 8366   0.976   5.907   6.820  0.3291  0.0312  0.1072
   25MOL   C159 8367   0.869   6.002   6.826 -0.4250 -0.5888 -0.2322
   25MOL   C160 8368   0.862   6.077   6.688  0.0309 -0.1649  0.5479
   25MOL   C161 8369   0.950   5.991   6.605  0.7349  0.6261  0.4506
   25MOL   O162 8370   0.941   5.994   6.481 -0.1167  0.1018 -0.3172
   25MOL   H163 8371   1.277   5.738   6.512 -0.0474 -1.6509  2.6881
   25MOL   H164 8372   1.166   5.870   6.465  0.6727  0.3302 -0.5239
   25MOL   H165 8373   1.155   5.765   6.746 -1.6579  2.7437  0.4154
   25MOL   H166 8374   0.956   5.812   6.869  1.1924 -1.0999 -1.7031
   25MOL   H167 8375   1.058   5.957   6.872 -0.3083  0.3441  0.8246
   25MOL   H168 8376   0.774   5.950   6.841 -1.2306  1.0635  0.5394
   25MOL   H169 8377   0.870   6.080   6.902  2.9937 -0.2336 -0.5727
   25MOL   H170 8378   0.764   6.054   6.646  0.5777 -1.4805 -0.0460
   25MOL   H171 8379   0.908   6.175   6.685 -1.2321  0.4118 -2.1614
   25MOL   C172 8380   1.032   5.654   6.598 -0.1219 -0.3746  0.0604
   25MOL   C173 8381   0.966   5.572   6.709 -0.5620 -0.7088  0.6276
   25MOL   N174 8382   0.866   5.487   6.649 -0.6137  0.0455  0.2787
   25MOL   C175 8383   0.728   5.545   6.629 -0.4496  0.6757  0.2473
   25MOL   C176 8384   0.643   5.412   6.635 -0.0693 -0.1829 -0.1061
   25MOL   C177 8385   0.733   5.299   6.589  0.3777 -0.4751 -0.2447
   25MOL   C178 8386   0.871   5.352   6.636  0.0353 -0.2494 -0.6493
   25MOL   O179 8387   0.970   5.281   6.654  0.8684  0.5522 -0.2325
   25MOL   H180 8388   1.118   5.597   6.566 -0.3542 -1.0453  0.6125
   25MOL   H181 8389   0.965   5.677   6.515  0.0976  0.7241  0.1736
   25MOL   H182 8390   0.909   5.637   6.775 -0.6546  0.8566 -0.9287
   25MOL   H183 8391   0.703   5.620   6.703 -0.0972  0.9515  0.0890
   25MOL   H184 8392   0.726   5.599   6.534  2.5876 -0.3037 -0.4463
   25MOL   H185 8393   0.544   5.413   6.589 -0.3834 -0.0901  0.5528
   25MOL   H186 8394   0.637   5.385   6.741 -2.3345  0.5841 -0.0002
   25MOL   H187 8395   0.707   5.198   6.618  2.3428 -0.9228  0.0718
   25MOL   H188 8396   0.727   5.305   6.481 -3.3868  0.4802 -0.0506
   25MOL   C189 8397   1.069   5.505   6.795  0.0895 -0.2851 -0.3075
   25MOL   C190 8398   1.032   5.412   6.922 -0.3131 -0.2135 -0.1439
   25MOL   N191 8399   1.158   5.362   6.984 -0.3267  0.1724 -1.3415
   25MOL   C192 8400   1.212   5.231   6.950 -0.1540  0.4125  0.4447
   25MOL   C193 8401   1.353   5.232   7.002 -0.5231  0.3771  0.3175
   25MOL   C194 8402   1.394   5.372   7.042  0.0585  0.2290  0.2695
   25MOL   C195 8403   1.258   5.443   7.033 -0.2862  0.1278 -0.6199
   25MOL   O196 8404   1.248   5.552   7.083  0.0850 -0.7034 -0.3037
   25MOL   H197 8405   1.127   5.587   6.838 -0.9611  0.1650  0.2765
   25MOL   H198 8406   1.144   5.454   6.735 -1.8928 -1.7727 -1.5746
   25MOL   H199 8407   0.984   5.318   6.895  0.1769 -0.1181 -1.3634
   25MOL   H200 8408   1.158   5.140   6.973  1.6768 -1.1343 -1.1895
   25MOL   H201 8409   1.207   5.241   6.841 -2.7216  3.5466  0.7662
   25MOL   H202 8410   1.359   5.169   7.091  0.8519  0.6575  0.4300
   25MOL   H203 8411   1.421   5.173   6.942 -0.4580 -1.4648  2.1253
   25MOL   H204 8412   1.426   5.378   7.146  1.0710  0.1632 -0.0371
   25MOL   H205 8413   1.459   5.426   6.974  1.0491 -2.4288 -0.9699
   25MOL   C206 8414   0.955   5.485   7.032  0.2941  0.4807  0.8359
   25MOL   C207 8415   0.804   5.464   7.021 -0.0246 -0.0335  0.2175
   25MOL   N208 8416   0.742   5.338   7.074 -1.0729  0.4376  0.8791
   25MOL   C209 8417   0.689   5.234   6.978  0.0223 -0.0553  0.7307
   25MOL   C210 8418   0.653   5.111   7.059  0.1840 -0.4254 -0.9737
   25MOL   C211 8419   0.676   5.154   7.205 -0.6408 -1.0042 -0.3410
   25MOL   C212 8420   0.743   5.288   7.198  0.5794 -0.3616  0.6031
   25MOL   O213 8421   0.796   5.344   7.290  0.3737 -0.1805  0.7600
   25MOL   H214 8422   0.990   5.587   7.021  0.8339  0.4563  2.2226
   25MOL   H215 8423   0.988   5.457   7.132 -1.2278 -1.3859  0.8512
   25MOL   H216 8424   0.780   5.457   6.915 -1.6520 -1.6541  0.6689
   25MOL   H217 8425   0.596   5.252   6.924  0.7662 -0.4603 -0.7053
   25MOL   H218 8426   0.762   5.211   6.901 -0.1454  0.0455  0.5408
   25MOL   H219 8427   0.553   5.080   7.029 -0.5699  0.0770  0.8849
   25MOL   H220 8428   0.728   5.035   7.039  1.3723  0.5673 -0.3404
   25MOL   H221 8429   0.598   5.147   7.282 -0.6012 -0.1881 -0.2162
   25MOL   H222 8430   0.753   5.092   7.251  1.0319  1.4675  0.2795
   25MOL   C223 8431   0.731   5.583   7.080  0.1260  0.4539  0.0953
   25MOL   C224 8432   0.572   5.583   7.061  0.5843 -0.1240 -0.0009
   25MOL   N225 8433   0.507   5.666   7.171  0.3773 -0.2361 -0.2776
   25MOL   C226 8434   0.430   5.602   7.275  0.6911 -0.2982 -0.9900
   25MOL   C227 8435   0.394   5.718   7.370 -0.3316 -0.5139  0.3087
   25MOL   C228 8436   0.477   5.840   7.321 -0.1015 -0.1498 -0.0463
   25MOL   C229 8437   0.541   5.791   7.198  0.7661 -0.2879 -0.6132
   25MOL   O230 8438   0.623   5.861   7.138  0.3665 -0.1087  0.7077
   25MOL   H231 8439   0.765   5.672   7.027 -0.1756  1.0040  0.8178
   25MOL   H232 8440   0.750   5.610   7.184  3.0996 -0.9449 -0.0523
   25MOL   H233 8441   0.525   5.488   7.088  0.8634  0.2195  1.7666
   25MOL   H234 8442   0.337   5.555   7.241 -0.6260  1.2579  0.3586
   25MOL   H235 8443   0.499   5.528   7.315  0.2143 -0.0569  0.2790
   25MOL   H236 8444   0.290   5.740   7.348  0.2654  1.4549 -0.6579
   25MOL   H237 8445   0.412   5.699   7.476  3.2164 -1.7662 -0.4255
   25MOL   H238 8446   0.416   5.931   7.321  3.3989  2.2921  1.3544
   25MOL   H239 8447   0.550   5.859   7.399  0.4379 -0.0915 -0.5572
   25MOL   C240 8448   0.531   5.617   6.917  0.0042  0.9198  0.0562
   25MOL   C241 8449   0.387   5.660   6.884 -0.3221 -0.1788  0.0127
   25MOL   N242 8450   0.364   5.807   6.893  0.0727 -0.8496 -0.4029
   25MOL   C243 8451   0.263   5.870   6.978  0.5674  0.5533  0.1380
   25MOL   C244 8452   0.290   6.016   6.977 -0.1904 -1.0603  0.1062
   25MOL   C245 8453   0.396   6.039   6.868  0.2589  0.2647  0.8877
   25MOL   C246 8454   0.423   5.901   6.816 -0.2744 -0.0248  0.9486
   25MOL   O247 8455   0.492   5.876   6.716  0.2431  0.2854 -0.1070
   25MOL   H248 8456   0.551   5.524   6.865  1.5384  1.5206 -0.4715
   25MOL   H249 8457   0.597   5.695   6.878  0.6567  0.6536  0.6103
   25MOL   H250 8458   0.319   5.612   6.954  0.6657 -1.7192 -0.0651
   25MOL   H251 8459   0.177   5.858   6.912 -0.8048 -0.0933  1.9579
   25MOL   H252 8460   0.233   5.812   7.066  3.0850 -0.4994  0.3234
   25MOL   H253 8461   0.200   6.077   6.969  0.8010  0.6775  1.7172
   25MOL   H254 8462   0.336   6.038   7.073 -0.0252  0.3472 -0.2854
   25MOL   H255 8463   0.354   6.111   6.798 -0.4053 -0.3846  0.6137
   25MOL   H256 8464   0.484   6.080   6.918  1.1740 -0.1552 -0.3644
   25MOL   C257 8465   0.333   5.594   6.749 -0.2383  0.3244 -0.7148
   25MOL   C258 8466   0.180   5.618   6.712 -0.2631 -0.3834  0.1777
   25MOL   N259 8467   0.145   5.581   6.570 -0.1079  1.6569 -0.0349
   25MOL   C260 8468   0.018   5.628   6.509 -0.3975  0.5405 -0.0640
   25MOL   C261 8469   0.011   5.561   6.371  0.4664 -0.6030  0.2581
   25MOL   C262 8470   0.139   5.493   6.343  0.4678 -0.3716 -1.1217
   25MOL   C263 8471   0.212   5.504   6.480 -0.2698  0.7753 -0.5812
   25MOL   O264 8472   0.318   5.442   6.493 -0.0962 -0.0866 -0.0796
   25MOL   H265 8473   0.359   5.489   6.758  2.3739  1.1421  2.1561
   25MOL   H266 8474   0.406   5.619   6.673  0.5677  0.2605  0.0296
   25MOL   H267 8475   0.172   5.726   6.720 -1.0034 -0.4874  0.9306
   25MOL   H268 8476   7.836   5.624   6.574  0.1304  1.1648  0.6989
   25MOL   H269 8477   0.038   5.732   6.483  0.9796  0.8202  2.0057
   25MOL   H270 8478   7.833   5.491   6.365  0.3304 -0.6488  2.3725
   25MOL   H271 8479   7.896   5.635   6.294 -0.0190 -1.5903 -0.5836
   25MOL   H272 8480   0.111   5.395   6.302 -0.1663  0.0890 -1.8142
   25MOL   H273 8481   0.214   5.546   6.286  0.3165  0.2673 -0.7311
   25MOL   C274 8482   0.080   5.582   6.818  0.2362  0.2346 -0.4765
   25MOL   C275 8483   0.042   5.431   6.825 -0.3276 -0.3073 -0.5241
   25MOL   N276 8484   0.146   5.336   6.863 -0.0893  0.1632 -0.0727
   25MOL   C277 8485   0.179   5.232   6.772 -0.2100 -0.2862 -0.3152
   25MOL   C278 8486   0.292   5.153   6.845  0.6658  0.3148  0.3606
   25MOL   C279 8487   0.278   5.187   6.992 -0.0412  0.6361  0.5480
   25MOL   C280 8488   0.201   5.323   6.980  0.4816 -0.3006  0.3220
   25MOL   O281 8489   0.179   5.399   7.074 -0.1603 -0.5840  0.8532
   25MOL   H282 8490   7.893   5.637   6.797  0.3099  0.0184 -1.3918
   25MOL   H283 8491   0.108   5.625   6.914  2.4342 -0.6828 -0.6884
   25MOL   H284 8492   7.904   5.412   6.726 -0.0062 -2.2171 -0.3272
   25MOL   H285 8493   0.095   5.163   6.767  0.3758 -1.1074  0.9510
   25MOL   H286 8494   0.200   5.265   6.670 -1.6209 -2.5468 -1.3909
   25MOL   H287 8495   0.290   5.044   6.843 -0.1761  0.3379 -1.2074
   25MOL   H288 8496   0.388   5.193   6.811  1.1003 -1.1381 -0.1366
   25MOL   H289 8497   0.211   5.114   7.038 -0.5699  0.1729 -0.9371
   25MOL   H290 8498   0.369   5.199   7.051  1.4816 -3.8849 -0.7228
   25MOL   C291 8499   7.820   5.423   6.914  0.1348 -0.1687  0.3235
   25MOL   C292 8500   7.711   5.339   6.849  1.4442 -0.0440  0.1118
   25MOL   N293 8501   7.616   5.302   6.957  0.1452 -0.0428  0.8660
   25MOL   C294 8502   7.610   5.161   6.995 -0.0033 -1.1343  0.2616
   25MOL   C295 8503   7.501   5.152   7.103  0.1910  0.5103  0.0561
   25MOL   C296 8504   7.453   5.300   7.131  0.4361  0.5349 -0.0058
   25MOL   C297 8505   7.543   5.379   7.038  0.0056  0.3788 -0.3641
   25MOL   O298 8506   7.557   5.495   7.060 -0.0064 -0.5194  0.4486
   25MOL   H299 8507   7.785   5.524   6.934 -0.4985 -0.3088 -0.0429
   25MOL   H300 8508   7.849   5.383   7.011  0.6429 -0.5503  0.0136
   25MOL   H301 8509   7.748   5.245   6.809 -0.5469  0.9566 -4.3797
   25MOL   H302 8510   7.598   5.093   6.911 -3.1331 -1.3621  0.8484
   25MOL   H303 8511   7.708   5.151   7.041  0.5234 -0.1963 -0.6386
   25MOL   H304 8512   7.413   5.091   7.080  0.3370  0.4104 -0.2363
   25MOL   H305 8513   7.537   5.107   7.195  1.4277  1.8537  0.2309
   25MOL   H306 8514   7.353   5.327   7.100  0.6481  2.6802  1.1141
   25MOL   H307 8515   7.468   5.331   7.234 -2.5225  1.7442  0.1063
   25MOL   C308 8516   7.638   5.415   6.737 -0.4263 -0.2486 -1.0319
   25MOL   C309 8517   7.566   5.335   6.632  0.0603  0.2636  0.2504
   25MOL   N310 8518   7.452   5.258   6.669  0.5564  0.3262  0.2414
   25MOL   C311 8519   7.453   5.114   6.644  0.2817  0.0998  0.0974
   25MOL   C312 8520   7.340   5.061   6.734  0.1892 -0.1014  0.2915
   25MOL   C313 8521   7.241   5.179   6.767 -0.2066 -0.2856  0.4549
   25MOL   C314 8522   7.337   5.292   6.735 -0.4882 -0.4443  0.0595
   25MOL   O315 8523   7.309   5.397   6.792  0.4744  0.3802 -0.5162
   25MOL   H316 8524   7.710   5.482   6.690  0.5251 -0.5107  0.0517
   25MOL   H317 8525   7.565   5.490   6.766 -0.4023 -0.5964 -0.0368
   25MOL   H318 8526   7.637   5.259   6.598 -0.4086 -0.7428  1.4582
   25MOL   H319 8527   7.439   5.105   6.537  2.6914 -1.1412 -0.1480
   25MOL   H320 8528   7.549   5.067   6.668  0.0324 -0.9627 -0.9326
   25MOL   H321 8529   7.288   4.984   6.677  0.4066 -0.0002 -0.0441
   25MOL   H322 8530   7.370   5.016   6.828  0.0707  0.7147  0.7192
   25MOL   H323 8531   7.156   5.188   6.699  0.0575  2.3972  0.4380
   25MOL   H324 8532   7.212   5.192   6.871  2.2643  1.4071  0.9740
   25MOL   C325 8533   7.529   5.431   6.516 -0.0953 -0.0745 -0.3304
   25MOL   C326 8534   7.476   5.362   6.385  0.2319  0.8732 -0.1018
   25MOL   N327 8535   7.453   5.455   6.274 -0.2851  0.0592 -0.2768
   25MOL   C328 8536   7.565   5.512   6.193 -0.4580  0.2979  0.9158
   25MOL   C329 8537   7.493   5.596   6.079 -0.4105 -0.1744 -0.0408
   25MOL   C330 8538   7.347   5.587   6.104 -0.4706  0.2951  0.2427
   25MOL   C331 8539   7.336   5.497   6.230  0.2019  0.6606  1.0879
   25MOL   O332 8540   7.222   5.468   6.268  0.0490 -0.3253  0.5271
   25MOL   H333 8541   7.626   5.478   6.495  1.7949 -2.1532  3.2564
   25MOL   H334 8542   7.466   5.516   6.542  1.1865  1.0626 -0.8522
   25MOL   H335 8543   7.386   5.305   6.411  0.8881 -0.0826  0.1242
   25MOL   H336 8544   7.631   5.573   6.255 -0.4440  0.1844  1.0110
   25MOL   H337 8545   7.623   5.436   6.141  1.7420  3.6864 -1.7672
   25MOL   H338 8546   7.529   5.699   6.085  1.2803 -0.7692  0.2512
   25MOL   H339 8547   7.521   5.554   5.982 -1.3317  1.1309 -0.8964
   25MOL   H340 8548   7.284   5.676   6.098  0.9482  1.2461 -1.0812
   25MOL   H341 8549   7.311   5.522   6.024  1.9905 -0.4607 -0.3053
   25MOL   H342 8550   7.548   5.285   6.358  0.8583  1.5784 -0.4369
   26MOL     C1 8551   7.295   4.894   7.321 -0.6502 -0.5513 -0.4024
   26MOL     C2 8552   7.389   4.768   7.357 -0.3499  0.7982  0.5899
   26MOL     N3 8553   7.347   4.649   7.278 -0.1601 -0.4953 -0.1828
   26MOL     C4 8554   7.264   4.539   7.339  0.0256 -0.1517  0.0776
   26MOL     C5 8555   7.228   4.442   7.223  0.0790 -0.3862  0.2331
   26MOL     C6 8556   7.256   4.524   7.099 -0.5782 -0.3290  0.3176
   26MOL     C7 8557   7.337   4.646   7.147  0.6389 -0.0212  0.9590
   26MOL     O8 8558   7.398   4.719   7.069 -0.1668 -0.4911 -0.8090
   26MOL     H9 8559   7.323   4.986   7.372 -3.4670 -0.7376  1.5990
   26MOL    H10 8560   7.300   4.922   7.215  0.3562  0.6030 -0.0568
   26MOL    H11 8561   7.373   4.734   7.459 -1.2965 -1.4692 -0.2692
   26MOL    H12 8562   7.330   4.487   7.409  0.7705  1.8357  0.8945
   26MOL    H13 8563   7.178   4.587   7.384 -0.4415 -0.8194 -0.0928
   26MOL    H14 8564   7.297   4.358   7.223  0.9028  0.2284 -2.7138
   26MOL    H15 8565   7.126   4.407   7.235  0.4258 -1.8764 -1.1135
   26MOL    H16 8566   7.310   4.468   7.023 -0.1548 -1.1432  1.2084
   26MOL    H17 8567   7.164   4.557   7.051  0.0700  0.4485 -0.3895
   26MOL    H18 8568   7.199   4.851   7.351 -0.2254 -1.4042 -0.2546
   26MOL    C19 8569   7.547   4.783   7.345  0.7395 -0.8939 -0.4525
   26MOL    C20 8570   7.610   4.900   7.423 -0.2066 -0.3605 -1.2352
   26MOL    N21 8571   7.563   4.911   7.561  0.4053  0.4367  0.4219
   26MOL    C22 8572   7.497   5.030   7.614  0.4241 -0.0850 -0.1162
   26MOL    C23 8573   7.495   5.016   7.766 -0.3347  0.7499 -0.4154
   26MOL    C24 8574   7.537   4.877   7.800  0.2947  0.1811  0.4357
   26MOL    C25 8575   7.591   4.829   7.665  0.2760 -0.3917  0.4832
   26MOL    O26 8576   7.644   4.720   7.648 -0.3773  0.3447 -0.5290
   26MOL    H27 8577   7.581   4.769   7.243  2.8651  0.8555 -0.0293
   26MOL    H28 8578   7.582   4.697   7.403  0.3337 -0.4300  0.5011
   26MOL    H29 8579   7.584   4.994   7.376 -2.4032 -0.1534  0.3330
   26MOL    H30 8580   7.544   5.125   7.590  0.4480 -0.5973 -2.1540
   26MOL    H31 8581   7.393   5.031   7.582 -0.0595  0.7080  1.4333
   26MOL    H32 8582   7.574   5.069   7.818  0.7669 -2.2328  1.0648
   26MOL    H33 8583   7.400   5.044   7.812 -0.4956 -2.2921  1.2538
   26MOL    H34 8584   7.618   4.871   7.873  0.7809  0.2904 -0.0855
   26MOL    H35 8585   7.454   4.814   7.832  0.8854 -0.1479  1.3562
   26MOL    C36 8586   7.761   4.896   7.406  0.1803 -0.3708  0.0842
   26MOL    C37 8587   7.836   5.015   7.482 -0.3459  0.7185  0.0082
   26MOL    N38 8588   0.074   4.999   7.468 -0.0393  0.0053 -0.0416
   26MOL    C39 8589   0.159   5.003   7.587 -0.3101  0.0345 -0.1897
   26MOL    C40 8590   0.301   5.037   7.535 -0.1829 -0.4600 -0.2606
   26MOL    C41 8591   0.302   5.019   7.386 -0.2060  0.2306  0.1747
   26MOL    C42 8592   0.150   4.999   7.355  0.1007  0.2950  0.1167
   26MOL    O43 8593   0.100   5.006   7.236  0.5138  0.3904 -0.0378
   26MOL    H44 8594   7.775   4.906   7.298 -0.6548  0.9386  0.0740
   26MOL    H45 8595   7.790   4.794   7.430 -0.8915 -1.0754 -1.5358
   26MOL    H46 8596   7.817   4.989   7.586 -4.4066  1.2108 -0.5286
   26MOL    H47 8597   0.117   5.073   7.660 -0.1770  0.1416 -0.2153
   26MOL    H48 8598   0.170   4.907   7.636  0.3434  0.0633 -0.2712
   26MOL    H49 8599   0.332   5.133   7.576  1.6182 -1.2933  0.3769
   26MOL    H50 8600   0.370   4.976   7.594  1.3796  1.2600 -0.2687
   26MOL    H51 8601   0.339   5.105   7.330 -0.3914  1.3727  1.7469
   26MOL    H52 8602   0.349   4.928   7.351  0.5660  0.6084  0.2131
   26MOL    C53 8603   7.801   5.159   7.432 -0.3111 -0.0903  0.3811
   26MOL    C54 8604   7.852   5.281   7.512  0.4104  0.1205  0.2673
   26MOL    N55 8605   7.822   5.411   7.443 -0.0269  0.1160  0.1332
   26MOL    C56 8606   0.028   5.472   7.379  0.2337 -0.9231 -0.5087
   26MOL    C57 8607   7.874   5.585   7.289  0.3783 -0.4775  0.2751
   26MOL    C58 8608   7.727   5.603   7.340  0.0077  0.7342  0.0701
   26MOL    C59 8609   7.708   5.484   7.436  0.8810  0.4992  0.4813
   26MOL    O60 8610   7.597   5.455   7.483 -0.6413  0.8508 -0.0815
   26MOL    H61 8611   7.694   5.181   7.435  0.3440  3.0795  2.6355
   26MOL    H62 8612   7.830   5.177   7.329 -0.8042 -0.2250  0.2148
   26MOL    H63 8613   0.053   5.268   7.530  0.8988 -0.8858 -3.0210
   26MOL    H64 8614   0.110   5.512   7.439  0.8873  1.2613 -2.8121
   26MOL    H65 8615   0.076   5.403   7.309  3.5277  0.8382 -0.0659
   26MOL    H66 8616   0.022   5.680   7.287 -0.0439 -0.2469 -1.3166
   26MOL    H67 8617   7.876   5.547   7.187  3.0949  0.3187 -0.0042
   26MOL    H68 8618   7.707   5.691   7.402  2.5750  0.7221  0.9838
   26MOL    H69 8619   7.653   5.589   7.262  0.9004 -1.5905 -0.4012
   26MOL    C70 8620   7.780   5.276   7.651 -0.4107  0.3675 -0.2699
   26MOL    C71 8621   7.840   5.367   7.757  0.3250 -0.3448 -0.0782
   26MOL    N72 8622   7.754   5.367   7.880  0.4909 -0.7068 -0.6184
   26MOL    C73 8623   7.647   5.465   0.001 -0.3810 -0.1428 -0.4871
   26MOL    C74 8624   7.549   5.389   0.084  0.3235  0.2856 -0.1889
   26MOL    C75 8625   7.611   5.254   0.126  0.8971  0.0210  0.0539
   26MOL    C76 8626   7.742   5.261   0.055  0.2091  0.4673  0.7262
   26MOL    O77 8627   7.820   5.170   0.059  0.1475 -0.0725 -0.6368
   26MOL    H78 8628   7.775   5.172   7.682 -2.9017  1.0383  1.7316
   26MOL    H79 8629   7.675   5.302   7.640 -0.3222  1.3064  0.9722
   26MOL    H80 8630   7.835   5.467   7.714 -1.5315 -0.7189 -0.8071
   26MOL    H81 8631   7.691   5.544   0.062  3.7911 -0.8968 -2.3292
   26MOL    H82 8632   7.608   5.506   7.814 -1.1306 -2.3926 -1.1810
   26MOL    H83 8633   7.517   5.443   0.173 -0.1909 -0.7883  0.2788
   26MOL    H84 8634   7.461   5.371   0.022  1.0771 -2.0538 -0.6106
   26MOL    H85 8635   7.620   5.233   0.232 -0.6417 -3.3278 -0.4190
   26MOL    H86 8636   7.544   5.176   0.091  1.6322 -0.7723  0.4073
   26MOL    C87 8637   0.087   5.341   7.792 -0.6994 -0.3539 -0.2179
   26MOL    C88 8638   0.144   5.431   7.902 -0.5268  0.4154  0.0035
   26MOL    N89 8639   0.272   5.367   0.045 -0.0209  0.2543 -0.4861
   26MOL    C90 8640   0.268   5.285   0.165  0.5499 -0.7125 -0.3648
   26MOL    C91 8641   0.412   5.229   0.192  0.0192 -0.4056  0.2641
   26MOL    C92 8642   0.471   5.240   0.058 -0.3005  0.0512  0.0966
   26MOL    C93 8643   0.377   5.322   7.879 -0.7427 -0.8505  0.9066
   26MOL    O94 8644   0.397   5.347   7.763 -0.0213  0.2111  0.2010
   26MOL    H95 8645   0.145   5.366   7.703 -1.1248 -3.0060 -1.2729
   26MOL    H96 8646   0.112   5.237   7.814  0.8798 -0.0315 -0.4011
   26MOL    H97 8647   0.077   5.427   0.082  1.1803  3.3365  1.5258
   26MOL    H98 8648   0.241   5.344   0.252  1.8526 -0.5006 -0.0949
   26MOL    H99 8649   0.198   5.202   0.153  0.2828 -0.2398 -2.3059
   26MOL   H100 8650   0.468   5.282   0.270 -1.4521 -0.1640  1.1725
   26MOL   H101 8651   0.396   5.127   0.225  0.6043 -0.1161  1.5051
   26MOL   H102 8652   0.562   5.299   0.070 -0.6455  0.2959  1.6174
   26MOL   H103 8653   0.474   5.144   0.006 -0.1612  1.0779 -1.8257
   26MOL   C104 8654   0.177   5.572   7.863  0.0974 -0.7428  0.0509
   26MOL   C105 8655   0.155   5.670   0.076 -0.1084 -0.2135  0.7261
   26MOL   N106 8656   0.250   5.642   0.189 -0.2316  0.1259 -0.0276
   26MOL   C107 8657   0.204   5.614   0.324  0.1185  0.0699  0.1680
   26MOL   C108 8658   0.330   5.586   0.408  0.3055  0.0818  0.7552
   26MOL   C109 8659   0.452   5.623   0.321 -0.0811 -1.2641 -0.1908
   26MOL   C110 8660   0.385   5.675   0.195  0.2164 -0.4828  0.6476
   26MOL   O111 8661   0.446   5.730   0.105  0.0991 -0.4387  0.4399
   26MOL   H112 8662   0.101   5.585   7.785 -0.8296 -1.6943  0.7797
   26MOL   H113 8663   0.279   5.584   7.828  0.2415  0.4218  0.8259
   26MOL   H114 8664   0.056   5.650   0.115 -0.1139 -4.6446 -1.2513
   26MOL   H115 8665   0.154   5.709   0.347 -0.1701 -0.0746  0.1400
   26MOL   H116 8666   0.135   5.530   0.333  1.1283 -0.8263 -0.3401
   26MOL   H117 8667   0.342   5.652   0.494  2.0220 -0.4225  0.9205
   26MOL   H118 8668   0.326   5.481   0.434  0.7678  0.1337  1.0276
   26MOL   H119 8669   0.510   5.535   0.293  0.4909 -0.3933 -1.7975
   26MOL   H120 8670   0.519   5.695   0.369  0.8364 -2.0351 -0.3022
   26MOL   C121 8671   0.162   5.823   0.035 -0.5341  0.6485 -0.0748
   26MOL   C122 8672   0.027   5.859   7.871  0.3001 -0.4553 -0.5172
   26MOL   N123 8673   7.844   5.928   0.064  0.6133  0.4050 -0.2653
   26MOL   C124 8674   7.724   5.863   0.118  1.2181 -0.3487  0.3251
   26MOL   C125 8675   7.663   5.958   0.217  0.1994 -0.1760 -0.1430
   26MOL   C126 8676   7.768   6.068   0.233  0.2786 -0.3613 -0.1592
   26MOL   C127 8677   7.874   6.042   0.130  0.7321  0.2358 -1.1992
   26MOL   O128 8678   0.063   6.118   0.111 -0.5817 -0.1476  0.5769
   26MOL   H129 8679   0.246   5.843   7.875 -1.1192  0.3509 -0.9125
   26MOL   H130 8680   0.177   5.874   0.131 -4.4997 -1.5720  1.8596
   26MOL   H131 8681   7.877   5.773   7.835 -0.5694  0.2971 -1.0129
   26MOL   H132 8682   7.728   5.762   0.158 -1.3773 -1.2845 -1.5774
   26MOL   H133 8683   7.656   5.849   0.033 -0.4765  0.9130  1.4362
   26MOL   H134 8684   7.570   5.999   0.176  1.3815  0.5518 -2.1953
   26MOL   H135 8685   7.635   5.920   0.315 -1.1503  2.0526  0.3645
   26MOL   H136 8686   7.714   6.162   0.222  0.1979 -0.3515  0.3024
   26MOL   H137 8687   7.810   6.066   0.333  2.2749  0.2422 -0.9626
   26MOL   C138 8688   0.049   5.944   7.742  0.1601  1.0712  0.5928
   26MOL   C139 8689   7.834   6.023   7.679 -0.3223  0.0042  0.2926
   26MOL   N140 8690   7.886   6.121   7.578 -0.4264 -0.0314 -1.1111
   26MOL   C141 8691   7.880   6.265   7.597 -0.0804 -0.2202 -0.7341
   26MOL   C142 8692   0.048   6.330   7.472  0.1078 -0.1161  0.0227
   26MOL   C143 8693   0.055   6.214   7.376  0.3781  0.2979 -0.2231
   26MOL   C144 8694   0.027   6.089   7.458  0.0316 -0.4409  0.5288
   26MOL   O145 8695   0.039   5.972   7.411 -0.4802 -0.1358 -0.0383
   26MOL   H146 8696   0.104   5.884   7.670  0.5487 -1.2461  2.7685
   26MOL   H147 8697   0.122   6.019   7.773 -1.2770  1.5686  2.8291
   26MOL   H148 8698   7.797   6.084   7.762  1.6017  1.4494  0.1372
   26MOL   H149 8699   7.776   6.291   7.615 -0.5233 -0.7730 -2.3960
   26MOL   H150 8700   0.023   6.287   7.692  0.1376 -0.0297 -0.8918
   26MOL   H151 8701   7.905   6.418   7.430 -1.2519 -0.7419  0.2486
   26MOL   H152 8702   0.149   6.365   7.492 -0.5103  1.7248 -0.0387
   26MOL   H153 8703   0.155   6.200   7.334  0.1540 -1.3367 -0.2190
   26MOL   H154 8704   7.893   6.231   7.292 -0.9997  0.5361  0.9321
   26MOL   C155 8705   7.710   5.944   7.629 -0.0719 -0.1578 -0.1041
   26MOL   C156 8706   7.576   6.033   7.630  0.1330  0.1586 -0.2051
   26MOL   N157 8707   7.474   5.965   7.549  0.2787 -0.2736  0.3372
   26MOL   C158 8708   7.452   6.013   7.415  0.2183  0.4207 -0.2711
   26MOL   C159 8709   7.351   5.901   7.351  0.5624 -0.0905  0.3354
   26MOL   C160 8710   7.373   5.777   7.446  0.0659 -0.0609  0.1830
   26MOL   C161 8711   7.431   5.837   7.565 -0.9809 -0.2598  0.1075
   26MOL   O162 8712   7.448   5.768   7.663 -0.2241 -0.0173 -0.1864
   26MOL   H163 8713   7.692   5.858   7.694 -2.0770  0.4577  0.1726
   26MOL   H164 8714   7.728   5.917   7.525 -0.8139  0.0251 -0.2816
   26MOL   H165 8715   7.601   6.135   7.602  1.4893  0.7295  2.9237
   26MOL   H166 8716   7.425   6.118   7.405 -2.5593 -0.3820 -1.7751
   26MOL   H167 8717   7.546   6.012   7.359  0.4477  0.1759  0.1151
   26MOL   H168 8718   7.246   5.931   7.355  0.1874 -1.5333  1.9868
   26MOL   H169 8719   7.379   5.878   7.248 -0.3409  0.6699 -0.0875
   26MOL   H170 8720   7.276   5.727   7.456 -0.0233  0.1846  0.5610
   26MOL   H171 8721   7.449   5.713   7.402  0.9982  0.1045  1.5288
   26MOL   C172 8722   7.526   6.060   7.774  0.1469 -0.8063  0.0877
   26MOL   C173 8723   7.396   6.133   7.800  0.7645 -0.1246  0.4079
   26MOL   N174 8724   7.368   6.145   0.036  0.4981  0.1350 -0.3372
   26MOL   C175 8725   7.273   6.045   0.092 -0.5578  0.2527 -0.1510
   26MOL   C176 8726   7.266   6.069   0.240  0.2048  0.3661  0.1838
   26MOL   C177 8727   7.350   6.194   0.266  0.4900 -0.3550 -0.1989
   26MOL   C178 8728   7.422   6.221   0.131 -0.7457  0.2255  0.3538
   26MOL   O179 8729   7.516   6.302   0.111 -0.8370  0.5873 -0.0471
   26MOL   H180 8730   7.607   6.104   7.833 -1.3040  1.9695  0.0728
   26MOL   H181 8731   7.516   5.958   7.812  2.5802 -0.8713  0.6696
   26MOL   H182 8732   7.315   6.070   7.764 -1.3559  1.6924  1.8640
   26MOL   H183 8733   7.175   6.063   0.049 -0.7935  2.3497  1.2036
   26MOL   H184 8734   7.304   5.945   0.062 -1.9445 -0.3399  0.3696
   26MOL   H185 8735   7.318   5.990   0.293 -1.1867  0.1815  1.2957
   26MOL   H186 8736   7.162   6.073   0.272 -0.1814 -2.9919 -0.4857
   26MOL   H187 8737   7.288   6.277   0.297  0.5627 -0.1210 -0.6864
   26MOL   H188 8738   7.415   6.188   0.354  0.3322 -1.3297 -0.1347
   26MOL   C189 8739   7.380   6.269   7.720  0.2108  0.1720 -0.1237
   26MOL   C190 8740   7.238   6.338   7.722  0.1678  0.3841  0.3819
   26MOL   N191 8741   7.237   6.481   7.699 -0.2816 -0.1745 -0.1162
   26MOL   C192 8742   7.195   6.580   7.798  0.0496  0.3833 -0.5598
   26MOL   C193 8743   7.252   6.713   7.756  0.2516 -0.0689 -0.0927
   26MOL   C194 8744   7.287   6.695   7.611 -0.5965  0.0683 -0.1478
   26MOL   C195 8745   7.295   6.544   7.594  0.6358  0.0034 -0.1942
   26MOL   O196 8746   7.344   6.493   7.496  0.0064 -0.6256  0.6677
   26MOL   H197 8747   7.423   6.264   7.620 -3.7228  0.9215 -1.9529
   26MOL   H198 8748   7.453   6.338   7.761  0.3142 -0.7131  1.2130
   26MOL   H199 8749   7.210   6.336   7.828 -0.7813 -0.6489  0.1150
   26MOL   H200 8750   7.086   6.580   7.803  0.0489 -3.2366  2.3544
   26MOL   H201 8751   7.232   6.556   7.898 -0.8453 -0.4562 -0.4278
   26MOL   H202 8752   7.180   6.795   7.769  1.7446  1.3052 -0.3149
   26MOL   H203 8753   7.330   6.762   7.814 -1.1955  1.7020  0.4398
   26MOL   H204 8754   7.218   6.729   7.535 -1.3845 -0.5488  0.2870
   26MOL   H205 8755   7.379   6.748   7.585 -0.2025  0.5945  2.1258
   26MOL   C206 8756   7.141   6.269   7.630 -0.4365 -0.1334  0.7919
   26MOL   C207 8757   6.988   6.279   7.670 -0.1095  0.2169 -0.6273
   26MOL   N208 8758   6.905   6.224   7.556  0.5004  0.2940  0.1422
   26MOL   C209 8759   6.875   6.317   7.440 -0.1302 -0.0946 -0.1794
   26MOL   C210 8760   6.789   6.231   7.345 -0.0816  0.4834  0.0520
   26MOL   C211 8761   6.774   6.092   7.410  0.1068 -0.8298  0.0099
   26MOL   C212 8762   6.875   6.097   7.523 -0.4597  0.3557 -0.1681
   26MOL   O213 8763   6.916   5.993   7.578 -0.5403 -0.2684  0.2359
   26MOL   H214 8764   7.167   6.163   7.629 -1.0067 -0.2760 -0.3447
   26MOL   H215 8765   7.160   6.300   7.527 -0.3667  2.7126  1.6402
   26MOL   H216 8766   6.960   6.384   7.683 -2.4779 -0.6533  1.9518
   26MOL   H217 8767   6.823   6.403   7.482  0.6124  0.8657 -1.1896
   26MOL   H218 8768   6.975   6.337   7.401  0.4491 -0.3673  1.1582
   26MOL   H219 8769   6.690   6.274   7.327 -1.0248 -2.5029 -2.3414
   26MOL   H220 8770   6.838   6.232   7.248  0.6338  1.1302  0.4080
   26MOL   H221 8771   6.673   6.076   7.448  0.3537 -2.3942  0.0179
   26MOL   H222 8772   6.804   6.009   7.347  0.0809 -1.8098  1.2680
   26MOL   C223 8773   6.957   6.210   7.806  0.2968 -0.7398 -0.2483
   26MOL   C224 8774   6.809   6.198   7.852  0.1877  0.4054  0.0637
   26MOL   N225 8775   6.794   6.088   0.045 -0.4470 -0.1954 -0.1974
   26MOL   C226 8776   6.701   5.981   0.009 -0.6666  0.1028 -0.0983
   26MOL   C227 8777   6.717   5.882   0.121  0.4497 -0.4795 -0.2035
   26MOL   C228 8778   6.806   5.951   0.232 -0.4841 -0.1814 -0.0862
   26MOL   C229 8779   6.863   6.068   0.158 -0.0353  0.1474  0.6507
   26MOL   O230 8780   6.953   6.140   0.204  0.3370  0.3727  0.1112
   26MOL   H231 8781   7.006   6.273   7.880  0.3014  2.1191 -2.5774
   26MOL   H232 8782   6.996   6.109   7.792 -0.9726 -1.2371 -0.3142
   26MOL   H233 8783   6.758   6.168   7.761  0.6996 -0.4055  0.0422
   26MOL   H234 8784   6.599   6.018   0.002 -0.5058  0.2887 -1.7763
   26MOL   H235 8785   6.733   5.931   7.824  1.5109 -0.7708  1.1090
   26MOL   H236 8786   6.623   5.850   0.167  0.9402 -2.6879 -0.7000
   26MOL   H237 8787   6.751   5.787   0.081 -0.5598 -0.1840 -1.7915
   26MOL   H238 8788   6.747   5.996   0.312  1.4261  1.7282  0.2929
   26MOL   H239 8789   6.888   5.890   0.269 -0.4812  0.6983  1.3851
   26MOL   C240 8790   6.749   6.332   7.904  0.4196  0.6135  0.6977
   26MOL   C241 8791   6.660   6.410   7.799 -0.0260  0.7690  0.6079
   26MOL   N242 8792   6.545   6.329   7.755  0.3784  0.4794 -0.3505
   26MOL   C243 8793   6.531   6.296   7.618  0.4598 -0.4455  0.4348
   26MOL   C244 8794   6.394   6.228   7.604  0.9252  0.4572 -0.0847
   26MOL   C245 8795   6.332   6.223   7.748 -1.2172  0.1583 -0.6921
   26MOL   C246 8796   6.437   6.299   7.832 -0.5951 -0.4822 -0.6412
   26MOL   O247 8797   6.422   6.322   0.049 -0.1366  0.6480 -0.0703
   26MOL   H248 8798   6.818   6.414   0.019  2.5479 -0.9106 -0.1332
   26MOL   H249 8799   6.693   6.315   0.089 -3.7500 -1.5216 -2.1092
   26MOL   H250 8800   6.723   6.414   7.710 -0.6075  1.3504  0.2195
   26MOL   H251 8801   6.541   6.388   7.561 -2.4809 -1.8047 -2.4206
   26MOL   H252 8802   6.605   6.230   7.572 -0.1701  0.5968 -2.1436
   26MOL   H253 8803   6.338   6.295   7.539  2.0132 -0.1862 -1.7289
   26MOL   H254 8804   6.401   6.128   7.562 -1.7734  0.4260 -0.5260
   26MOL   H255 8805   6.232   6.264   7.760 -1.0024  0.0134  1.8758
   26MOL   H256 8806   6.336   6.128   7.801 -1.5137  0.5812  0.0966
   26MOL   C257 8807   6.629   6.559   7.834  0.0722  0.4578  0.2827
   26MOL   C258 8808   6.565   6.641   7.717  0.2762  0.8338 -0.1500
   26MOL   N259 8809   6.507   6.767   7.769  0.3909 -0.0513 -0.4230
   26MOL   C260 8810   6.370   6.799   7.772  0.0130  0.3886  0.5774
   26MOL   C261 8811   6.357   6.944   7.832 -0.2593 -0.2042 -0.5816
   26MOL   C262 8812   6.504   7.001   7.827  0.3372 -0.1623 -0.8381
   26MOL   C263 8813   6.579   6.871   7.802 -0.0625 -0.7572  0.4406
   26MOL   O264 8814   6.700   6.873   7.819  0.0296 -0.9471  0.0017
   26MOL   H265 8815   6.715   6.608   7.881 -0.8551  0.8602  1.5674
   26MOL   H266 8816   6.554   6.559   0.007  1.5235  0.4731  1.6880
   26MOL   H267 8817   6.476   6.585   7.690 -0.0641 -0.0652  2.6119
   26MOL   H268 8818   6.341   6.792   7.667 -1.3715 -2.6033  1.0990
   26MOL   H269 8819   6.301   6.732   7.822 -0.0181  0.1656  0.2362
   26MOL   H270 8820   6.294   6.996   7.760 -1.9023 -1.7234 -0.2564
   26MOL   H271 8821   6.316   6.950   0.026  2.1572  0.7887  0.3840
   26MOL   H272 8822   6.503   7.063   7.737 -0.0402 -0.5266 -1.0913
   26MOL   H273 8823   6.531   7.062   0.007  1.2465 -0.0127 -1.2290
   26MOL   C274 8824   6.647   6.676   7.591  0.4157  0.0494 -0.1270
   26MOL   C275 8825   6.554   6.724   7.474 -0.5875  0.3669 -0.4416
   26MOL   N276 8826   6.652   6.781   7.373  1.2194  0.1025  0.2737
   26MOL   C277 8827   6.652   6.930   7.358 -0.1581  0.8390 -0.2954
   26MOL   C278 8828   6.777   6.972   7.278  0.1588 -0.7836  0.5414
   26MOL   C279 8829   6.837   6.830   7.238 -0.9144  0.0465 -0.1415
   26MOL   C280 8830   6.752   6.726   7.311  0.5350  0.0619 -0.5460
   26MOL   O281 8831   6.772   6.603   7.308  0.1080  0.2055 -0.2282
   26MOL   H282 8832   6.690   6.577   7.573 -2.7933 -1.4173 -0.0026
   26MOL   H283 8833   6.729   6.744   7.615  0.6063 -0.8701  1.8517
   26MOL   H284 8834   6.494   6.804   7.516 -0.3863  0.2286  0.1181
   26MOL   H285 8835   6.565   6.963   7.302 -0.1898  0.7675 -0.2890
   26MOL   H286 8836   6.660   6.983   7.452 -0.0959  1.4642 -0.6543
   26MOL   H287 8837   6.749   7.038   7.196 -1.6705 -1.4626  0.5763
   26MOL   H288 8838   6.842   7.028   7.344 -0.1505 -0.0551  0.2258
   26MOL   H289 8839   6.824   6.802   7.133 -1.3705  0.7759 -0.2885
   26MOL   H290 8840   6.941   6.836   7.272  0.2176  1.3828 -3.5882
   26MOL   C291 8841   6.484   6.600   7.410  0.2421  0.0356 -0.6917
   26MOL   C292 8842   6.380   6.623   7.294  0.5768 -0.3628 -0.0852
   26MOL   N293 8843   6.453   6.600   7.170 -0.2846 -0.1946 -0.1467
   26MOL   C294 8844   6.450   6.707   7.066  0.1819  0.4908 -0.3135
   26MOL   C295 8845   6.515   6.639   6.942  0.3534 -0.3427 -0.0261
   26MOL   C296 8846   6.531   6.488   6.971 -0.3998  0.3524 -0.0671
   26MOL   C297 8847   6.490   6.479   7.120 -0.0058 -0.4740  0.0157
   26MOL   O298 8848   6.489   6.372   7.179  0.1971 -0.3979 -0.3360
   26MOL   H299 8849   6.421   6.559   7.488 -1.5092  1.2311 -1.4457
   26MOL   H300 8850   6.557   6.525   7.378  0.4742 -0.9159  1.9976
   26MOL   H301 8851   6.352   6.728   7.306 -0.9434 -0.5928 -1.4682
   26MOL   H302 8852   6.348   6.738   7.044 -0.8293 -0.2328  3.0303
   26MOL   H303 8853   6.521   6.779   7.107  1.4395  0.3281 -2.1575
   26MOL   H304 8854   6.442   6.655   6.863 -0.9594 -2.0761  0.8098
   26MOL   H305 8855   6.599   6.691   6.896  0.1690  0.3554  0.4046
   26MOL   H306 8856   6.459   6.435   6.910 -2.5093  2.4779  0.4950
   26MOL   H307 8857   6.636   6.471   6.945 -0.8520 -0.4966 -1.3686
   26MOL   C308 8858   6.249   6.536   7.286 -0.0713  0.4354 -0.1282
   26MOL   C309 8859   6.122   6.616   7.337 -0.5172  0.6127 -0.2131
   26MOL   N310 8860   6.099   6.732   7.245  0.2522 -0.2271 -0.5871
   26MOL   C311 8861   6.091   6.864   7.299 -0.2464 -0.4867  0.6856
   26MOL   C312 8862   6.064   6.963   7.197 -0.0551  0.1061 -0.2328
   26MOL   C313 8863   6.041   6.877   7.074  0.5904  0.0320  0.5545
   26MOL   C314 8864   6.073   6.732   7.117 -0.2814 -0.0692 -0.2678
   26MOL   O315 8865   6.071   6.639   7.044  0.2566  0.4822 -0.1626
   26MOL   H316 8866   6.266   6.445   7.344 -0.6362  1.1450  1.1576
   26MOL   H317 8867   6.230   6.506   7.183 -1.9954 -0.9153  0.5910
   26MOL   H318 8868   6.150   6.654   7.435 -1.2039 -0.2752  0.3404
   26MOL   H319 8869   6.018   6.856   7.380 -0.1318  2.0428  1.0767
   26MOL   H320 8870   6.188   6.889   7.340  0.0039 -1.2593  0.5643
   26MOL   H321 8871   5.980   7.030   7.217 -0.5389 -0.4041 -0.5607
   26MOL   H322 8872   6.143   7.038   7.186 -1.0241  1.2264  0.3122
   26MOL   H323 8873   5.937   6.879   7.043  1.0451 -0.2823 -1.0536
   26MOL   H324 8874   6.105   6.908   6.991 -1.2425  0.1978 -0.8197
   26MOL   C325 8875   5.996   6.521   7.351  0.0411 -0.3090 -0.5894
   26MOL   C326 8876   6.008   6.412   7.452 -0.4116  0.1598  0.4988
   26MOL   N327 8877   5.995   6.470   7.585 -0.2465 -0.5349 -0.9703
   26MOL   C328 8878   5.873   6.443   7.661 -0.2637  0.5194 -0.0002
   26MOL   C329 8879   5.909   6.473   7.809  0.4711  0.1845  0.3458
   26MOL   C330 8880   6.057   6.524   7.817 -0.1302  0.2823  0.1708
   26MOL   C331 8881   6.096   6.516   7.675  0.1595  0.0797 -0.0371
   26MOL   O332 8882   6.212   6.537   7.650 -0.0280  0.2442 -0.3539
   26MOL   H333 8883   5.971   6.474   7.256 -3.5616 -1.3960  0.8313
   26MOL   H334 8884   5.908   6.583   7.361  0.4650 -0.1963  3.3238
   26MOL   H335 8885   6.105   6.363   7.450  0.9480  2.6677  2.0660
   26MOL   H336 8886   5.793   6.505   7.622  0.7884  1.7585 -0.2247
   26MOL   H337 8887   5.848   6.338   7.646 -0.3074  0.5581 -0.1908
   26MOL   H338 8888   5.839   6.552   7.836  0.2131 -0.1111  0.5465
   26MOL   H339 8889   5.885   6.382   7.864 -1.6994  1.8717  2.2779
   26MOL   H340 8890   6.052   6.620   7.868 -1.7859 -0.6331  1.8017
   26MOL   H341 8891   6.124   6.469   7.883  0.9504 -0.1904 -1.3058
   26MOL   H342 8892   5.939   6.331   7.429  0.2361 -0.6661  1.4031
   27MOL     C1 8893   7.155   2.586   6.963 -0.8613  0.1428 -0.0056
   27MOL     C2 8894   7.231   2.717   6.948 -0.4463  0.6315 -0.1742
   27MOL     N3 8895   7.153   2.827   6.895 -0.1362  0.4026  0.0973
   27MOL     C4 8896   7.166   2.869   6.759 -0.3975  0.0371 -0.4257
   27MOL     C5 8897   7.092   3.005   6.748 -0.0764  0.1888  0.1315
   27MOL     C6 8898   7.000   3.008   6.871 -0.0488 -0.7545 -0.0684
   27MOL     C7 8899   7.049   2.891   6.954  0.1433  0.2163  0.1315
   27MOL     O8 8900   7.000   2.858   7.064  0.0556 -0.2838 -0.1156
   27MOL     H9 8901   7.115   2.539   6.873  0.3879 -0.8033 -0.0858
   27MOL    H10 8902   7.211   2.499   6.997 -2.0070 -0.9928 -0.9598
   27MOL    H11 8903   7.313   2.694   6.880  1.1328 -1.4374  2.3420
   27MOL    H12 8904   7.269   2.896   6.736  0.2066  0.4283  2.5383
   27MOL    H13 8905   7.125   2.795   6.691 -1.1563 -2.2254  2.3928
   27MOL    H14 8906   7.173   3.078   6.754  1.3183 -1.2933 -0.4386
   27MOL    H15 8907   7.028   3.005   6.660  1.5101 -0.6009 -1.0422
   27MOL    H16 8908   7.000   3.099   6.931  0.1747 -1.2872  0.7560
   27MOL    H17 8909   6.898   2.998   6.832  0.0758 -0.6128 -0.4317
   27MOL    H18 8910   7.069   2.589   7.029 -1.8991  1.7083 -1.3765
   27MOL    C19 8911   7.287   2.766   7.079 -0.1290  0.5871 -0.4873
   27MOL    C20 8912   7.400   2.672   7.138 -0.2597 -0.1598  0.1014
   27MOL    N21 8913   7.516   2.650   7.049 -0.4368  0.0233  0.5029
   27MOL    C22 8914   7.588   2.524   7.056 -0.4727  0.5829 -0.1422
   27MOL    C23 8915   7.709   2.548   6.965 -0.0376  0.0100  0.2354
   27MOL    C24 8916   7.712   2.700   6.938  0.5151  0.3796  0.0274
   27MOL    C25 8917   7.587   2.755   7.001 -0.5514  0.2132  0.4736
   27MOL    O26 8918   7.557   2.881   7.006  0.0674 -0.4839 -0.1336
   27MOL    H27 8919   7.207   2.787   7.150  1.4256 -0.0073  1.5038
   27MOL    H28 8920   7.328   2.867   7.078 -0.0440  0.5512 -0.6232
   27MOL    H29 8921   7.370   2.572   7.169  0.1506 -0.5421 -0.7037
   27MOL    H30 8922   7.609   2.498   7.159 -1.1180  0.4665 -0.0359
   27MOL    H31 8923   7.507   2.463   7.015 -0.8909 -1.3592  3.3975
   27MOL    H32 8924   7.809   2.527   7.001  0.5171  3.5364  0.9334
   27MOL    H33 8925   7.701   2.495   6.870 -0.9918  0.2735  0.1591
   27MOL    H34 8926   7.807   2.743   6.969  1.1605  0.4464 -1.9905
   27MOL    H35 8927   7.688   2.705   6.832 -0.0525 -2.9485 -0.0758
   27MOL    C36 8928   7.449   2.733   7.270  0.6661 -0.5753 -0.4435
   27MOL    C37 8929   7.385   2.678   7.397 -0.1024 -0.3442  0.2399
   27MOL    N38 8930   7.235   2.671   7.400  0.6370  0.6610  0.2387
   27MOL    C39 8931   7.157   2.556   7.358 -0.2841  0.0764  0.1474
   27MOL    C40 8932   7.010   2.599   7.372 -0.8671 -0.0631  0.4295
   27MOL    C41 8933   7.009   2.735   7.433  0.1963  0.2184  0.1138
   27MOL    C42 8934   7.158   2.766   7.455  0.3129  0.0743  0.1763
   27MOL    O43 8935   7.203   2.875   7.499  0.1017  0.2547  0.6816
   27MOL    H44 8936   7.429   2.840   7.271 -1.4046 -0.9319  0.0272
   27MOL    H45 8937   7.556   2.715   7.267  0.5982 -0.9260 -0.9698
   27MOL    H46 8938   7.417   2.747   7.475 -0.6740 -1.3838  1.4161
   27MOL    H47 8939   7.169   2.530   7.253 -2.1789  0.0514 -0.0902
   27MOL    H48 8940   7.163   2.463   7.415  3.6579 -0.3143 -0.7808
   27MOL    H49 8941   6.960   2.596   7.275 -1.0913 -0.5661  0.5581
   27MOL    H50 8942   6.962   2.538   7.449 -1.1115 -0.3510  0.0462
   27MOL    H51 8943   6.965   2.810   7.367  1.0172  1.4367  0.9234
   27MOL    H52 8944   6.957   2.739   7.528 -2.9123  0.2964 -1.5211
   27MOL    C53 8945   7.445   2.544   7.448 -0.2529 -0.4352  0.1768
   27MOL    C54 8946   7.432   2.506   7.591 -0.0351  0.1227 -0.7676
   27MOL    N55 8947   7.370   2.368   7.606 -0.0558 -0.3922 -0.4403
   27MOL    C56 8948   7.274   2.336   7.712  0.2877 -0.3939  0.4575
   27MOL    C57 8949   7.234   2.198   7.675  0.0909 -0.0786  0.4225
   27MOL    C58 8950   7.348   2.140   7.599  0.7862 -0.3916  0.3274
   27MOL    C59 8951   7.420   2.261   7.545  0.4268  0.3761 -0.0350
   27MOL    O60 8952   7.512   2.251   7.469 -0.3541  0.0406 -0.1117
   27MOL    H61 8953   7.552   2.549   7.427 -0.1406  1.1951  1.0528
   27MOL    H62 8954   7.397   2.471   7.383 -0.1555 -0.4794  0.1547
   27MOL    H63 8955   7.355   2.570   7.636 -0.6549  0.1938 -1.8900
   27MOL    H64 8956   7.315   2.342   7.813 -0.4541 -0.4170  0.7659
   27MOL    H65 8957   7.192   2.408   7.715 -0.9288 -1.7188 -0.0093
   27MOL    H66 8958   7.192   2.143   7.759 -0.5546  0.8049  0.6778
   27MOL    H67 8959   7.150   2.225   7.612  1.0555  1.1681 -0.3517
   27MOL    H68 8960   7.408   2.079   7.668  1.4535 -0.5766 -0.4094
   27MOL    H69 8961   7.326   2.087   7.507 -1.7742  0.9553  0.1401
   27MOL    C70 8962   7.562   2.511   7.673 -0.0272  0.8695  0.2508
   27MOL    C71 8963   7.623   2.649   7.704 -0.0232  0.1323  0.7132
   27MOL    N72 8964   7.539   2.725   7.804 -0.0053  0.0317  0.5661
   27MOL    C73 8965   7.476   2.845   7.752 -0.0163 -0.4774 -0.8149
   27MOL    C74 8966   7.408   2.911   7.870  0.9031 -0.4190 -0.2489
   27MOL    C75 8967   7.422   2.809   0.078  0.4262  0.0786  0.2283
   27MOL    C76 8968   7.510   2.698   0.024 -0.2511 -1.0886 -0.1815
   27MOL    O77 8969   7.563   2.614   0.100  0.0478  0.1169 -1.1963
   27MOL    H78 8970   7.644   2.455   7.626  0.6579  2.4913 -0.5232
   27MOL    H79 8971   7.537   2.455   7.763  0.8197  1.8591  1.1115
   27MOL    H80 8972   7.635   2.717   7.620  2.9364 -0.0354  0.9593
   27MOL    H81 8973   7.526   2.915   7.685  0.0273 -1.5668 -1.9539
   27MOL    H82 8974   7.389   2.804   7.700 -0.1694 -0.4153 -0.6073
   27MOL    H83 8975   7.454   3.004   7.904 -0.7823 -0.2684  1.6354
   27MOL    H84 8976   7.308   2.951   7.853  1.1719 -0.2916 -1.6288
   27MOL    H85 8977   7.473   2.853   0.163  1.0858  0.2358 -0.2451
   27MOL    H86 8978   7.331   2.754   0.104  0.8433 -1.5374 -1.6257
   27MOL    C87 8979   7.764   2.654   7.748 -0.2288  0.6205  0.1256
   27MOL    C88 8980   7.824   2.793   7.771 -0.0256  0.8221  0.5923
   27MOL    N89 8981   7.888   2.804   7.899  0.0900 -0.1894 -0.0133
   27MOL    C90 8982   7.831   2.891   0.103  0.9975  0.1093  0.1675
   27MOL    C91 8983   7.890   2.845   0.234 -0.3760 -0.3562 -0.2181
   27MOL    C92 8984   0.099   2.753   0.200 -0.6804  0.0878  0.6945
   27MOL    C93 8985   0.071   2.718   0.055 -0.6729 -0.3972 -0.4448
   27MOL    O94 8986   0.134   2.624   0.006  0.7222 -0.4044 -0.3088
   27MOL    H95 8987   7.834   2.599   7.686  0.0480  1.3439 -0.2083
   27MOL    H96 8988   7.772   2.594   7.839 -1.0790  2.4740  1.4482
   27MOL    H97 8989   7.754   2.876   7.775 -1.0534 -0.0515  1.2305
   27MOL    H98 8990   7.846   2.999   0.094 -1.1334  0.5240  1.1895
   27MOL    H99 8991   7.728   2.857   0.097  1.2758 -0.7796  0.3306
   27MOL   H100 8992   0.017   2.935   0.286  0.7480 -1.4257  0.9679
   27MOL   H101 8993   7.818   2.792   0.297  0.3627  0.3282  1.2324
   27MOL   H102 8994   0.191   2.811   0.205 -1.1811  0.8272  1.5208
   27MOL   H103 8995   0.120   2.669   0.267 -0.0093  1.2405  1.9570
   27MOL   C104 8996   0.023   2.837   7.659 -0.3282  0.2127  1.0937
   27MOL   C105 8997   7.881   2.840   7.507 -1.0161 -0.5215 -0.4807
   27MOL   N106 8998   7.804   2.965   7.480  0.3433 -0.4276  0.7657
   27MOL   C107 8999   7.675   2.948   7.409 -0.3815  0.4702 -0.2773
   27MOL   C108 9000   7.622   3.092   7.382  0.5061  0.4574 -0.5809
   27MOL   C109 9001   7.732   3.185   7.442  0.1315  0.7276 -0.5095
   27MOL   C110 9002   7.851   3.088   7.479 -0.2059  0.9863 -0.2338
   27MOL   O111 9003   0.055   3.128   7.517  0.0898 -0.5242 -0.8084
   27MOL   H112 9004   0.103   2.763   7.670  0.0375  0.4649  0.1610
   27MOL   H113 9005   0.072   2.930   7.687  0.1707  0.1287  0.5118
   27MOL   H114 9006   7.814   2.755   7.497 -1.0092 -0.6143  0.2666
   27MOL   H115 9007   7.684   2.894   7.314  1.2798  0.2981 -0.0381
   27MOL   H116 9008   7.626   2.883   7.480  1.8742 -1.1198 -0.1156
   27MOL   H117 9009   7.619   3.104   7.274 -0.5751  0.7502 -0.5262
   27MOL   H118 9010   7.523   3.109   7.426  0.6920  0.6130 -0.2258
   27MOL   H119 9011   7.698   3.245   7.527 -0.8535 -0.0701 -0.3357
   27MOL   H120 9012   7.770   3.249   7.362  2.5395  0.1234  0.1089
   27MOL   C121 9013   0.094   2.823   7.400 -0.7120 -0.2252  1.1285
   27MOL   C122 9014   0.183   2.699   7.417 -0.1337 -0.1303  0.0031
   27MOL   N123 9015   0.096   2.578   7.437 -0.0682 -0.5577  0.6539
   27MOL   C124 9016   0.140   2.488   7.544 -1.0957 -0.3823 -0.2142
   27MOL   C125 9017   0.058   2.368   7.524 -0.4798  0.2963  0.6738
   27MOL   C126 9018   7.871   2.395   7.402 -0.1415  0.0530  0.1185
   27MOL   C127 9019   0.012   2.524   7.347 -0.2572  0.5668 -0.1141
   27MOL   O128 9020   7.889   2.574   7.242  0.0910  0.1948  0.6006
   27MOL   H129 9021   0.153   2.915   7.409 -1.1215  0.1449  0.1661
   27MOL   H130 9022   0.053   2.829   7.299  1.3283  3.0727  0.4221
   27MOL   H131 9023   0.241   2.702   7.509 -0.4301  1.3845  0.1577
   27MOL   H132 9024   0.141   2.538   7.641  1.9700 -1.5777  0.4423
   27MOL   H133 9025   0.245   2.463   7.524 -1.2033 -2.7638  1.7693
   27MOL   H134 9026   0.115   2.275   7.514  2.3597  1.9439  0.9743
   27MOL   H135 9027   7.904   2.357   7.615  0.2026  2.7092  1.4347
   27MOL   H136 9028   7.877   2.325   7.318  1.4809  0.1427  0.1628
   27MOL   H137 9029   7.764   2.412   7.416 -0.4756 -1.7381 -0.1396
   27MOL   C138 9030   0.297   2.671   7.317 -0.1973 -0.0736 -0.5932
   27MOL   C139 9031   0.391   2.793   7.283 -0.3787  0.2773 -0.3623
   27MOL   N140 9032   0.530   2.756   7.280 -0.6843 -0.5345 -0.6649
   27MOL   C141 9033   0.626   2.838   7.357  0.2344  0.2672  0.0768
   27MOL   C142 9034   0.762   2.801   7.314 -0.2627 -0.6518 -0.2384
   27MOL   C143 9035   0.740   2.677   7.231 -0.3282 -0.1574 -0.0579
   27MOL   C144 9036   0.591   2.662   7.221 -0.3155  0.1536 -0.2950
   27MOL   O145 9037   0.536   2.571   7.156  0.5438  0.2644 -0.2217
   27MOL   H146 9038   0.259   2.635   7.221  0.7266 -1.1152 -0.5838
   27MOL   H147 9039   0.357   2.589   7.358 -2.2009 -1.0732  0.4354
   27MOL   H148 9040   0.371   2.865   7.363  0.1698  0.4817 -0.4110
   27MOL   H149 9041   0.603   2.944   7.348  0.7693  0.2830 -1.3065
   27MOL   H150 9042   0.599   2.815   7.460  0.9943 -1.1836 -0.0237
   27MOL   H151 9043   0.800   2.881   7.250  0.6742 -1.3225 -0.5222
   27MOL   H152 9044   0.838   2.789   7.392 -0.7827 -0.9212  0.2337
   27MOL   H153 9045   0.788   2.590   7.276 -0.2987 -0.6783 -1.0777
   27MOL   H154 9046   0.777   2.683   7.129 -1.6168 -1.1609 -0.5973
   27MOL   C155 9047   0.340   2.853   7.153  0.0751  0.0618  0.3456
   27MOL   C156 9048   0.376   3.004   7.114 -0.2244 -0.0762  0.5225
   27MOL   N157 9049   0.301   3.048   6.996  0.6333 -0.0308  0.4725
   27MOL   C158 9050   0.376   3.075   6.871 -0.4171 -0.4689 -0.2253
   27MOL   C159 9051   0.287   3.027   6.762  0.0307 -1.0660  0.1074
   27MOL   C160 9052   0.145   3.029   6.822  0.1515  0.6354 -0.1662
   27MOL   C161 9053   0.174   3.033   6.972  0.0879 -0.1394 -0.1346
   27MOL   O162 9054   0.086   3.009   7.054 -0.7616  0.1180 -0.8771
   27MOL   H163 9055   0.235   2.829   7.138 -0.1514  2.6385 -2.5266
   27MOL   H164 9056   0.385   2.791   7.075  2.8879  0.7090  1.3699
   27MOL   H165 9057   0.482   2.996   7.088 -0.4851 -0.4689 -0.4522
   27MOL   H166 9058   0.386   3.182   6.855  2.1838 -1.0688 -3.1996
   27MOL   H167 9059   0.476   3.031   6.880 -0.0997  0.5506  1.6508
   27MOL   H168 9060   0.287   3.088   6.672 -2.4424 -2.5936 -0.9971
   27MOL   H169 9061   0.309   2.925   6.732  0.4428 -0.4232 -1.8649
   27MOL   H170 9062   0.094   3.121   6.793 -1.2730  0.1154  0.6469
   27MOL   H171 9063   0.089   2.940   6.794 -0.1914  0.9369 -0.4555
   27MOL   C172 9064   0.345   3.097   7.238 -0.0519  0.9209 -0.2858
   27MOL   C173 9065   0.362   3.247   7.225 -0.5380  0.1829 -0.6105
   27MOL   N174 9066   0.240   3.307   7.165  0.1621  0.3931 -0.5439
   27MOL   C175 9067   0.112   3.300   7.240 -0.2182 -0.5658  0.6267
   27MOL   C176 9068   0.014   3.385   7.161 -0.9148 -0.5926  0.1238
   27MOL   C177 9069   0.087   3.414   7.029  0.5836  0.1606 -0.4713
   27MOL   C178 9070   0.235   3.374   7.043 -0.0272 -0.0696 -0.4907
   27MOL   O179 9071   0.315   3.381   6.952 -0.4785  0.1328 -0.3555
   27MOL   H180 9072   0.394   3.052   7.324 -0.7498  0.1852 -0.2614
   27MOL   H181 9073   0.245   3.079   7.278  0.0993 -0.2648 -0.4185
   27MOL   H182 9074   0.457   3.259   7.172  0.2766 -0.6803  0.6331
   27MOL   H183 9075   0.067   3.201   7.240 -4.4285  1.2223 -1.5737
   27MOL   H184 9076   0.127   3.337   7.342  3.5263 -0.8384  0.2449
   27MOL   H185 9077   7.898   3.481   7.208  1.3791  0.3164 -0.6581
   27MOL   H186 9078   7.823   3.343   7.132 -0.7805 -1.9657  1.5579
   27MOL   H187 9079   0.042   3.338   6.964  2.6767 -1.1774 -0.4071
   27MOL   H188 9080   0.067   3.510   6.981 -0.2655  0.7246  1.0047
   27MOL   C189 9081   0.375   3.312   7.362  0.5783  0.2215  0.7061
   27MOL   C190 9082   0.513   3.281   7.430 -1.1581 -0.1334  0.1147
   27MOL   N191 9083   0.631   3.351   7.366  0.1293 -0.4024 -0.7381
   27MOL   C192 9084   0.757   3.284   7.351 -0.6196 -0.1028  0.1849
   27MOL   C193 9085   0.856   3.385   7.292  0.5225  0.7777 -0.2452
   27MOL   C194 9086   0.785   3.516   7.310  0.5998  0.8357 -0.2320
   27MOL   C195 9087   0.640   3.482   7.345 -0.4650 -0.4836 -0.2324
   27MOL   O196 9088   0.555   3.576   7.350  0.2652  0.2254  0.2255
   27MOL   H197 9089   0.298   3.272   7.428  0.0238 -1.2494 -0.8151
   27MOL   H198 9090   0.367   3.420   7.352  0.3052  0.1489  0.1596
   27MOL   H199 9091   0.532   3.174   7.425 -3.3553 -0.4508 -2.0663
   27MOL   H200 9092   0.794   3.264   7.452  0.7671  2.8143  0.3099
   27MOL   H201 9093   0.749   3.183   7.311 -1.2674  0.4019 -0.9592
   27MOL   H202 9094   0.963   3.394   7.314  0.8977 -1.2936 -1.1225
   27MOL   H203 9095   0.867   3.353   7.189  2.2078  1.0662 -0.1671
   27MOL   H204 9096   0.834   3.566   7.393 -1.5077  0.3612  1.3354
   27MOL   H205 9097   0.793   3.581   7.223  1.8134  1.8342  0.5960
   27MOL   C206 9098   0.499   3.331   7.577 -0.0112 -0.0551  0.3010
   27MOL   C207 9099   0.429   3.243   7.684 -0.6195  0.7480  0.4685
   27MOL   N208 9100   0.482   3.100   7.687 -0.2626  0.0350  0.4529
   27MOL   C209 9101   0.383   2.991   7.690 -0.1637 -0.2957  0.0400
   27MOL   C210 9102   0.466   2.870   7.730  0.4262  0.1506  0.0801
   27MOL   C211 9103   0.615   2.906   7.736 -0.1188  0.6431 -0.0419
   27MOL   C212 9104   0.608   3.057   7.707 -0.6666  0.3279 -0.3887
   27MOL   O213 9105   0.709   3.130   7.718  0.1258  0.0742  0.1153
   27MOL   H214 9106   0.453   3.431   7.578  1.8575  0.8345 -0.9484
   27MOL   H215 9107   0.601   3.336   7.614  0.5125 -0.8109 -1.0345
   27MOL   H216 9108   0.325   3.222   7.657 -0.8412 -1.5788  2.9825
   27MOL   H217 9109   0.304   3.002   7.764 -1.4594 -1.2867 -1.1744
   27MOL   H218 9110   0.335   2.984   7.593 -1.8071  2.6283  0.6014
   27MOL   H219 9111   0.441   2.843   7.833  1.6076  1.7852  0.8187
   27MOL   H220 9112   0.450   2.784   7.666 -1.1221 -0.1106  0.7968
   27MOL   H221 9113   0.663   2.890   7.833 -1.2173  0.7732  0.5219
   27MOL   H222 9114   0.672   2.860   7.655 -2.4035  3.2017 -3.1980
   27MOL   C223 9115   0.435   3.307   7.820  0.9278  0.1364 -0.6209
   27MOL   C224 9116   0.318   3.402   7.849 -0.1458 -0.1486  0.5105
   27MOL   N225 9117   0.184   3.347   7.841 -0.2852 -0.1508 -0.0742
   27MOL   C226 9118   0.083   3.413   7.753 -1.5499 -0.6918 -0.4746
   27MOL   C227 9119   7.857   3.344   7.775  0.1668  0.4103 -0.1036
   27MOL   C228 9120   7.891   3.230   7.868 -0.1197 -0.1237  0.2988
   27MOL   C229 9121   0.135   3.239   7.896 -0.6252  0.3731  0.0473
   27MOL   O230 9122   0.194   3.156   0.062  0.3071  0.6422 -0.0498
   27MOL   H231 9123   0.533   3.354   7.818  0.2761  1.5075 -4.1599
   27MOL   H232 9124   0.432   3.231   7.898 -1.1015 -0.0886 -0.8856
   27MOL   H233 9125   0.318   3.476   7.768  2.0860 -0.3159  0.3236
   27MOL   H234 9126   0.084   3.520   7.775 -1.1994 -1.1462  1.9262
   27MOL   H235 9127   0.110   3.417   7.648  1.2129 -0.1222  0.2228
   27MOL   H236 9128   7.768   3.390   7.817  0.6275 -0.1406  1.5428
   27MOL   H237 9129   7.828   3.312   7.675 -0.8991 -2.0433  0.9540
   27MOL   H238 9130   7.837   3.230   0.057 -0.8019 -2.4946 -0.0637
   27MOL   H239 9131   7.877   3.140   7.807 -0.5242 -0.1660  0.4523
   27MOL   C240 9132   0.342   3.462   0.079  0.1087  1.0112  0.8929
   27MOL   C241 9133   0.417   3.597   0.078 -0.1298  0.0538 -0.7686
   27MOL   N242 9134   0.344   3.691   7.899 -0.1284 -0.5159  0.0326
   27MOL   C243 9135   0.419   3.768   7.794 -1.1485  0.0031  0.4214
   27MOL   C244 9136   0.319   3.884   7.752 -0.2230 -0.3679 -0.8654
   27MOL   C245 9137   0.188   3.834   7.804 -0.0780  0.3116 -0.9045
   27MOL   C246 9138   0.216   3.728   7.904 -0.5482 -0.2256  0.8623
   27MOL   O247 9139   0.132   3.688   0.079  0.3330 -0.2923 -0.3454
   27MOL   H248 9140   0.382   3.385   0.145 -2.5109 -1.7532 -0.6754
   27MOL   H249 9141   0.253   3.482   0.140 -0.0742  1.3995  0.5030
   27MOL   H250 9142   0.513   3.582   0.028  0.6722  0.5340  0.6021
   27MOL   H251 9143   0.498   3.821   7.847  0.2895 -2.7047  1.0849
   27MOL   H252 9144   0.458   3.719   7.704 -1.8270  1.1525 -0.5092
   27MOL   H253 9145   0.355   3.985   7.771 -0.4031 -0.6295  0.9218
   27MOL   H254 9146   0.319   3.883   7.643  0.4788  2.1911 -0.9183
   27MOL   H255 9147   0.139   3.919   7.852  2.0981  0.3920  1.2370
   27MOL   H256 9148   0.124   3.791   7.727 -0.9961  0.2956 -0.1384
   27MOL   C257 9149   0.446   3.672   0.214 -0.3192 -0.0999 -0.1778
   27MOL   C258 9150   0.525   3.590   0.313  0.5952 -1.2132  0.2951
   27MOL   N259 9151   0.646   3.529   0.251 -0.4586 -0.2158 -0.0739
   27MOL   C260 9152   0.675   3.385   0.264 -0.4388 -0.2959 -0.1901
   27MOL   C261 9153   0.784   3.369   0.153 -0.3402  0.0596 -0.0121
   27MOL   C262 9154   0.846   3.507   0.118 -0.6976 -0.4448  0.6300
   27MOL   C263 9155   0.737   3.600   0.180 -0.9223  0.7341 -0.2966
   27MOL   O264 9156   0.738   3.719   0.150  0.1044 -0.1863 -0.6792
   27MOL   H265 9157   0.363   3.725   0.259 -0.5721  0.9520 -1.8509
   27MOL   H266 9158   0.501   3.764   0.189  0.3656  0.1840  2.2184
   27MOL   H267 9159   0.450   3.515   0.338 -0.6950  0.5279  1.8536
   27MOL   H268 9160   0.715   3.369   0.364 -0.0376  0.7362 -0.1772
   27MOL   H269 9161   0.593   3.315   0.249  0.1215 -1.4986  2.1146
   27MOL   H270 9162   0.856   3.289   0.169  0.3895  0.7831  0.3996
   27MOL   H271 9163   0.736   3.322   0.068 -0.6590  0.3666 -0.0027
   27MOL   H272 9164   0.946   3.512   0.161  0.3441  1.3902 -1.9065
   27MOL   H273 9165   0.860   3.525   0.012  1.6594  0.8128  1.1109
   27MOL   C274 9166   0.551   3.676   0.443 -0.5901 -0.0814 -0.4495
   27MOL   C275 9167   0.628   3.606   0.556 -0.3746 -0.0143  0.4322
   27MOL   N276 9168   0.656   3.712   0.646 -0.0530 -0.4858 -0.0896
   27MOL   C277 9169   0.795   3.761   0.664 -0.0045  0.3786 -0.2034
   27MOL   C278 9170   0.785   3.905   0.722  0.9246 -0.2444  0.7420
   27MOL   C279 9171   0.645   3.900   0.786 -0.1068 -0.2423 -0.4191
   27MOL   C280 9172   0.572   3.780   0.727 -0.6177  0.1505  0.3510
   27MOL   O281 9173   0.450   3.770   0.744 -0.0488 -0.7101  0.1082
   27MOL   H282 9174   0.456   3.710   0.483  0.9496  1.3980  2.0433
   27MOL   H283 9175   0.616   3.759   0.418  0.8632 -1.3745 -1.0947
   27MOL   H284 9176   0.714   3.558   0.510 -0.2073  0.2110  0.5114
   27MOL   H285 9177   0.841   3.704   0.745 -1.1685  1.2537  1.0896
   27MOL   H286 9178   0.860   3.759   0.577  1.6689 -0.0429  1.0316
   27MOL   H287 9179   0.875   3.924   0.781  1.7786  2.1358 -1.2745
   27MOL   H288 9180   0.772   3.976   0.641 -4.6729 -3.1613 -1.1888
   27MOL   H289 9181   0.669   3.895   0.892  1.0789  0.0672 -0.6699
   27MOL   H290 9182   0.584   3.989   0.769 -0.0905  0.4184  2.6742
   27MOL   C291 9183   0.537   3.490   0.617  0.1295 -0.3084 -0.6098
   27MOL   C292 9184   0.598   3.426   0.742  0.0696  0.1032 -0.3654
   27MOL   N293 9185   0.497   3.360   0.823 -0.2652  0.7055 -0.7153
   27MOL   C294 9186   0.441   3.418   0.953  0.9109 -0.4478 -0.4284
   27MOL   C295 9187   0.371   3.305   1.021  0.3630 -0.3794 -0.0513
   27MOL   C296 9188   0.334   3.214   0.910 -0.1252 -0.1862 -0.3561
   27MOL   C297 9189   0.428   3.251   0.790 -0.4557 -0.1711  0.0366
   27MOL   O298 9190   0.428   3.189   0.687  0.0053 -0.1469  0.4717
   27MOL   H299 9191   0.532   3.415   0.538 -0.0978  0.2614 -1.1365
   27MOL   H300 9192   0.442   3.529   0.652 -0.2360 -2.0287  0.4052
   27MOL   H301 9193   0.633   3.506   0.808  2.3004 -0.5987 -0.6464
   27MOL   H302 9194   0.528   3.456   1.007  0.5927 -0.3468  0.0097
   27MOL   H303 9195   0.374   3.502   0.932  2.7002  0.6729 -1.8524
   27MOL   H304 9196   0.447   3.263   1.087  0.3359  1.3550  1.1384
   27MOL   H305 9197   0.289   3.344   1.081 -1.2147 -1.1933 -1.6305
   27MOL   H306 9198   0.347   3.107   0.931  0.6184 -0.0003  0.1782
   27MOL   H307 9199   0.227   3.215   0.890 -0.0824 -0.3671 -0.5963
   27MOL   C308 9200   0.714   3.334   0.700 -0.1289  0.4781 -0.4624
   27MOL   C309 9201   0.796   3.276   0.811  0.1925  0.1222  0.3918
   27MOL   N310 9202   0.882   3.176   0.752  0.3622  0.5883 -0.6745
   27MOL   C311 9203   0.891   3.044   0.814 -0.3375 -0.9986  0.4251
   27MOL   C312 9204   1.010   2.967   0.733 -0.4922  0.2406  0.5372
   27MOL   C313 9205   1.048   3.056   0.621  0.4099 -0.5235  0.4222
   27MOL   C314 9206   0.973   3.191   0.652  0.1049 -0.4721 -0.3189
   27MOL   O315 9207   0.989   3.286   0.581 -0.6288  0.1088 -0.0779
   27MOL   H316 9208   0.778   3.387   0.630 -0.0034  0.7963 -0.1106
   27MOL   H317 9209   0.673   3.248   0.648 -1.3139  0.8162 -0.0940
   27MOL   H318 9210   0.733   3.223   0.882 -1.1186  0.1076 -0.7756
   27MOL   H319 9211   0.913   3.060   0.919 -1.7709  2.5880  0.2282
   27MOL   H320 9212   0.803   2.981   0.814  0.4193 -2.1260  3.1452
   27MOL   H321 9213   1.089   2.931   0.799  1.4405 -2.4670 -3.0534
   27MOL   H322 9214   0.974   2.871   0.696  0.4589  0.4586 -0.9814
   27MOL   H323 9215   1.156   3.072   0.626  0.2914  0.6630 -0.4094
   27MOL   H324 9216   1.022   3.026   0.519  0.2131  2.0405 -0.3213
   27MOL   C325 9217   0.871   3.384   0.893  0.5316  0.2538  0.1110
   27MOL   C326 9218   0.913   3.335   1.033 -0.2295  0.3438 -0.1956
   27MOL   N327 9219   0.815   3.371   1.133 -0.2838 -0.2312  0.4633
   27MOL   C328 9220   0.832   3.499   1.205  0.2378  0.3051  0.2306
   27MOL   C329 9221   0.704   3.514   1.286  0.4685  0.0524 -0.3311
   27MOL   C330 9222   0.634   3.375   1.293  0.3774 -0.0013  0.5585
   27MOL   C331 9223   0.709   3.306   1.179 -0.0355  0.1842 -0.9318
   27MOL   O332 9224   0.668   3.197   1.138 -0.1104 -0.1365  0.2694
   27MOL   H333 9225   0.834   3.486   0.897  0.9912  0.3529  2.8271
   27MOL   H334 9226   0.955   3.401   0.825  0.5517 -3.0336 -0.7875
   27MOL   H335 9227   1.014   3.371   1.054  0.0590  1.2925 -2.9849
   27MOL   H336 9228   0.923   3.504   1.264  1.0794 -1.8580 -0.8353
   27MOL   H337 9229   0.832   3.586   1.139 -1.7429 -1.8976 -2.8583
   27MOL   H338 9230   0.730   3.556   1.383  1.3661  0.4669 -0.7505
   27MOL   H339 9231   0.639   3.583   1.232 -0.7560 -1.1403 -0.4308
   27MOL   H340 9232   0.653   3.309   1.378  0.1907 -0.7750  0.0086
   27MOL   H341 9233   0.528   3.382   1.270  0.3023 -1.3427  0.4053
   27MOL   H342 9234   0.932   3.228   1.043 -0.5965  0.3755  0.8582
   28MOL     C1 9235   5.244   4.880   1.346 -0.5780  0.5222 -0.0912
   28MOL     C2 9236   5.103   4.943   1.325  0.0108  0.7001  0.1973
   28MOL     N3 9237   5.063   5.035   1.427  0.9470 -0.2831  0.2094
   28MOL     C4 9238   4.942   5.003   1.503 -0.6389  0.1064  0.6646
   28MOL     C5 9239   4.919   5.132   1.587 -0.7768  0.3842  0.1023
   28MOL     C6 9240   5.050   5.219   1.576 -0.4564  0.3093 -0.3730
   28MOL     C7 9241   5.119   5.156   1.454  0.5003 -0.2053  0.5849
   28MOL     O8 9242   5.228   5.209   1.404  0.1047 -0.5676 -0.3225
   28MOL     H9 9243   5.327   4.947   1.323  0.9305 -1.4279 -0.4823
   28MOL    H10 9244   5.247   4.858   1.452  1.4459  0.0174 -0.2244
   28MOL    H11 9245   5.039   4.855   1.324  0.7262  0.1713 -0.2547
   28MOL    H12 9246   4.872   4.979   1.423  0.5117  1.3835 -0.7630
   28MOL    H13 9247   4.968   4.922   1.571 -0.7411 -1.4493 -1.1031
   28MOL    H14 9248   4.823   5.180   1.564  0.3212  1.1958 -3.0708
   28MOL    H15 9249   4.904   5.101   1.690 -0.9536  1.2675  0.3466
   28MOL    H16 9250   5.025   5.324   1.563 -1.1174  0.1519 -0.4366
   28MOL    H17 9251   5.118   5.208   1.660  0.7662  0.2203 -1.3626
   28MOL    H18 9252   5.253   4.779   1.304 -0.9283  0.6201 -0.4062
   28MOL    C19 9253   5.084   5.011   1.185 -0.6110  0.3672  0.7703
   28MOL    C20 9254   5.116   4.920   1.059  0.2735 -0.2084  1.0164
   28MOL    N21 9255   5.024   4.808   1.030  0.2868 -0.0024 -0.1748
   28MOL    C22 9256   5.075   4.689   0.970 -0.6178 -0.9539  0.5140
   28MOL    C23 9257   4.947   4.605   0.933  0.4983 -0.0710 -0.6568
   28MOL    C24 9258   4.836   4.660   1.018 -0.5839 -0.5175 -0.4201
   28MOL    C25 9259   4.889   4.801   1.045 -0.0047 -0.2025 -0.7066
   28MOL    O26 9260   4.810   4.889   1.082 -0.0517 -0.1836  0.1929
   28MOL    H27 9261   5.151   5.096   1.181  1.6728 -1.3428  1.4956
   28MOL    H28 9262   4.980   5.041   1.188 -0.1786  2.1994 -1.3768
   28MOL    H29 9263   5.216   4.879   1.074  0.3691  0.1981  1.4699
   28MOL    H30 9264   5.137   4.713   0.884 -0.6433 -0.9581  0.4946
   28MOL    H31 9265   5.136   4.633   1.041  1.1215  1.1490  0.7087
   28MOL    H32 9266   4.919   4.620   0.828  0.2282  1.1606 -0.4196
   28MOL    H33 9267   4.961   4.499   0.952 -4.1770 -0.4005  1.4435
   28MOL    H34 9268   4.739   4.659   0.969 -1.7773 -0.6904  1.9064
   28MOL    H35 9269   4.829   4.617   1.118 -0.3033 -0.4216 -0.3582
   28MOL    C36 9270   5.125   5.002   0.925 -0.5459  0.8885 -0.5236
   28MOL    C37 9271   5.241   5.101   0.915  0.4170 -0.3623  0.4154
   28MOL    N38 9272   5.370   5.037   0.954  0.1178 -0.4983 -0.0978
   28MOL    C39 9273   5.452   5.103   1.059 -0.4551  0.2317 -0.4538
   28MOL    C40 9274   5.583   5.020   1.068  0.6196  0.4243  0.2931
   28MOL    C41 9275   5.589   4.947   0.934  0.0001  0.1338 -0.4101
   28MOL    C42 9276   5.445   4.943   0.885 -0.4599  0.1523  0.0088
   28MOL    O43 9277   5.409   4.862   0.795  0.1036 -0.2247 -0.5703
   28MOL    H44 9278   5.026   5.046   0.912 -0.5113  0.4821 -2.3426
   28MOL    H45 9279   5.145   4.927   0.848 -0.4480  0.7827 -0.3955
   28MOL    H46 9280   5.220   5.185   0.979  0.7631  0.0289  0.0249
   28MOL    H47 9281   5.459   5.207   1.027 -1.3628 -0.2132 -2.1756
   28MOL    H48 9282   5.406   5.102   1.158  0.7109  1.8745  0.1238
   28MOL    H49 9283   5.672   5.080   1.083  0.6002  0.6546 -0.4860
   28MOL    H50 9284   5.566   4.957   1.156 -0.2969 -0.3838 -0.4549
   28MOL    H51 9285   5.645   4.999   0.856 -0.9091  1.7466 -0.0180
   28MOL    H52 9286   5.624   4.845   0.943 -1.0767 -0.2740 -0.6920
   28MOL    C53 9287   5.252   5.153   0.771 -0.0148 -1.0563 -0.1094
   28MOL    C54 9288   5.327   5.282   0.747 -0.5123 -0.4978  0.1014
   28MOL    N55 9289   5.403   5.269   0.620 -0.1027 -0.1175  0.0216
   28MOL    C56 9290   5.337   5.230   0.497  0.3260  0.4265  0.0398
   28MOL    C57 9291   5.444   5.272   0.391  0.5332  0.1411 -0.5764
   28MOL    C58 9292   5.581   5.272   0.463 -0.0234  0.0375  0.3196
   28MOL    C59 9293   5.538   5.271   0.610 -0.0323  0.2140  0.4491
   28MOL    O60 9294   5.626   5.288   0.694  0.4774  0.2805  0.2563
   28MOL    H61 9295   5.154   5.169   0.728  0.7417  3.5330 -0.3987
   28MOL    H62 9296   5.280   5.067   0.710  2.1673 -1.0331  0.7850
   28MOL    H63 9297   5.403   5.283   0.824 -1.4833 -0.1455  1.0798
   28MOL    H64 9298   5.318   5.123   0.494 -1.4253  0.7111  0.4798
   28MOL    H65 9299   5.242   5.281   0.481 -0.5836 -1.3177 -0.2146
   28MOL    H66 9300   5.434   5.210   0.302 -1.4234  1.3579 -1.2519
   28MOL    H67 9301   5.423   5.363   0.334 -0.7838  0.8891  1.0718
   28MOL    H68 9302   5.642   5.190   0.427 -1.1712  0.3734 -2.5236
   28MOL    H69 9303   5.636   5.364   0.444  1.1591 -1.1180 -2.0198
   28MOL    C70 9304   5.233   5.400   0.746  0.0413 -0.1824  0.1371
   28MOL    C71 9305   5.305   5.534   0.785  0.0228 -0.2841  0.8180
   28MOL    N72 9306   5.411   5.577   0.691 -0.0964  0.5073 -0.6147
   28MOL    C73 9307   5.548   5.603   0.740 -0.4774  1.1301  0.1537
   28MOL    C74 9308   5.630   5.637   0.616  0.1027  0.4017 -0.3877
   28MOL    C75 9309   5.531   5.650   0.500 -0.6018 -0.1682 -0.3086
   28MOL    C76 9310   5.400   5.597   0.558 -0.3660 -0.2033  0.4063
   28MOL    O77 9311   5.298   5.576   0.492  0.1132 -0.3495 -0.0102
   28MOL    H78 9312   5.151   5.385   0.817  1.5653 -2.7421  1.4369
   28MOL    H79 9313   5.188   5.419   0.649 -1.1473 -0.7277  0.5768
   28MOL    H80 9314   5.366   5.522   0.874 -1.8204 -3.6899  1.6818
   28MOL    H81 9315   5.546   5.686   0.811 -2.0440 -0.0915  1.5660
   28MOL    H82 9316   5.603   5.532   0.803  1.3535  1.8452 -0.5892
   28MOL    H83 9317   5.684   5.727   0.645  1.5218 -0.6475  0.3064
   28MOL    H84 9318   5.700   5.555   0.599 -2.6474 -2.1602  0.1981
   28MOL    H85 9319   5.517   5.754   0.472 -2.4061 -1.4456 -4.6078
   28MOL    H86 9320   5.562   5.601   0.408 -2.0459 -2.7950  0.5498
   28MOL    C87 9321   5.213   5.656   0.793 -0.7359  0.3572 -0.0647
   28MOL    C88 9322   5.099   5.660   0.892  0.5379 -0.1520 -0.3113
   28MOL    N89 9323   5.148   5.644   1.033  0.2041 -0.3025 -0.3057
   28MOL    C90 9324   5.116   5.515   1.098  1.0328 -0.4142  0.1228
   28MOL    C91 9325   5.174   5.529   1.234 -0.2679 -0.2122  0.3914
   28MOL    C92 9326   5.254   5.659   1.243 -0.8227  0.8806  0.0377
   28MOL    C93 9327   5.216   5.730   1.110  0.1040 -0.2984  0.2093
   28MOL    O94 9328   5.254   5.840   1.072  0.5626 -0.2248 -0.3244
   28MOL    H95 9329   5.171   5.692   0.699 -0.8343 -0.5639 -0.3768
   28MOL    H96 9330   5.274   5.743   0.817 -1.3941  0.9905 -0.6635
   28MOL    H97 9331   5.033   5.577   0.869  1.6411 -1.3975  0.9030
   28MOL    H98 9332   5.009   5.504   1.112  0.7829  3.4804  1.8453
   28MOL    H99 9333   5.164   5.430   1.048  1.1928  0.4320 -1.1792
   28MOL   H100 9334   5.101   5.533   1.314 -2.3229 -0.3311 -1.4467
   28MOL   H101 9335   5.241   5.445   1.254  0.9729  0.2940 -1.4639
   28MOL   H102 9336   5.227   5.722   1.328  1.0545 -0.0765  1.3907
   28MOL   H103 9337   5.361   5.639   1.233 -0.8890  0.2687  0.5044
   28MOL   C104 9338   5.018   5.792   0.878  0.1990  0.0624  0.1662
   28MOL   C105 9339   4.930   5.810   0.755  0.6389  0.3670  0.5446
   28MOL   N106 9340   4.830   5.708   0.752  0.8145  0.2990  0.1550
   28MOL   C107 9341   4.841   5.596   0.667  0.5968  0.9249 -0.5306
   28MOL   C108 9342   4.747   5.483   0.706 -0.1281 -0.2237 -0.2949
   28MOL   C109 9343   4.656   5.554   0.808 -0.4336 -0.1884  0.2030
   28MOL   C110 9344   4.723   5.691   0.830  0.6741  0.4315 -0.6901
   28MOL   O111 9345   4.679   5.768   0.919  0.8859  0.2711 -0.0929
   28MOL   H112 9346   5.089   5.874   0.886  1.3841 -0.6188 -2.8540
   28MOL   H113 9347   4.961   5.798   0.971 -1.7346  0.7105 -1.0565
   28MOL   H114 9348   4.989   5.798   0.664  0.3099 -0.1280  0.3952
   28MOL   H115 9349   4.797   5.628   0.572  0.9870  0.4165 -0.8850
   28MOL   H116 9350   4.940   5.556   0.644 -0.2098 -1.2640 -0.3309
   28MOL   H117 9351   4.693   5.430   0.628 -0.0831 -1.4909  0.5141
   28MOL   H118 9352   4.795   5.405   0.766 -0.1922 -1.1494 -1.4307
   28MOL   H119 9353   4.642   5.499   0.902  0.6363  0.0287  0.4983
   28MOL   H120 9354   4.559   5.570   0.761  0.5208  1.6507 -1.1775
   28MOL   C121 9355   4.876   5.958   0.737 -0.9784  0.0956 -0.3311
   28MOL   C122 9356   4.972   6.062   0.670 -0.2719  0.2994  0.3243
   28MOL   N123 9357   5.040   6.008   0.550 -0.1669  0.0609 -0.1409
   28MOL   C124 9358   5.186   6.000   0.541 -0.6473  0.5119 -0.4613
   28MOL   C125 9359   5.221   5.917   0.411 -0.3184  0.8430  0.1330
   28MOL   C126 9360   5.081   5.883   0.353 -0.0771 -0.0226  0.0268
   28MOL   C127 9361   4.982   5.948   0.450 -0.3724  0.0769  0.8224
   28MOL   O128 9362   4.865   5.935   0.425  0.2452 -0.2913 -0.1948
   28MOL   H129 9363   4.858   6.005   0.834 -1.0487 -2.1991  0.7829
   28MOL   H130 9364   4.782   5.965   0.683 -0.0788  0.5231 -1.8621
   28MOL   H131 9365   5.049   6.090   0.742 -1.3649  0.6545  1.3838
   28MOL   H132 9366   5.214   5.941   0.628 -0.6655 -1.1918 -1.5930
   28MOL   H133 9367   5.231   6.100   0.542  1.1563 -0.2842 -0.4015
   28MOL   H134 9368   5.291   5.974   0.350 -0.4625  1.6435  0.6923
   28MOL   H135 9369   5.272   5.824   0.431 -0.4777  0.3829 -1.5456
   28MOL   H136 9370   5.060   5.927   0.256 -1.7312  0.3845  0.5500
   28MOL   H137 9371   5.058   5.778   0.338 -0.4687 -0.4304  3.0498
   28MOL   C138 9372   4.894   6.193   0.656  0.6277 -0.0944 -0.0110
   28MOL   C139 9373   4.976   6.320   0.678  0.0924  0.1556 -0.0301
   28MOL   N140 9374   4.919   6.449   0.624  1.2374  0.1444 -0.4266
   28MOL   C141 9375   5.009   6.560   0.602  0.0846 -0.1071  0.4126
   28MOL   C142 9376   4.918   6.677   0.564  0.0185  0.1822 -0.5152
   28MOL   C143 9377   4.775   6.633   0.597  0.1730 -0.9073 -0.1696
   28MOL   C144 9378   4.795   6.483   0.616  0.7526  0.2932 -0.0524
   28MOL   O145 9379   4.692   6.412   0.618 -0.0615 -0.6016  0.1981
   28MOL   H146 9380   4.808   6.196   0.723  0.4539  0.0549 -0.2396
   28MOL   H147 9381   4.840   6.174   0.563  2.0064 -2.4846 -0.3708
   28MOL   H148 9382   5.070   6.305   0.624  1.0824 -1.6879  2.1016
   28MOL   H149 9383   5.063   6.583   0.694  0.6225 -0.9656  0.3138
   28MOL   H150 9384   5.083   6.534   0.526 -1.6204 -1.2235 -0.9086
   28MOL   H151 9385   4.944   6.770   0.614 -2.6613  0.1779  1.0262
   28MOL   H152 9386   4.921   6.691   0.456  1.7773 -3.1756 -0.9456
   28MOL   H153 9387   4.703   6.657   0.519  0.4295 -0.9395 -0.4167
   28MOL   H154 9388   4.731   6.665   0.692 -0.7517 -0.5508 -0.7095
   28MOL   C155 9389   5.015   6.352   0.824 -0.1686  0.2452  0.2855
   28MOL   C156 9390   5.172   6.377   0.842  0.0714 -0.3375  0.3944
   28MOL   N157 9391   5.188   6.455   0.965  0.3154  0.1422  0.2094
   28MOL   C158 9392   5.221   6.601   0.963  0.8631 -0.0356 -0.8543
   28MOL   C159 9393   5.257   6.638   1.107  0.0707  0.2997 -0.7049
   28MOL   C160 9394   5.196   6.526   1.194 -0.2351  0.3623 -0.1033
   28MOL   C161 9395   5.162   6.418   1.092  0.1815 -0.1044  0.4589
   28MOL   O162 9396   5.129   6.309   1.132 -0.3408  0.0472  0.1983
   28MOL   H163 9397   4.979   6.274   0.892  0.1184  1.7985  2.2723
   28MOL   H164 9398   4.964   6.444   0.853 -0.1651  0.5114 -0.5590
   28MOL   H165 9399   5.209   6.441   0.762 -0.6823  0.2601  0.5226
   28MOL   H166 9400   5.306   6.624   0.900  0.4399  0.7873 -1.1281
   28MOL   H167 9401   5.134   6.654   0.925  1.2922  0.9274 -0.4944
   28MOL   H168 9402   5.365   6.635   1.122 -0.1889  1.1210  1.3920
   28MOL   H169 9403   5.229   6.738   1.140  1.2176  0.2307  0.4996
   28MOL   H170 9404   5.261   6.480   1.269 -0.0231 -0.1583 -0.6099
   28MOL   H171 9405   5.100   6.560   1.232 -1.9848  0.0195 -3.9846
   28MOL   C172 9406   5.260   6.255   0.843 -0.4535  0.3170 -0.0424
   28MOL   C173 9407   5.411   6.265   0.889 -0.2542  0.0241 -0.7330
   28MOL   N174 9408   5.463   6.145   0.945  0.3757 -0.1514  0.4078
   28MOL   C175 9409   5.489   6.129   1.088 -0.5748 -0.1793  0.2511
   28MOL   C176 9410   5.546   5.988   1.105 -0.1497  0.2936 -0.6754
   28MOL   C177 9411   5.545   5.926   0.970 -0.1157  0.5634 -0.4808
   28MOL   C178 9412   5.487   6.024   0.880  0.2622 -0.6354  1.0454
   28MOL   O179 9413   5.458   5.998   0.763 -0.0566  0.0164 -0.2192
   28MOL   H180 9414   5.269   6.227   0.737 -2.4296 -1.5307  0.2421
   28MOL   H181 9415   5.205   6.171   0.886 -0.2080  0.8958  1.3995
   28MOL   H182 9416   5.402   6.338   0.970 -0.0625 -1.7168  0.8884
   28MOL   H183 9417   5.555   6.209   1.120 -3.2141  1.7398  1.1352
   28MOL   H184 9418   5.398   6.142   1.147 -0.0545 -1.2790  1.3080
   28MOL   H185 9419   5.485   5.927   1.172 -0.5903  0.7136 -0.6924
   28MOL   H186 9420   5.645   5.988   1.151  0.1589 -1.9583 -1.2793
   28MOL   H187 9421   5.641   5.906   0.923 -0.6050  1.6898 -2.0063
   28MOL   H188 9422   5.485   5.835   0.979  1.7174 -0.6686 -0.4345
   28MOL   C189 9423   5.507   6.326   0.783 -0.0908  0.1451 -0.9738
   28MOL   C190 9424   5.604   6.430   0.832  0.4124  0.1157  0.5552
   28MOL   N191 9425   5.688   6.387   0.947 -0.5680 -0.3756 -0.4090
   28MOL   C192 9426   5.681   6.462   1.072 -0.1464  0.1631  0.8213
   28MOL   C193 9427   5.777   6.392   1.177 -0.1712 -0.1503 -0.2019
   28MOL   C194 9428   5.859   6.298   1.088  0.1911 -0.1937 -0.0389
   28MOL   C195 9429   5.787   6.296   0.956 -0.4962  0.1033 -0.2974
   28MOL   O196 9430   5.833   6.233   0.863  0.0236 -0.3912  0.5154
   28MOL   H197 9431   5.443   6.362   0.703 -0.1315  0.4104 -0.8234
   28MOL   H198 9432   5.567   6.256   0.725 -0.4723 -0.1484 -1.0169
   28MOL   H199 9433   5.556   6.521   0.865 -0.5042  0.5161 -1.7731
   28MOL   H200 9434   5.718   6.562   1.047 -0.8061  0.0812 -0.4941
   28MOL   H201 9435   5.582   6.471   1.118 -0.3627  0.6742  0.2553
   28MOL   H202 9436   5.841   6.458   1.235  2.1691 -1.7488 -0.9363
   28MOL   H203 9437   5.723   6.333   1.251 -1.8010  1.9830  0.3685
   28MOL   H204 9438   5.961   6.327   1.063 -0.0055 -0.3790 -1.0653
   28MOL   H205 9439   5.858   6.195   1.126 -0.0586 -1.2230 -2.7271
   28MOL   C206 9440   5.689   6.475   0.718  0.1592 -0.1384  0.0749
   28MOL   C207 9441   5.632   6.550   0.597 -0.3543  0.2163 -0.1837
   28MOL   N208 9442   5.539   6.663   0.626 -0.4906  0.1659  0.3161
   28MOL   C209 9443   5.399   6.653   0.584 -0.3341 -0.1866 -0.2341
   28MOL   C210 9444   5.324   6.784   0.628 -0.1471 -0.4535  0.1630
   28MOL   C211 9445   5.422   6.848   0.728  0.2503 -0.0802 -0.1009
   28MOL   C212 9446   5.554   6.773   0.705 -0.9230 -0.0063  0.5865
   28MOL   O213 9447   5.659   6.801   0.759  0.4135 -0.1719  0.2194
   28MOL   H214 9448   5.743   6.386   0.687  0.4249  0.3314 -0.8259
   28MOL   H215 9449   5.761   6.537   0.771 -0.1597  0.0569  0.2853
   28MOL   H216 9450   5.571   6.475   0.546  2.7288 -0.9232 -2.3188
   28MOL   H217 9451   5.388   6.632   0.478 -2.2384 -1.1429  0.1306
   28MOL   H218 9452   5.351   6.572   0.638  1.8749 -1.8426 -0.6909
   28MOL   H219 9453   5.313   6.853   0.544  3.7445  1.9652  1.5346
   28MOL   H220 9454   5.230   6.759   0.679 -0.1974  0.0444  0.3143
   28MOL   H221 9455   5.443   6.954   0.713  1.4578 -0.4556 -1.1572
   28MOL   H222 9456   5.376   6.842   0.826  0.4964 -0.7788 -0.0315
   28MOL   C223 9457   5.746   6.592   0.492  0.0051  0.6701 -0.3227
   28MOL   C224 9458   5.881   6.646   0.553 -0.2966  0.5940 -0.3440
   28MOL   N225 9459   5.971   6.535   0.594 -0.3206 -0.2396  0.0479
   28MOL   C226 9460   6.012   6.424   0.500  0.1262 -0.3431  0.0333
   28MOL   C227 9461   6.118   6.344   0.586  0.4646  0.0546 -0.1951
   28MOL   C228 9462   6.135   6.420   0.719 -0.1509 -0.0641  0.6902
   28MOL   C229 9463   6.029   6.527   0.716 -0.3453 -0.1396  0.1233
   28MOL   O230 9464   6.010   6.600   0.812 -0.1827  0.1279  0.3794
   28MOL   H231 9465   5.710   6.663   0.417  1.2082  0.2620 -1.3202
   28MOL   H232 9466   5.768   6.512   0.421 -0.3639 -0.4979  0.8822
   28MOL   H233 9467   5.850   6.704   0.639  0.6831  1.8324 -0.8033
   28MOL   H234 9468   5.934   6.352   0.474 -0.4884 -0.0190  0.9418
   28MOL   H235 9469   6.044   6.471   0.407 -3.1023  3.3126  0.6568
   28MOL   H236 9470   6.081   6.243   0.606  2.1683 -0.6496 -0.4731
   28MOL   H237 9471   6.208   6.320   0.528  1.1616 -1.4748  1.4632
   28MOL   H238 9472   6.133   6.347   0.800 -0.9255  0.5811  1.2553
   28MOL   H239 9473   6.234   6.466   0.712  0.3388 -1.1199  0.4162
   28MOL   C240 9474   5.943   6.749   0.455  0.2419  0.3785 -0.5673
   28MOL   C241 9475   6.077   6.807   0.507 -0.4097  0.2504  0.1064
   28MOL   N242 9476   6.195   6.786   0.423  0.8589  0.0077 -0.2727
   28MOL   C243 9477   6.321   6.778   0.499  0.6278  0.2658  0.5404
   28MOL   C244 9478   6.430   6.754   0.388 -0.5311  0.1531 -0.4211
   28MOL   C245 9479   6.356   6.779   0.259 -0.6629  0.2284  0.2623
   28MOL   C246 9480   6.212   6.809   0.295 -0.1824 -0.5236 -0.0953
   28MOL   O247 9481   6.131   6.843   0.208  0.3707  0.1709  0.1926
   28MOL   H248 9482   5.875   6.832   0.440 -0.7368 -0.1069  1.1179
   28MOL   H249 9483   5.945   6.702   0.356 -0.3852 -0.8802  0.0076
   28MOL   H250 9484   6.085   6.756   0.602  0.7770  0.5382  0.1765
   28MOL   H251 9485   6.347   6.871   0.550  5.4227 -0.9277  0.5745
   28MOL   H252 9486   6.313   6.697   0.572  1.2562 -0.0267  0.2948
   28MOL   H253 9487   6.519   6.816   0.391  0.4055 -1.2292  3.2837
   28MOL   H254 9488   6.469   6.652   0.389 -1.3325 -0.1594  1.1583
   28MOL   H255 9489   6.391   6.868   0.207 -3.0423  0.9733 -0.1265
   28MOL   H256 9490   6.347   6.685   0.203 -0.9863 -1.0306  2.3766
   28MOL   C257 9491   6.061   6.961   0.527  0.0534 -0.2777 -0.6672
   28MOL   C258 9492   5.982   7.032   0.642  0.1061  0.4237  0.0658
   28MOL   N259 9493   6.048   6.998   0.777 -0.0535 -0.3769  0.6585
   28MOL   C260 9494   5.967   6.939   0.884  0.2731  0.0636  0.3715
   28MOL   C261 9495   6.073   6.920   1.005 -0.2576  0.2996  0.0010
   28MOL   C262 9496   6.206   6.966   0.959 -0.6814  0.0162  0.2303
   28MOL   C263 9497   6.175   7.025   0.822  0.5146  0.4958  0.5401
   28MOL   O264 9498   6.255   7.090   0.754  0.2442  0.1913  0.1203
   28MOL   H265 9499   6.014   6.991   0.434 -0.3290  1.2088 -0.0188
   28MOL   H266 9500   6.159   7.008   0.512  1.2108 -2.6122 -0.6087
   28MOL   H267 9501   5.887   6.980   0.638  1.3953 -2.1837  1.5927
   28MOL   H268 9502   5.886   7.003   0.916 -0.9475 -0.8227 -0.8510
   28MOL   H269 9503   5.945   6.836   0.855  1.6367 -0.2120  0.2650
   28MOL   H270 9504   6.050   6.987   1.088  0.6814  0.0086  0.5098
   28MOL   H271 9505   6.072   6.819   1.046 -0.3009 -0.4561 -1.8542
   28MOL   H272 9506   6.248   7.043   1.023  1.4155 -0.7106 -0.2390
   28MOL   H273 9507   6.286   6.894   0.942  0.0494  0.8050  0.2879
   28MOL   C274 9508   5.947   7.180   0.632 -0.5237  0.1233  0.2678
   28MOL   C275 9509   5.891   7.214   0.488  0.6944 -0.7649 -0.8777
   28MOL   N276 9510   5.757   7.159   0.459 -0.5135  0.0253  0.2448
   28MOL   C277 9511   5.719   7.094   0.328 -0.3016 -0.1409 -0.7205
   28MOL   C278 9512   5.570   7.039   0.347  0.1964 -0.1465  0.2316
   28MOL   C279 9513   5.518   7.126   0.462 -0.4953 -0.0484 -0.7722
   28MOL   C280 9514   5.644   7.176   0.533 -0.2562  0.7981 -0.1622
   28MOL   O281 9515   5.638   7.222   0.645  0.0669  0.1930 -0.0895
   28MOL   H282 9516   6.036   7.242   0.638 -0.6637  0.6759 -2.5446
   28MOL   H283 9517   5.877   7.209   0.711  1.3214 -0.2003  2.0620
   28MOL   H284 9518   5.954   7.171   0.410  1.4034  0.1177 -0.7924
   28MOL   H285 9519   5.708   7.167   0.247  1.8781  1.6704  0.5435
   28MOL   H286 9520   5.793   7.017   0.306 -1.3278 -1.4098  0.1489
   28MOL   H287 9521   5.511   7.048   0.256 -2.0771  1.5486  1.8199
   28MOL   H288 9522   5.564   6.937   0.385  1.8398  0.5145  2.3778
   28MOL   H289 9523   5.467   7.216   0.427  0.1569  0.2428 -0.9772
   28MOL   H290 9524   5.444   7.073   0.523 -0.6689  1.1234  0.0493
   28MOL   C291 9525   5.900   7.365   0.454 -0.9706 -0.0303  0.0296
   28MOL   C292 9526   6.041   7.435   0.436  0.3775  0.3225 -0.8758
   28MOL   N293 9527   6.133   7.359   0.345 -0.1327 -0.4345 -0.1149
   28MOL   C294 9528   6.260   7.313   0.397 -0.5807 -0.3948  0.5253
   28MOL   C295 9529   6.315   7.220   0.286 -0.0569 -0.1586  0.5015
   28MOL   C296 9530   6.212   7.230   0.167 -0.0942  0.4626 -0.4187
   28MOL   C297 9531   6.103   7.313   0.224 -0.2376  0.1448  0.1374
   28MOL   O298 9532   5.997   7.323   0.169 -0.0038  0.1416 -0.7932
   28MOL   H299 9533   5.847   7.417   0.534  0.3791  0.6249  0.5140
   28MOL   H300 9534   5.842   7.400   0.369  0.5413  0.5582 -0.7861
   28MOL   H301 9535   6.090   7.428   0.533 -2.3979  1.6319  0.6972
   28MOL   H302 9536   6.334   7.392   0.409 -0.7022 -0.1366 -0.4035
   28MOL   H303 9537   6.244   7.270   0.496 -2.2555 -2.2667 -0.5255
   28MOL   H304 9538   6.413   7.245   0.246  0.4978 -0.7576  1.4631
   28MOL   H305 9539   6.318   7.120   0.327  0.2528 -0.2111  0.3573
   28MOL   H306 9540   6.241   7.291   0.081  0.8256  0.8057  0.1363
   28MOL   H307 9541   6.175   7.130   0.141 -0.5153 -0.3484  3.1441
   28MOL   C308 9542   6.037   7.575   0.401  0.4858  0.3528  0.2587
   28MOL   C309 9543   6.013   7.680   0.518  0.6158 -0.5041 -0.1769
   28MOL   N310 9544   6.087   7.652   0.637 -0.6011  0.5610 -0.4450
   28MOL   C311 9545   6.015   7.619   0.756  0.5305  0.5352 -0.1821
   28MOL   C312 9546   6.120   7.628   0.872 -0.1084 -0.4082  0.0999
   28MOL   C313 9547   6.255   7.617   0.807  0.2486  0.6746  0.6503
   28MOL   C314 9548   6.222   7.651   0.662 -0.1657 -0.2352  0.1445
   28MOL   O315 9549   6.318   7.666   0.582 -0.0916  0.3215  0.3370
   28MOL   H316 9550   5.965   7.595   0.321 -1.4714 -2.6574  1.1951
   28MOL   H317 9551   6.131   7.601   0.353  0.7072 -0.0432  0.4797
   28MOL   H318 9552   5.906   7.679   0.540  0.1950 -0.8917 -2.1940
   28MOL   H319 9553   5.933   7.689   0.772  1.5441  1.8141 -0.4381
   28MOL   H320 9554   5.983   7.517   0.737  1.3416  0.1792  0.3163
   28MOL   H321 9555   6.122   7.727   0.917  0.5231 -0.9187  1.2227
   28MOL   H322 9556   6.100   7.555   0.951  1.0981  1.0382  1.7703
   28MOL   H323 9557   6.325   7.680   0.862 -0.0643  0.5544  1.1865
   28MOL   H324 9558   6.290   7.514   0.807  1.1513  0.9744 -0.2528
   28MOL   C325 9559   6.051   7.832   0.479  0.4073  0.4683 -0.4314
   28MOL   C326 9560   5.958   7.897   0.379 -0.0973 -0.5828 -0.1195
   28MOL   N327 9561   5.996   0.131   0.343 -0.7259 -0.1348 -0.2468
   28MOL   C328 9562   6.124   0.152   0.270 -0.0572  0.1218 -0.0182
   28MOL   C329 9563   6.133   0.303   0.264  0.1624 -0.0374 -0.1547
   28MOL   C330 9564   6.012   0.361   0.336 -0.1136 -0.2612  0.0620
   28MOL   C331 9565   5.931   0.241   0.383  0.1245 -0.1483 -0.3752
   28MOL   O332 9566   5.826   0.256   0.444 -0.3744  0.0234 -0.2945
   28MOL   H333 9567   6.150   7.830   0.432 -0.9401  1.1078 -3.3884
   28MOL   H334 9568   6.048   7.898   0.565 -0.8135  1.3454 -1.1382
   28MOL   H335 9569   5.855   7.888   0.416  0.0832 -1.3250  0.2080
   28MOL   H336 9570   6.214   0.105   0.311 -1.0546  0.0465  2.1411
   28MOL   H337 9571   6.123   0.122   0.165  0.4043 -1.3161  0.3698
   28MOL   H338 9572   6.222   0.337   0.317 -0.0998 -0.6416  0.6799
   28MOL   H339 9573   6.136   0.331   0.159 -1.6875  1.7673  0.2519
   28MOL   H340 9574   6.026   0.433   0.417  1.1206  2.7638 -2.7477
   28MOL   H341 9575   5.957   0.409   0.256 -1.4796 -2.1686 -0.1724
   28MOL   H342 9576   5.949   7.844   0.284 -0.9949  3.1163 -2.2123
   29MOL     C1 9577   5.957   3.131   4.770 -0.0366 -0.6260 -0.0148
   29MOL     C2 9578   5.886   3.261   4.830 -1.7477 -0.1786 -0.0607
   29MOL     N3 9579   5.814   3.336   4.730  0.2446  1.1595  0.6844
   29MOL     C4 9580   5.875   3.452   4.672  0.3775 -0.4545  0.4408
   29MOL     C5 9581   5.787   3.485   4.545 -0.1060 -0.2057 -0.3329
   29MOL     C6 9582   5.662   3.394   4.566  0.9321 -0.8033  0.3512
   29MOL     C7 9583   5.704   3.293   4.669 -0.4091 -0.5636 -0.3159
   29MOL     O8 9584   5.649   3.185   4.689  0.6840 -0.4535 -0.1844
   29MOL     H9 9585   6.019   3.074   4.839 -0.8448 -3.4141 -1.4830
   29MOL    H10 9586   5.877   3.072   4.724 -0.3723  1.7217 -2.5965
   29MOL    H11 9587   5.976   3.321   4.846  0.2822 -3.0326 -0.4496
   29MOL    H12 9588   5.861   3.533   4.743  3.7226  1.3061 -0.8210
   29MOL    H13 9589   5.982   3.441   4.655  0.4046  2.5421 -1.6906
   29MOL    H14 9590   5.763   3.591   4.540 -1.3218 -0.2551  3.1461
   29MOL    H15 9591   5.824   3.448   4.450 -0.2142  0.4917 -0.6506
   29MOL    H16 9592   5.582   3.452   4.612 -0.7743 -3.1919  0.5621
   29MOL    H17 9593   5.626   3.347   4.474 -1.0245 -0.6233  0.9991
   29MOL    H18 9594   6.019   3.156   4.684 -0.3809 -1.8021 -0.6251
   29MOL    C19 9595   5.808   3.217   4.961  0.9712 -0.0906 -0.5153
   29MOL    C20 9596   5.780   3.320   5.070  0.5953  0.1733 -0.4703
   29MOL    N21 9597   5.897   3.336   5.152  0.5343 -0.3379 -0.1861
   29MOL    C22 9598   5.920   3.254   5.277  0.3691 -0.2862 -0.0836
   29MOL    C23 9599   6.057   3.286   5.333 -0.1999  0.3102 -0.2031
   29MOL    C24 9600   6.105   3.398   5.244  0.1359  0.5848 -0.6253
   29MOL    C25 9601   5.999   3.419   5.131  0.1616  0.5246  0.3777
   29MOL    O26 9602   6.011   3.504   5.043 -0.2692 -0.3416 -0.7761
   29MOL    H27 9603   5.849   3.127   5.006 -0.8582 -1.4507 -1.5196
   29MOL    H28 9604   5.706   3.189   4.932  1.1518 -0.3047 -0.9467
   29MOL    H29 9605   5.704   3.278   5.137  2.1978  0.0057  1.2940
   29MOL    H30 9606   5.835   3.274   5.342  0.4537 -0.6504  0.1452
   29MOL    H31 9607   5.919   3.146   5.262 -1.8161 -0.2703 -0.1520
   29MOL    H32 9608   6.060   3.321   5.436 -0.2487  0.0583 -0.1150
   29MOL    H33 9609   6.125   3.201   5.336 -1.1177 -0.4533 -0.5808
   29MOL    H34 9610   6.105   3.490   5.301 -1.6144  0.2024  0.0134
   29MOL    H35 9611   6.207   3.373   5.214  0.0099  0.7533 -1.2050
   29MOL    C36 9612   5.716   3.454   5.028  0.1017 -0.5127  0.0822
   29MOL    C37 9613   5.672   3.553   5.140  0.3595 -0.0644 -0.0247
   29MOL    N38 9614   5.695   3.694   5.088 -0.2024  0.5349 -0.0370
   29MOL    C39 9615   5.801   3.766   5.155 -0.3849 -0.1741 -0.1004
   29MOL    C40 9616   5.801   3.901   5.074  0.8614  0.0922  0.1613
   29MOL    C41 9617   5.693   3.893   4.964 -0.0724 -0.2267 -0.1141
   29MOL    C42 9618   5.633   3.758   4.988 -0.0205  0.1864  0.5510
   29MOL    O43 9619   5.545   3.706   4.922  0.0915  0.3034 -0.0080
   29MOL    H44 9620   5.631   3.430   4.964  0.1714  1.2534 -0.7021
   29MOL    H45 9621   5.783   3.507   4.960 -0.8961  1.7246  0.7685
   29MOL    H46 9622   5.756   3.537   5.208  1.4493  3.3118 -0.4802
   29MOL    H47 9623   5.780   3.779   5.261  2.4559  2.1811  0.2613
   29MOL    H48 9624   5.899   3.721   5.137 -0.5820 -0.3223 -0.8473
   29MOL    H49 9625   5.777   3.990   5.132 -0.3386  2.0813 -3.2478
   29MOL    H50 9626   5.905   3.910   5.044  1.4980  1.5630  2.5776
   29MOL    H51 9627   5.613   3.966   4.979 -1.5226 -2.1622  2.0224
   29MOL    H52 9628   5.740   3.907   4.867  0.8255 -1.3333  0.1464
   29MOL    C53 9629   5.534   3.529   5.185  0.5815 -0.2050  0.3096
   29MOL    C54 9630   5.489   3.622   5.296 -0.2955 -1.1816  0.0555
   29MOL    N55 9631   5.364   3.695   5.266 -0.5203 -0.1997 -0.8663
   29MOL    C56 9632   5.359   3.838   5.294  0.2023 -0.6111 -0.0492
   29MOL    C57 9633   5.214   3.880   5.261  0.5534 -0.2279  0.6522
   29MOL    C58 9634   5.141   3.757   5.207  0.4220  0.5917  0.0174
   29MOL    C59 9635   5.240   3.648   5.235 -0.0855  0.0580  0.4160
   29MOL    O60 9636   5.205   3.528   5.226  0.1477  0.5458  0.3412
   29MOL    H61 9637   5.519   3.427   5.221 -0.5294 -0.5377 -1.0398
   29MOL    H62 9638   5.467   3.529   5.099  0.9220  0.5269  0.0413
   29MOL    H63 9639   5.569   3.694   5.313  0.7022 -2.3258  0.2757
   29MOL    H64 9640   5.390   3.865   5.394  3.3896  1.8249 -1.6079
   29MOL    H65 9641   5.432   3.894   5.235 -0.3954 -1.3313 -1.5023
   29MOL    H66 9642   5.168   3.892   5.359  0.9197 -2.1434  1.0937
   29MOL    H67 9643   5.214   3.968   5.198 -0.6565  1.2916  2.7172
   29MOL    H68 9644   5.044   3.743   5.254  0.2619  1.1184 -0.1583
   29MOL    H69 9645   5.112   3.770   5.103 -3.9059  1.0144  1.2056
   29MOL    C70 9646   5.459   3.561   5.435  0.0623  1.0263  0.1623
   29MOL    C71 9647   5.583   3.497   5.504  0.9322  0.6533 -0.5435
   29MOL    N72 9648   5.690   3.591   5.529  0.3638  0.2321  0.8825
   29MOL    C73 9649   5.834   3.550   5.509  1.1808 -0.8925 -0.2646
   29MOL    C74 9650   5.918   3.672   5.539  0.3998 -0.6919 -0.6335
   29MOL    C75 9651   5.824   3.759   5.613  0.5512  0.1503 -0.0345
   29MOL    C76 9652   5.682   3.705   5.594 -0.2594 -0.3507  0.6135
   29MOL    O77 9653   5.577   3.759   5.641 -0.0794  0.5053  0.1554
   29MOL    H78 9654   5.385   3.482   5.420 -0.8289  1.6228  1.3368
   29MOL    H79 9655   5.399   3.623   5.502 -0.1600 -0.3370  1.2363
   29MOL    H80 9656   5.624   3.416   5.443  0.8515 -0.7854  1.2798
   29MOL    H81 9657   5.845   3.466   5.577  0.0784 -1.0012 -0.2103
   29MOL    H82 9658   5.860   3.521   5.408  0.6693  0.7106 -0.8829
   29MOL    H83 9659   6.005   3.656   5.604 -0.1357  1.2734  0.6283
   29MOL    H84 9660   5.955   3.719   5.448 -0.8250 -0.1231 -0.8509
   29MOL    H85 9661   5.850   3.755   5.719 -3.6689  0.8495  1.1406
   29MOL    H86 9662   5.824   3.859   5.570  0.2597 -0.4272 -1.3908
   29MOL    C87 9663   5.544   3.425   5.629  0.0031  0.5407  0.1491
   29MOL    C88 9664   5.458   3.299   5.601 -0.5773 -0.0183 -0.3537
   29MOL    N89 9665   5.538   3.190   5.541  0.8798  0.1106  0.4060
   29MOL    C90 9666   5.516   3.144   5.411 -0.0731 -0.2648  0.0513
   29MOL    C91 9667   5.612   3.034   5.380  0.2967  0.4373  0.0953
   29MOL    C92 9668   5.705   3.029   5.502 -0.8083  0.3022 -0.0529
   29MOL    C93 9669   5.648   3.137   5.593 -0.0701  0.1772  0.1258
   29MOL    O94 9670   5.698   3.168   5.704  0.1399  0.5233  0.1943
   29MOL    H95 9671   5.486   3.493   5.691  0.4305  0.5875  0.4930
   29MOL    H96 9672   5.635   3.394   5.680  0.6242 -0.8470 -1.7341
   29MOL    H97 9673   5.375   3.319   5.534 -0.4725 -1.0675 -0.8145
   29MOL    H98 9674   5.411   3.117   5.397 -0.1828  1.5210 -3.0036
   29MOL    H99 9675   5.541   3.223   5.341  0.9424  1.5072  2.3492
   29MOL   H100 9676   5.556   2.940   5.386 -1.2245  1.4245  2.4616
   29MOL   H101 9677   5.660   3.036   5.283 -0.2217  3.5903 -0.1347
   29MOL   H102 9678   5.706   2.932   5.552 -1.1156 -0.4563 -1.4967
   29MOL   H103 9679   5.806   3.060   5.477 -1.5504  0.9891 -2.2828
   29MOL   C104 9680   5.380   3.243   5.717  0.4286 -0.2637 -0.3899
   29MOL   C105 9681   5.276   3.331   5.790  0.4404 -0.1838 -0.2655
   29MOL   N106 9682   5.177   3.392   5.695 -0.0671 -0.2192 -0.1622
   29MOL   C107 9683   5.092   3.315   5.608  0.5081  0.2416  0.8584
   29MOL   C108 9684   4.972   3.401   5.572 -0.7231 -0.5960 -0.2336
   29MOL   C109 9685   5.022   3.541   5.597 -0.2335  0.1514 -0.3290
   29MOL   C110 9686   5.148   3.522   5.678  0.6962  0.5059 -0.0780
   29MOL   O111 9687   5.211   3.621   5.711 -0.6944  0.0835 -0.0559
   29MOL   H112 9688   5.445   3.212   5.799 -1.6110 -1.0640  0.9548
   29MOL   H113 9689   5.319   3.161   5.679 -1.0029  0.6801 -0.1672
   29MOL   H114 9690   5.329   3.418   5.829  1.9008 -0.7328 -0.9703
   29MOL   H115 9691   5.156   3.276   5.528 -1.3763 -2.0808  0.4212
   29MOL   H116 9692   5.054   3.232   5.668  0.3633 -0.2089  0.1504
   29MOL   H117 9693   4.938   3.386   5.469  0.7235  1.5549 -1.0787
   29MOL   H118 9694   4.887   3.382   5.637 -0.3732  0.4438  0.5467
   29MOL   H119 9695   4.952   3.606   5.650 -0.7947  1.5424 -2.6945
   29MOL   H120 9696   5.047   3.588   5.502  1.1037  0.4936  0.1860
   29MOL   C121 9697   5.198   3.269   5.912 -0.1285 -0.3574  0.1015
   29MOL   C122 9698   5.123   3.382   5.991 -0.4311  0.6255  0.2632
   29MOL   N123 9699   4.982   3.349   6.000  0.1218 -0.1792 -0.8622
   29MOL   C124 9700   4.882   3.444   5.948  0.0023 -0.3144 -0.1116
   29MOL   C125 9701   4.760   3.360   5.921 -0.1402 -0.1875 -0.1223
   29MOL   C126 9702   4.777   3.240   6.016  0.0102  0.3067 -0.6465
   29MOL   C127 9703   4.923   3.243   6.056 -0.0996  0.6681 -1.3759
   29MOL   O128 9704   4.972   3.159   6.123 -0.1927 -0.4176 -0.5230
   29MOL   H129 9705   5.270   3.229   5.984  0.6983 -0.3516 -0.7033
   29MOL   H130 9706   5.132   3.186   5.886  1.7451 -2.2914  1.2970
   29MOL   H131 9707   5.141   3.475   5.937  1.3008 -0.6639 -1.4134
   29MOL   H132 9708   4.922   3.491   5.857 -0.4077  0.7530  0.2532
   29MOL   H133 9709   4.866   3.523   6.021  2.1863  2.0173 -2.0061
   29MOL   H134 9710   4.669   3.415   5.945  0.3071 -0.1623  1.5538
   29MOL   H135 9711   4.749   3.338   5.815  1.5215  0.4595 -0.4400
   29MOL   H136 9712   4.704   3.236   6.097  1.4530 -0.7078  0.6340
   29MOL   H137 9713   4.748   3.153   5.957 -1.8773  0.3834  0.1333
   29MOL   C138 9714   5.176   3.401   6.141  0.6981 -0.0606  0.4408
   29MOL   C139 9715   5.325   3.432   6.153  0.5792 -0.7440  0.3402
   29MOL   N140 9716   5.391   3.524   6.060  0.0656  0.4193 -0.4590
   29MOL   C141 9717   5.530   3.509   6.025 -0.4665  0.1148 -0.0249
   29MOL   C142 9718   5.578   3.644   5.962  1.2358 -0.4445 -0.2882
   29MOL   C143 9719   5.452   3.723   5.942 -0.7527  0.2740  0.5333
   29MOL   C144 9720   5.342   3.645   6.013 -0.3087 -0.0300  1.0126
   29MOL   O145 9721   5.235   3.697   6.040  0.5012  0.3616  0.1483
   29MOL   H146 9722   5.149   3.318   6.207  0.1665  1.9968  2.9076
   29MOL   H147 9723   5.108   3.476   6.180  0.5283  0.2344 -0.4204
   29MOL   H148 9724   5.385   3.341   6.142 -1.0056 -2.1023  2.5153
   29MOL   H149 9725   5.598   3.486   6.107  2.0637  1.6795 -1.6178
   29MOL   H150 9726   5.544   3.429   5.951  1.4048 -0.4699  0.9318
   29MOL   H151 9727   5.646   3.704   6.024  1.1140 -0.6362  0.0342
   29MOL   H152 9728   5.637   3.617   5.875  3.8757  0.3572  1.1808
   29MOL   H153 9729   5.430   3.709   5.836  0.3530  0.0821  0.3227
   29MOL   H154 9730   5.454   3.829   5.968  2.6291  1.2329 -3.1506
   29MOL   C155 9731   5.362   3.477   6.304  0.1584 -1.1022 -0.6361
   29MOL   C156 9732   5.328   3.379   6.413  0.4008  0.5027  0.5086
   29MOL   N157 9733   5.424   3.271   6.401  0.5128  0.2296 -0.6449
   29MOL   C158 9734   5.377   3.141   6.357 -0.2587  0.7414 -0.0640
   29MOL   C159 9735   5.505   3.047   6.360  0.3166  0.3224 -0.4570
   29MOL   C160 9736   5.628   3.135   6.397  0.4622  0.1880  0.7029
   29MOL   C161 9737   5.563   3.273   6.401 -0.2193  0.8447 -0.0419
   29MOL   O162 9738   5.632   3.371   6.408 -0.5283 -0.2113  1.6056
   29MOL   H163 9739   5.314   3.573   6.324  1.4201 -1.2644  3.6880
   29MOL   H164 9740   5.467   3.504   6.304  0.3726 -1.9289 -0.4399
   29MOL   H165 9741   5.224   3.346   6.405 -0.5420  3.0866  1.6457
   29MOL   H166 9742   5.305   3.100   6.428  1.1899 -2.7747 -0.4853
   29MOL   H167 9743   5.334   3.139   6.257 -0.9738 -0.8580  0.2544
   29MOL   H168 9744   5.500   2.980   6.446 -1.9568  3.8531  2.3296
   29MOL   H169 9745   5.515   2.994   6.266  0.3758 -0.8443  0.2021
   29MOL   H170 9746   5.673   3.115   6.494  0.6291  3.0017  1.2405
   29MOL   H171 9747   5.705   3.140   6.320 -1.5702 -2.4058 -1.6154
   29MOL   C172 9748   5.330   3.450   6.548  0.1276  0.5592  1.0234
   29MOL   C173 9749   5.346   3.366   6.676  0.5428 -0.9029 -0.4164
   29MOL   N174 9750   5.348   3.469   6.781  1.3562 -0.0253 -0.2344
   29MOL   C175 9751   5.475   3.495   6.847  0.6512  0.1023  0.1771
   29MOL   C176 9752   5.463   3.642   6.903  0.6902  0.4497  0.6268
   29MOL   C177 9753   5.315   3.666   6.904  0.0488 -0.6536  0.2589
   29MOL   C178 9754   5.250   3.552   6.828 -0.0189 -0.9389  0.1330
   29MOL   O179 9755   5.132   3.542   6.807  0.4881 -0.5217  0.9223
   29MOL   H180 9756   5.231   3.497   6.547 -0.5155 -0.7598 -0.5716
   29MOL   H181 9757   5.410   3.524   6.538  0.2420  0.0563 -2.5737
   29MOL   H182 9758   5.437   3.308   6.662  1.3903 -0.3162  2.4012
   29MOL   H183 9759   5.478   3.419   6.925  1.9329  1.1623  1.1697
   29MOL   H184 9760   5.572   3.482   6.799  0.4938  0.1355 -0.1541
   29MOL   H185 9761   5.518   3.712   6.839  1.7943 -2.7440 -2.1147
   29MOL   H186 9762   5.519   3.654   6.996  1.7770  3.6563 -0.3661
   29MOL   H187 9763   5.273   3.680   7.004  1.6336  2.2135  0.5895
   29MOL   H188 9764   5.302   3.760   6.851 -0.0047 -0.6580  0.2638
   29MOL   C189 9765   5.227   3.270   6.695 -0.9796  0.6074  0.2031
   29MOL   C190 9766   5.247   3.166   6.816  0.3138 -0.0900 -0.3722
   29MOL   N191 9767   5.121   3.086   6.814 -0.7086  0.0140  0.2512
   29MOL   C192 9768   5.016   3.128   6.909 -0.3933 -0.2438 -0.6919
   29MOL   C193 9769   4.895   3.032   6.877 -0.1138 -0.6251  0.4359
   29MOL   C194 9770   4.940   2.933   6.774 -0.6627 -0.6372  0.0883
   29MOL   C195 9771   5.079   2.984   6.735  0.8167 -0.6567  0.2986
   29MOL   O196 9772   5.143   2.931   6.645 -0.7757  0.3068  0.1465
   29MOL   H197 9773   5.234   3.214   6.602  0.0872  0.9825  0.0534
   29MOL   H198 9774   5.127   3.314   6.701 -0.6610  1.1531  1.6290
   29MOL   H199 9775   5.239   3.230   6.904  2.8583  1.0962 -0.9567
   29MOL   H200 9776   5.053   3.114   7.010  1.5066 -0.3809 -1.3788
   29MOL   H201 9777   4.991   3.234   6.898  2.6711  0.5680 -0.3424
   29MOL   H202 9778   4.865   2.978   6.967  1.6532  1.4990  2.3391
   29MOL   H203 9779   4.815   3.097   6.840  0.4387 -0.3837 -0.3521
   29MOL   H204 9780   4.944   2.831   6.814  0.6583 -0.0759  1.4122
   29MOL   H205 9781   4.867   2.930   6.693 -0.9881  0.4748  0.3474
   29MOL   C206 9782   5.382   3.085   6.835 -0.1221 -0.2813  0.6924
   29MOL   C207 9783   5.389   2.992   6.959  0.2129 -0.1162 -0.4328
   29MOL   N208 9784   5.470   2.871   6.929  0.1983 -0.3511  0.5441
   29MOL   C209 9785   5.403   2.739   6.936 -0.8194  0.2139 -0.1368
   29MOL   C210 9786   5.513   2.641   6.922 -0.2297  0.2811 -0.4765
   29MOL   C211 9787   5.643   2.718   6.890  0.1745 -0.7113 -0.5219
   29MOL   C212 9788   5.596   2.862   6.898 -0.3034 -0.2899  0.2232
   29MOL   O213 9789   5.670   2.956   6.860 -0.6664 -0.3339 -0.4460
   29MOL   H214 9790   5.465   3.156   6.827  0.7946 -1.6383 -2.6651
   29MOL   H215 9791   5.408   3.022   6.750  1.7489 -2.0319  2.5036
   29MOL   H216 9792   5.285   2.964   6.976 -0.2380  0.6439 -1.8874
   29MOL   H217 9793   5.347   2.732   7.029  0.8657 -1.0592  0.8116
   29MOL   H218 9794   5.341   2.731   6.846  1.9653  0.4313 -2.1735
   29MOL   H219 9795   5.525   2.590   7.018  0.9905  0.8390 -0.3220
   29MOL   H220 9796   5.492   2.572   6.841  1.7916 -0.0978 -0.7000
   29MOL   H221 9797   5.718   2.702   6.967  1.7409  0.1235 -1.8360
   29MOL   H222 9798   5.695   2.686   6.799  1.1607 -1.4694  0.2949
   29MOL   C223 9799   5.451   3.071   7.078 -0.6620  0.0525 -0.1117
   29MOL   C224 9800   5.355   3.143   7.168  0.2082 -0.0204  0.1573
   29MOL   N225 9801   5.301   3.051   7.276 -0.1417  0.3504  0.2364
   29MOL   C226 9802   5.158   3.032   7.284  0.3287 -0.0569 -0.3840
   29MOL   C227 9803   5.128   2.971   7.425  0.3932  0.0877  0.0324
   29MOL   C228 9804   5.263   2.951   7.484 -0.4391  0.0233 -0.3568
   29MOL   C229 9805   5.365   2.993   7.383 -0.2521 -0.8893 -0.0880
   29MOL   O230 9806   5.488   3.001   7.410  0.4225  0.2783  0.4760
   29MOL   H231 9807   5.520   3.143   7.033 -0.3211 -0.6095 -0.6689
   29MOL   H232 9808   5.513   2.994   7.123 -1.0144  0.3996  0.9717
   29MOL   H233 9809   5.269   3.176   7.110  0.5060 -1.9143 -1.4554
   29MOL   H234 9810   5.102   3.125   7.276 -1.6312 -1.2278 -0.6637
   29MOL   H235 9811   5.133   2.970   7.197 -0.3160 -0.3166 -0.0123
   29MOL   H236 9812   5.070   3.047   7.477  0.9186 -0.3780  1.3088
   29MOL   H237 9813   5.058   2.887   7.425 -0.0449  0.4520 -0.1267
   29MOL   H238 9814   5.295   3.012   7.569  1.0320  1.4697 -1.9193
   29MOL   H239 9815   5.286   2.852   7.524  0.2465  0.2967 -0.0516
   29MOL   C240 9816   5.409   3.280   7.209  0.3160 -0.9574 -0.7546
   29MOL   C241 9817   5.307   3.356   7.299  0.1471  0.0379  0.3890
   29MOL   N242 9818   5.382   3.457   7.377  0.3547 -0.2873  0.1399
   29MOL   C243 9819   5.422   3.432   7.520  0.5637 -0.0002 -0.3239
   29MOL   C244 9820   5.524   3.539   7.570 -0.0288 -0.8665  0.4994
   29MOL   C245 9821   5.540   3.627   7.441 -0.2772  0.0244  0.0880
   29MOL   C246 9822   5.445   3.572   7.335  0.0147  0.1049 -0.9504
   29MOL   O247 9823   5.431   3.629   7.229 -0.3568  0.2428 -0.0263
   29MOL   H248 9824   5.422   3.339   7.119  0.2811 -0.5618 -0.4998
   29MOL   H249 9825   5.504   3.274   7.263  1.0400 -0.5466 -1.9518
   29MOL   H250 9826   5.252   3.290   7.366 -0.9584  1.7019  1.1158
   29MOL   H251 9827   5.340   3.419   7.590  0.2687 -0.5692 -0.7713
   29MOL   H252 9828   5.477   3.338   7.523  0.3111 -0.1713 -1.0093
   29MOL   H253 9829   5.481   3.603   7.647 -1.4665  0.7314 -1.5891
   29MOL   H254 9830   5.623   3.504   7.602 -0.1984 -1.6227  0.2052
   29MOL   H255 9831   5.507   3.728   7.466  0.3176 -0.1116  1.4913
   29MOL   H256 9832   5.643   3.624   7.405 -0.5188  1.6297 -0.7501
   29MOL   C257 9833   5.201   3.423   7.210 -0.1481  0.3109 -0.8435
   29MOL   C258 9834   5.115   3.529   7.294  0.0855 -0.2180  0.1800
   29MOL   N259 9835   5.026   3.604   7.210  0.1383 -0.6819 -0.3638
   29MOL   C260 9836   5.046   3.750   7.180 -0.5625  0.8189 -0.0128
   29MOL   C261 9837   4.967   3.769   7.046 -1.3546 -1.5598 -0.3042
   29MOL   C262 9838   4.870   3.648   7.037 -0.1935  0.6031  0.2161
   29MOL   C263 9839   4.929   3.549   7.129 -0.2059 -0.3425  0.1953
   29MOL   O264 9840   4.909   3.429   7.120 -0.3949  0.4163 -0.0044
   29MOL   H265 9841   5.135   3.356   7.156 -1.5495 -0.2433  1.4623
   29MOL   H266 9842   5.244   3.483   7.130  0.5279  0.9347 -0.0251
   29MOL   H267 9843   5.192   3.602   7.320 -1.5725  2.6062 -2.4859
   29MOL   H268 9844   4.998   3.808   7.259 -1.1041 -0.0256  0.2829
   29MOL   H269 9845   5.148   3.784   7.164  0.3532 -1.4520  0.7767
   29MOL   H270 9846   4.927   3.870   7.036  1.4927 -0.1785  1.4990
   29MOL   H271 9847   5.046   3.758   6.972 -0.0344  0.3120  0.7698
   29MOL   H272 9848   4.772   3.680   7.073 -0.4555  0.2395 -0.1737
   29MOL   H273 9849   4.875   3.615   6.933  2.1168 -0.7444  0.7437
   29MOL   C274 9850   5.054   3.485   7.430  0.4055 -0.4605  0.5525
   29MOL   C275 9851   5.014   3.595   7.529 -0.2508  0.4205  0.2129
   29MOL   N276 9852   4.924   3.552   7.634 -0.6326  0.7625 -0.0370
   29MOL   C277 9853   4.784   3.594   7.657 -0.3592 -0.5294  0.2612
   29MOL   C278 9854   4.728   3.509   7.766 -0.4287  0.1380  0.4560
   29MOL   C279 9855   4.837   3.414   7.814 -0.0635 -0.5623  0.1906
   29MOL   C280 9856   4.958   3.455   7.726  0.5352  0.3223  0.0625
   29MOL   O281 9857   5.063   3.392   7.740 -0.1583  0.1065 -0.2582
   29MOL   H282 9858   5.118   3.409   7.473 -1.5684 -0.9962  2.6352
   29MOL   H283 9859   4.963   3.428   7.407 -0.0821 -0.3355  2.1288
   29MOL   H284 9860   4.950   3.657   7.466  0.8074  1.1583 -0.1518
   29MOL   H285 9861   4.793   3.701   7.674 -1.1252 -0.4972  0.4542
   29MOL   H286 9862   4.730   3.572   7.566  1.4580 -2.1890 -0.4609
   29MOL   H287 9863   4.678   3.573   7.838  0.4465  2.2912 -0.7811
   29MOL   H288 9864   4.642   3.454   7.727 -0.9905  1.6025 -0.4211
   29MOL   H289 9865   4.867   3.439   0.009  1.4369 -0.4398 -0.2663
   29MOL   H290 9866   4.822   3.307   7.797  1.7546 -0.8343  0.1709
   29MOL   C291 9867   5.128   3.674   7.590  0.3208  0.0381  0.3254
   29MOL   C292 9868   5.090   3.803   7.673  0.5976 -0.1917 -0.9323
   29MOL   N293 9869   5.205   3.849   7.753 -0.3411 -0.1037  0.1144
   29MOL   C294 9870   5.206   3.805   7.892  0.3796 -0.2191 -0.3302
   29MOL   C295 9871   5.355   3.814   0.037  0.0832 -0.2613  0.1756
   29MOL   C296 9872   5.423   3.892   7.832  0.4602  0.6034  0.5952
   29MOL   C297 9873   5.329   3.869   7.710 -0.2639 -0.1779  0.2415
   29MOL   O298 9874   5.366   3.880   7.592 -0.1973 -0.4241  0.0215
   29MOL   H299 9875   5.203   3.705   7.518  1.5710 -1.5654  0.9328
   29MOL   H300 9876   5.185   3.608   7.655 -1.5856 -1.0701  0.9200
   29MOL   H301 9877   5.012   3.779   7.745  1.6225  0.9585  0.5913
   29MOL   H302 9878   5.159   3.882   0.048  1.5470  0.9488 -0.8655
   29MOL   H303 9879   5.163   3.706   7.903 -2.9002  0.8769 -2.4702
   29MOL   H304 9880   5.360   3.872   0.129 -0.8552  1.3547 -0.7847
   29MOL   H305 9881   5.403   3.719   0.063  1.9180  1.1079  2.0251
   29MOL   H306 9882   5.427   4.000   7.844 -2.2619  0.7669  0.4674
   29MOL   H307 9883   5.523   3.851   7.821 -0.3619 -1.7490  1.6378
   29MOL   C308 9884   5.025   3.915   7.591 -0.2737  0.4946  0.2510
   29MOL   C309 9885   4.919   4.003   7.659  1.0236 -0.1875 -0.3199
   29MOL   N310 9886   4.961   4.052   7.789  0.2887 -0.1035  0.3516
   29MOL   C311 9887   4.884   4.009   7.905  0.2579 -0.0791 -0.1422
   29MOL   C312 9888   4.937   4.085   0.121  0.1762  0.8235  0.9781
   29MOL   C313 9889   5.047   4.173   0.070  0.4837  0.1025 -0.0558
   29MOL   C314 9890   5.048   4.142   7.825 -0.0526 -0.6240 -0.5208
   29MOL   O315 9891   5.117   4.213   7.747  0.0119  0.3646  0.9128
   29MOL   H316 9892   4.978   3.872   7.503  0.9390  1.6833 -1.0159
   29MOL   H317 9893   5.106   3.979   7.556 -0.4554  0.2686 -0.5848
   29MOL   H318 9894   4.847   3.931   7.696 -1.2742  2.9775  1.6435
   29MOL   H319 9895   4.777   4.014   7.890 -0.1548 -0.3457  2.4268
   29MOL   H320 9896   4.908   3.904   0.017 -0.3771 -0.0844  0.6987
   29MOL   H321 9897   4.863   4.152   0.165  0.8032  2.0645  0.1725
   29MOL   H322 9898   4.977   4.023   0.202  0.4525 -1.7600 -1.0496
   29MOL   H323 9899   5.026   4.277   0.095 -2.2146 -0.1290 -1.1681
   29MOL   H324 9900   5.144   4.152   0.114 -1.6862  0.4062  5.2253
   29MOL   C325 9901   4.860   4.114   7.569  0.0273  0.1286 -0.2821
   29MOL   C326 9902   4.776   4.060   7.451 -0.3753 -0.4591  0.5135
   29MOL   N327 9903   4.691   4.170   7.407  0.3803  0.6524 -0.3165
   29MOL   C328 9904   4.750   4.262   7.311 -0.2929 -0.4641 -0.3384
   29MOL   C329 9905   4.632   4.358   7.271 -0.3167 -0.2370  0.1834
   29MOL   C330 9906   4.506   4.308   7.348  0.0074 -0.4518  0.0400
   29MOL   C331 9907   4.562   4.195   7.430  0.2530  0.1901 -0.4467
   29MOL   O332 9908   4.490   4.125   7.496 -0.2022 -0.0738  0.2156
   29MOL   H333 9909   4.936   4.185   7.536  0.9721 -0.4977  0.5216
   29MOL   H334 9910   4.798   4.175   7.634 -1.1261 -0.5848 -0.6868
   29MOL   H335 9911   4.717   3.972   7.475  0.6754 -1.4024 -0.2666
   29MOL   H336 9912   4.827   4.319   7.363 -0.5503 -0.0370 -0.4239
   29MOL   H337 9913   4.790   4.213   7.223 -1.6941 -0.0580 -1.2150
   29MOL   H338 9914   4.660   4.458   7.304  0.6970 -0.4183 -0.1218
   29MOL   H339 9915   4.618   4.350   7.164 -0.2648  0.5808  0.1103
   29MOL   H340 9916   4.457   4.392   7.397 -0.0195  0.4221 -1.4343
   29MOL   H341 9917   4.436   4.270   7.274 -0.4729  1.7698 -0.7105
   29MOL   H342 9918   4.847   4.024   7.376 -1.2492  1.0315 -1.0787
   30MOL     C1 9919   7.616   6.559   7.152  0.0825 -0.4947 -0.2164
   30MOL     C2 9920   7.683   6.604   7.021  0.9811  0.1559 -0.1609
   30MOL     N3 9921   7.834   6.583   7.030  0.8180 -0.7067  0.4329
   30MOL     C4 9922   0.027   6.681   6.977 -0.2438  0.6147 -0.1084
   30MOL     C5 9923   0.166   6.611   6.976 -0.2549  0.3291 -0.4662
   30MOL     C6 9924   0.141   6.466   7.027 -0.0776 -0.3894  0.2131
   30MOL     C7 9925   7.898   6.468   7.057  0.0572  0.1667  0.0492
   30MOL     O8 9926   7.844   6.369   7.112 -0.2504 -0.5089  0.2128
   30MOL     H9 9927   7.602   6.452   7.158 -1.2202 -0.3551 -0.6323
   30MOL    H10 9928   7.682   6.577   7.237 -0.2719  1.3086 -0.2882
   30MOL    H11 9929   7.667   6.706   6.987  0.1237 -0.1328 -0.6496
   30MOL    H12 9930   0.001   6.720   6.878  0.0884  1.5625  0.1737
   30MOL    H13 9931   0.046   6.768   7.039 -0.1440  1.5260 -1.4074
   30MOL    H14 9932   0.197   6.604   6.872  0.5640  1.8280 -0.3356
   30MOL    H15 9933   0.234   6.663   7.043 -0.4539 -0.1280  0.0878
   30MOL    H16 9934   0.162   6.394   6.948 -0.5136  1.4127 -1.5818
   30MOL    H17 9935   0.208   6.445   7.111 -1.9128 -2.7857  1.1237
   30MOL    H18 9936   7.532   6.622   7.180 -0.6416 -1.1916 -0.8214
   30MOL    C19 9937   7.633   6.513   6.907  0.5885  0.4669 -0.0918
   30MOL    C20 9938   7.479   6.511   6.873  1.0472  0.2540 -0.1241
   30MOL    N21 9939   7.435   6.650   6.828  1.2396 -0.4456  0.2204
   30MOL    C22 9940   7.318   6.710   6.886  0.0663  0.9587  0.2409
   30MOL    C23 9941   7.314   6.851   6.834 -0.3352 -0.2383  0.3526
   30MOL    C24 9942   7.404   6.843   6.716  0.0468  0.2630  0.2736
   30MOL    C25 9943   7.489   6.722   6.729  0.1387 -0.0611 -0.0204
   30MOL    O26 9944   7.595   6.702   6.669 -0.0233  0.1413  0.0692
   30MOL    H27 9945   7.663   6.411   6.931  2.1988  0.9890  0.1531
   30MOL    H28 9946   7.697   6.529   6.821  0.9145 -1.5073 -0.2308
   30MOL    H29 9947   7.412   6.481   6.954  1.4447 -2.7013 -0.8374
   30MOL    H30 9948   7.231   6.650   6.859  2.1405 -2.6947  1.3597
   30MOL    H31 9949   7.326   6.715   6.994 -0.7622  0.1459  0.3465
   30MOL    H32 9950   7.217   6.891   6.804  0.9146  1.0588 -2.0159
   30MOL    H33 9951   7.367   6.920   6.900  0.8552  0.8791 -1.7293
   30MOL    H34 9952   7.354   6.821   6.621 -0.8021  0.9884  0.5498
   30MOL    H35 9953   7.449   6.940   6.696 -1.5374  1.6823  3.3648
   30MOL    C36 9954   7.457   6.413   6.751  0.1238 -0.0586 -0.1020
   30MOL    C37 9955   7.455   6.264   6.788  0.4167 -0.0731  0.1984
   30MOL    N38 9956   7.352   6.239   6.895 -0.0933  0.7989  0.0005
   30MOL    C39 9957   7.394   6.166   7.011  0.2332  0.0259  0.2615
   30MOL    C40 9958   7.274   6.175   7.111 -0.0926  0.1467 -0.3838
   30MOL    C41 9959   7.157   6.233   7.034 -0.1614 -0.5399  0.4587
   30MOL    C42 9960   7.222   6.275   6.900 -0.5957  0.0569  0.0643
   30MOL    O43 9961   7.158   6.333   6.812 -0.2549  0.3673 -0.2389
   30MOL    H44 9962   7.529   6.424   6.671 -0.7651  1.1948 -0.7446
   30MOL    H45 9963   7.363   6.448   6.709 -0.2941 -0.6933  0.2901
   30MOL    H46 9964   7.549   6.247   6.840  0.8307 -0.9223 -0.7932
   30MOL    H47 9965   7.412   6.064   6.975 -2.9117 -0.3547 -0.3663
   30MOL    H48 9966   7.492   6.189   7.052  0.9864  0.6923 -1.8797
   30MOL    H49 9967   7.254   6.083   7.167  1.5206  0.7838  1.3105
   30MOL    H50 9968   7.292   6.247   7.190 -0.5938  0.7257 -0.7939
   30MOL    H51 9969   7.068   6.171   7.034  0.5379 -1.5796 -0.8145
   30MOL    H52 9970   7.118   6.319   7.088 -1.4577 -1.8229  1.5733
   30MOL    C53 9971   7.433   6.173   6.656  0.0564 -0.7096 -0.4036
   30MOL    C54 9972   7.458   6.020   6.674  0.9212  0.3366  0.3866
   30MOL    N55 9973   7.373   5.950   6.576 -0.0741  0.4588  0.3655
   30MOL    C56 9974   7.321   5.819   6.616  0.2625  0.4577  0.4979
   30MOL    C57 9975   7.253   5.765   6.490 -0.6619 -0.2752 -0.3155
   30MOL    C58 9976   7.263   5.869   6.379  0.2743  0.2659 -0.4156
   30MOL    C59 9977   7.347   5.975   6.445  0.1800 -0.4570 -0.7146
   30MOL    O60 9978   7.380   6.073   6.380  0.2672  0.1246  0.2043
   30MOL    H61 9979   7.487   6.210   6.569 -1.8962  0.0614 -1.3310
   30MOL    H62 9980   7.326   6.185   6.639  0.2762  0.5247 -0.9653
   30MOL    H63 9981   7.442   5.989   6.777  0.6680  1.4347  0.6847
   30MOL    H64 9982   7.394   5.746   6.651  1.0790  0.1425 -1.7709
   30MOL    H65 9983   7.256   5.838   6.701 -1.0149  1.0754 -0.5908
   30MOL    H66 9984   7.299   5.669   6.467 -1.6727 -1.0826  0.9740
   30MOL    H67 9985   7.148   5.754   6.516 -0.7218 -0.5345 -0.6568
   30MOL    H68 9986   7.307   5.836   6.284 -0.0128  1.9977 -1.1748
   30MOL    H69 9987   7.173   5.922   6.346 -1.3446 -0.8391  2.0825
   30MOL    C70 9988   7.611   5.989   6.637  0.1313 -0.4305  0.3383
   30MOL    C71 9989   7.718   6.030   6.742 -0.5007  0.5633 -0.2307
   30MOL    N72 9990   7.704   5.972   6.871 -0.2595 -0.1847  0.1936
   30MOL    C73 9991   7.770   6.041   6.986  0.5093 -0.3082 -0.2510
   30MOL    C74 9992   7.750   5.938   7.100  0.3179 -0.0412  0.5272
   30MOL    C75 9993   7.698   5.807   7.032 -0.1116  0.0758  0.1053
   30MOL    C76 9994   7.680   5.842   6.890 -0.3520 -0.0331  0.2928
   30MOL    O77 9995   7.662   5.754   6.800 -0.1011 -0.5828 -0.4170
   30MOL    H78 9996   7.632   6.046   6.547  1.8195  0.0625  1.0163
   30MOL    H79 9997   7.617   5.885   6.606  1.0246 -0.1522 -0.4660
   30MOL    H80 9998   7.723   6.139   6.748  0.1147  0.5231  0.0417
   30MOL    H81 9999   7.873   6.076   6.970  0.1393  0.3620 -1.2773
   30MOL    H8210000   7.707   6.130   6.981 -0.9710 -1.3959 -1.0946
   30MOL    H8310001   7.837   5.912   7.159  0.0277 -0.4623  0.7741
   30MOL    H8410002   7.670   5.979   7.162  2.4017  1.9639  1.9591
   30MOL    H8510003   7.764   5.723   7.054 -0.3392 -0.1277  0.0219
   30MOL    H8610004   7.603   5.787   7.082  0.3615  2.3579  2.0105
   30MOL    C8710005   7.860   5.990   6.688 -0.2069  0.7249  0.1135
   30MOL    C8810006   0.013   6.069   6.563 -0.2244 -0.3830  0.1798
   30MOL    N8910007   0.009   6.219   6.569 -0.6398  0.4651  0.1968
   30MOL    C9010008   7.821   6.299   6.497 -0.1350  0.4598  1.0228
   30MOL    C9110009   7.842   6.440   6.543 -0.2829  0.3197 -0.8405
   30MOL    C9210010   0.048   6.440   6.641 -0.0194  0.0533  0.5730
   30MOL    C9310011   0.074   6.293   6.654 -0.2911 -0.2462  0.0905
   30MOL    O9410012   0.144   6.251   6.743  0.3047 -0.0762 -0.0846
   30MOL    H9510013   7.860   5.884   6.662  0.5713  0.8800 -0.5262
   30MOL    H9610014   0.029   5.992   6.767 -0.2700 -0.6920  0.2171
   30MOL    H9710015   7.866   6.034   6.473  0.3402  1.1151 -0.7474
   30MOL    H9810016   7.850   6.281   6.393  0.2402 -1.0588  1.3790
   30MOL    H9910017   7.720   6.264   6.516 -0.3244 -0.4517 -1.5162
   30MOL   H10010018   7.847   6.525   6.475 -0.4028 -0.4155 -1.7635
   30MOL   H10110019   7.750   6.456   6.601 -1.2787 -0.9359 -2.0515
   30MOL   H10210020   0.136   6.497   6.611  0.6980 -1.3068  0.0453
   30MOL   H10310021   0.019   6.486   6.735  0.6736  2.5150 -0.3664
   30MOL   C10410022   0.160   6.027   6.541 -0.2225  0.0931  1.3160
   30MOL   C10510023   0.235   6.091   6.427  0.1429  0.0774 -0.3930
   30MOL   N10610024   0.358   6.009   6.404 -0.0666  0.5329  0.5388
   30MOL   C10710025   0.487   6.066   6.447  0.5244 -0.1974 -0.1958
   30MOL   C10810026   0.590   5.960   6.389  0.2208 -0.7098 -0.1330
   30MOL   C10910027   0.503   5.838   6.333 -0.3485 -0.1976 -0.1985
   30MOL   C11010028   0.364   5.879   6.351 -0.2316  0.7889 -0.0862
   30MOL   O11110029   0.270   5.815   6.303  0.1438 -0.1937 -0.6481
   30MOL   H11210030   0.155   5.920   6.522 -0.4709  0.3800 -0.2871
   30MOL   H11310031   0.216   6.035   6.634 -0.3382  0.6742  1.3394
   30MOL   H11410032   0.261   6.187   6.473  0.8965 -0.6281  0.6641
   30MOL   H11510033   0.514   6.167   6.416 -0.2038 -0.0313 -0.2974
   30MOL   H11610034   0.492   6.060   6.556  1.5144  0.2137 -0.2115
   30MOL   H11710035   0.633   5.995   6.295 -0.1987 -0.5675 -0.2713
   30MOL   H11810036   0.673   5.938   6.456 -1.1797  0.0543  1.9021
   30MOL   H11910037   0.524   5.755   6.400  2.2374  0.8707  0.3747
   30MOL   H12010038   0.534   5.803   6.235  1.4872 -2.4207  1.1324
   30MOL   C12110039   0.160   6.103   6.289 -0.6958  0.3583 -0.0336
   30MOL   C12210040   0.229   6.187   6.180 -0.5120  0.8091  0.3076
   30MOL   N12310041   0.225   6.332   6.203  0.1848 -0.1069  0.3824
   30MOL   C12410042   0.124   6.421   6.146  0.0713  0.1994  0.3495
   30MOL   C12510043   0.160   6.568   6.192  0.5543 -0.0314  0.1766
   30MOL   C12610044   0.274   6.558   6.286 -0.9151 -0.1000  0.0853
   30MOL   C12710045   0.312   6.406   6.281  0.0258  0.4803  0.1723
   30MOL   O12810046   0.410   6.366   6.345 -0.0482 -0.4890  0.1965
   30MOL   H12910047   0.058   6.136   6.308 -1.2229 -1.3938  0.2216
   30MOL   H13010048   0.134   6.007   6.244  1.7369 -0.5288  0.3933
   30MOL   H13110049   0.176   6.180   6.085 -0.9461 -0.3287  0.6290
   30MOL   H13210050   0.031   6.380   6.188  0.0270 -0.9249 -0.8158
   30MOL   H13310051   0.112   6.413   6.038  1.2015  1.6962  0.1025
   30MOL   H13410052   0.189   6.626   6.105 -0.5947 -1.3731 -1.1316
   30MOL   H13510053   0.082   6.634   6.232  0.6857  0.0118  0.3594
   30MOL   H13610054   0.358   6.617   6.248  0.2284 -1.3378  0.6499
   30MOL   H13710055   0.248   6.597   6.384  2.3155  0.4321  0.7982
   30MOL   C13810056   0.366   6.136   6.129 -0.3867  0.0469 -0.4817
   30MOL   C13910057   0.424   6.205   6.002  0.1122 -0.4863  0.7442
   30MOL   N14010058   0.568   6.219   6.021  0.5787 -0.1493  0.2853
   30MOL   C14110059   0.622   6.346   6.052 -0.6168  0.6096  0.6527
   30MOL   C14210060   0.778   6.335   6.057 -0.3796 -0.9640 -0.2970
   30MOL   C14310061   0.797   6.181   6.077 -0.5551  0.3140 -0.4839
   30MOL   C14410062   0.664   6.125   6.035 -0.0541  0.7378  0.7128
   30MOL   O14510063   0.646   6.008   6.013  0.2208  0.5122 -0.2770
   30MOL   H14610064   0.349   6.030   6.109 -4.9919  1.2167 -3.5875
   30MOL   H14710065   0.431   6.148   6.216 -2.2025  0.3979  0.8503
   30MOL   H14810066   0.379   6.304   5.992 -0.1667 -0.6383  0.4762
   30MOL   H14910067   0.596   6.410   5.967  0.5451 -2.3816 -2.0591
   30MOL   H15010068   0.580   6.391   6.142  0.6392  0.8513  1.1365
   30MOL   H15110069   0.821   6.385   5.970 -0.6441  1.6818  1.0449
   30MOL   H15210070   0.813   6.381   6.150  0.5130  0.3201 -1.2569
   30MOL   H15310071   0.807   6.165   6.184  0.1545 -2.2607 -0.9017
   30MOL   H15410072   0.881   6.136   6.025 -0.6221  0.7401 -0.9692
   30MOL   C15510073   0.399   6.121   5.865  0.3486  0.0616  0.0231
   30MOL   C15610074   0.467   6.168   5.731  0.3118  0.0552 -0.7812
   30MOL   N15710075   0.522   6.056   5.655 -0.3489 -0.8768 -0.5241
   30MOL   C15810076   0.670   6.061   5.637 -0.1257 -0.1200 -0.4626
   30MOL   C15910077   0.699   5.928   5.561  0.3267  0.4020 -0.0472
   30MOL   C16010078   0.573   5.842   5.569  0.2972 -0.3404 -0.3390
   30MOL   C16110079   0.475   5.933   5.639 -0.1773  0.2043 -0.8902
   30MOL   O16210080   0.368   5.883   5.677 -0.5107  0.1390  0.3434
   30MOL   H16310081   0.292   6.125   5.842  0.2815 -0.3140  0.2651
   30MOL   H16410082   0.428   6.017   5.880 -0.9295 -0.4780 -1.0893
   30MOL   H16510083   0.548   6.236   5.757  0.4550 -0.1572 -0.6736
   30MOL   H16610084   0.709   6.149   5.585  1.2137 -0.4101  0.0409
   30MOL   H16710085   0.703   6.059   5.741  0.2909 -2.1458 -0.6252
   30MOL   H16810086   0.723   5.932   5.455  0.5488  0.1754 -0.0041
   30MOL   H16910087   0.777   5.870   5.609 -0.9684 -1.7038 -0.4057
   30MOL   H17010088   0.519   5.826   5.476 -0.6231  2.1013 -0.2805
   30MOL   H17110089   0.588   5.750   5.625 -2.7707 -1.2315 -0.8985
   30MOL   C17210090   0.378   6.258   5.642 -0.1514  0.1566 -0.1536
   30MOL   C17310091   0.450   6.307   5.519  0.3237  0.1548  0.6591
   30MOL   N17410092   0.393   6.257   5.388  0.2900  0.9909  0.6832
   30MOL   C17510093   0.261   6.309   5.344 -0.4033 -0.1744  0.5155
   30MOL   C17610094   0.242   6.251   5.203  0.0693  0.5129  0.7145
   30MOL   C17710095   0.350   6.149   5.181  0.0515  0.1357 -0.5515
   30MOL   C17810096   0.443   6.166   5.301 -0.3418 -0.2976  0.0236
   30MOL   O17910097   0.550   6.107   5.322 -0.1308  0.2252 -0.3370
   30MOL   H18010098   0.353   6.346   5.701  1.2369 -1.2359  2.5872
   30MOL   H18110099   0.287   6.210   5.606  0.5587 -0.9597 -0.4826
   30MOL   H18210100   0.554   6.275   5.519  0.0677 -0.6559  1.2625
   30MOL   H18310101   0.183   6.277   5.414 -2.1420 -0.8677 -1.6527
   30MOL   H18410102   0.260   6.417   5.333 -0.5637 -0.2952 -0.7415
   30MOL   H18510103   0.250   6.326   5.124 -0.2273  1.1751  1.3010
   30MOL   H18610104   0.142   6.210   5.196  0.9044 -1.2611 -1.6216
   30MOL   H18710105   0.302   6.052   5.189 -0.3745  0.4901  1.2367
   30MOL   H18810106   0.402   6.151   5.085 -0.7444  0.1637 -0.9808
   30MOL   C18910107   0.448   6.455   5.516  0.0426 -0.0361  0.2452
   30MOL   C19010108   0.526   6.521   5.398  0.3729 -0.2947  0.6346
   30MOL   N19110109   0.506   6.667   5.400 -0.4705 -0.1791 -0.1993
   30MOL   C19210110   0.417   6.729   5.297  0.7653 -0.7055 -0.1132
   30MOL   C19310111   0.413   6.883   5.328 -0.0203  0.2952 -0.5066
   30MOL   C19410112   0.506   6.899   5.441  0.8531 -0.4279  0.2446
   30MOL   C19510113   0.558   6.758   5.481 -0.4184  0.2185  0.3871
   30MOL   O19610114   0.652   6.738   5.559  0.0859 -0.2887  0.3261
   30MOL   H19710115   0.497   6.488   5.608 -0.2472  0.9716  0.0428
   30MOL   H19810116   0.346   6.492   5.527  0.9215  2.6891 -0.5371
   30MOL   H19910117   0.477   6.488   5.307 -0.2028  1.7147  0.1990
   30MOL   H20010118   0.452   6.698   5.198 -2.1435 -0.7779 -1.1829
   30MOL   H20110119   0.315   6.690   5.297  0.3948  0.2484 -0.5182
   30MOL   H20210120   0.436   6.945   5.242  2.8502  2.0519  1.4339
   30MOL   H20310121   0.313   6.916   5.354  0.0344  0.1594 -0.1125
   30MOL   H20410122   0.590   6.961   5.409  0.7092 -0.1993  0.3102
   30MOL   H20510123   0.439   6.924   5.523  0.7284 -0.2869  0.0988
   30MOL   C20610124   0.675   6.476   5.372 -0.0207  0.2685  0.4428
   30MOL   C20710125   0.759   6.535   5.258  0.0198  0.1523  0.4889
   30MOL   N20810126   0.879   6.600   5.306 -0.2238 -0.8058 -0.3974
   30MOL   C20910127   0.997   6.521   5.338 -0.2535  0.5468  0.4598
   30MOL   C21010128   1.079   6.614   5.424  0.0721 -0.2198 -0.3961
   30MOL   C21110129   1.048   6.749   5.375 -0.2827 -0.2605 -0.0023
   30MOL   C21210130   0.905   6.727   5.324 -0.0698  0.1226 -0.8870
   30MOL   O21310131   0.826   6.821   5.328 -0.8364 -0.1406 -0.2220
   30MOL   H21410132   0.667   6.369   5.358  1.4112  0.1752  0.2768
   30MOL   H21510133   0.730   6.491   5.465 -0.0388 -0.2116  0.5307
   30MOL   H21610134   0.698   6.614   5.213 -0.9044 -1.1332 -0.5369
   30MOL   H21710135   0.971   6.430   5.393 -2.7302 -1.0776 -3.2477
   30MOL   H21810136   1.052   6.494   5.248 -1.0865  0.2138  0.0479
   30MOL   H21910137   1.054   6.613   5.530  0.1991 -1.0402 -0.3695
   30MOL   H22010138   1.185   6.599   5.405 -0.1051 -1.3915 -0.4949
   30MOL   H22110139   1.048   6.825   5.453  1.1572  0.0346 -0.2596
   30MOL   H22210140   1.111   6.795   5.299 -0.2090  3.2486  2.0671
   30MOL   C22310141   0.793   6.423   5.153 -0.4808  0.6783  0.1475
   30MOL   C22410142   0.680   6.371   5.065 -0.5393 -0.1136 -0.2200
   30MOL   N22510143   0.628   6.475   4.968  0.4668  0.1210 -0.2706
   30MOL   C22610144   0.710   6.573   4.891 -0.0073 -0.5129 -0.2093
   30MOL   C22710145   0.625   6.638   4.787  0.7257 -0.3134  0.1296
   30MOL   C22810146   0.483   6.603   4.834 -0.1288  0.0940  0.3658
   30MOL   C22910147   0.498   6.484   4.923  0.1427  0.6005  0.0834
   30MOL   O23010148   0.400   6.417   4.957  0.6213  0.2352 -0.3034
   30MOL   H23110149   0.827   6.334   5.206  0.3738 -0.3434 -2.0641
   30MOL   H23210150   0.867   6.459   5.082  1.3202 -1.0796  1.1044
   30MOL   H23310151   0.608   6.350   5.144  1.3801 -0.9057  1.3370
   30MOL   H23410152   0.753   6.655   4.948  1.4950 -1.1139 -0.4508
   30MOL   H23510153   0.785   6.515   4.837  0.0214 -1.4495  0.8115
   30MOL   H23610154   0.645   6.744   4.768 -0.3418  0.1981  1.7473
   30MOL   H23710155   0.640   6.587   4.693 -1.7785 -4.2208  1.7300
   30MOL   H23810156   0.440   6.683   4.894 -2.7832 -0.2532 -1.0074
   30MOL   H23910157   0.420   6.566   4.753  2.8510  1.0132 -2.4946
   30MOL   C24010158   0.691   6.231   5.002  0.7182 -0.7721 -0.1926
   30MOL   C24110159   0.789   6.211   4.893  0.1761 -0.0246 -0.3445
   30MOL   N24210160   0.923   6.233   4.948 -0.3830 -0.0995  0.4558
   30MOL   C24310161   1.021   6.307   4.871  0.0255 -0.3708  0.4702
   30MOL   C24410162   1.147   6.317   4.956 -0.2303  0.1448 -0.3231
   30MOL   C24510163   1.133   6.211   5.067  0.0324  0.4740  0.0540
   30MOL   C24610164   0.992   6.152   5.041 -0.0393  0.2919 -0.3077
   30MOL   O24710165   0.944   6.052   5.100  0.1496 -0.0007  0.7262
   30MOL   H24810166   0.589   6.201   4.976  0.3103 -0.6419  1.2014
   30MOL   H24910167   0.719   6.167   5.086  0.2818 -0.0222  0.5324
   30MOL   H25010168   0.778   6.283   4.811 -0.4506 -2.4493 -2.4470
   30MOL   H25110169   1.039   6.250   4.780 -1.3090  0.4379 -0.3108
   30MOL   H25210170   0.985   6.404   4.839 -0.4201 -0.0613  1.8543
   30MOL   H25310171   1.235   6.321   4.892 -0.3336  1.0334 -0.4191
   30MOL   H25410172   1.140   6.412   5.008  0.9302 -0.0256  0.1505
   30MOL   H25510173   1.212   6.137   5.071 -0.7423 -0.2641  2.2358
   30MOL   H25610174   1.122   6.261   5.163 -1.5779 -2.0398  1.2316
   30MOL   C25710175   0.778   6.068   4.831  0.0086 -0.2486  0.2503
   30MOL   C25810176   0.704   6.052   4.693 -0.5116 -0.3323 -0.6222
   30MOL   N25910177   0.579   6.130   4.687 -0.3258 -0.2582 -0.4726
   30MOL   C26010178   0.458   6.066   4.729  0.3220  0.4055 -0.2000
   30MOL   C26110179   0.348   6.161   4.697  0.0159  0.3740 -0.3580
   30MOL   C26210180   0.412   6.285   4.625  0.1331  0.1022  0.4877
   30MOL   C26310181   0.557   6.250   4.632  0.2478  0.5768 -0.2126
   30MOL   O26410182   0.642   6.322   4.578  0.5512 -0.2830 -0.0849
   30MOL   H26510183   0.722   6.014   4.908 -0.9926 -1.9304 -1.6159
   30MOL   H26610184   0.871   6.011   4.838  0.0852 -0.7575 -3.7479
   30MOL   H26710185   0.686   5.944   4.696 -0.8281 -0.2532  0.8850
   30MOL   H26810186   0.437   5.965   4.693  1.8533 -0.7250  1.9828
   30MOL   H26910187   0.468   6.058   4.837 -0.1212  0.6497 -0.1367
   30MOL   H27010188   0.273   6.120   4.629 -0.3903 -1.5540  1.2157
   30MOL   H27110189   0.290   6.192   4.784 -0.4453 -0.9928 -0.1785
   30MOL   H27210190   0.392   6.290   4.518  0.7391  1.5194  0.4252
   30MOL   H27310191   0.391   6.377   4.680  1.4563  1.5613 -1.3982
   30MOL   C27410192   0.796   6.078   4.576  0.1911 -0.5485  1.0107
   30MOL   C27510193   0.732   6.067   4.430 -0.4180 -0.9927 -1.0637
   30MOL   N27610194   0.809   6.155   4.339 -0.6351  0.1155  0.5740
   30MOL   C27710195   0.735   6.239   4.253 -0.1463  0.5653  0.4968
   30MOL   C27810196   0.830   6.297   4.150 -0.4078  0.5669 -0.6637
   30MOL   C27910197   0.971   6.267   4.206  0.4499  0.2060 -0.2294
   30MOL   C28010198   0.942   6.165   4.314 -0.0842 -0.4263 -0.2378
   30MOL   O28110199   1.028   6.112   4.380  0.0171  0.4748  0.0240
   30MOL   H28210200   0.878   6.006   4.570  0.5371  0.0197 -1.6533
   30MOL   H28310201   0.845   6.176   4.580  0.0526 -0.5319  3.2177
   30MOL   H28410202   0.630   6.107   4.427 -0.3013 -0.6823 -0.8652
   30MOL   H28510203   0.659   6.176   4.208  2.0166 -0.9414 -1.1523
   30MOL   H28610204   0.685   6.320   4.306 -3.1063 -0.9137  0.0244
   30MOL   H28710205   0.811   6.241   4.059 -3.2477 -1.5381  1.1236
   30MOL   H28810206   0.815   6.400   4.117  2.6755  1.7494  1.3213
   30MOL   H28910207   1.040   6.227   4.132 -2.1259 -3.2623 -0.9121
   30MOL   H29010208   1.008   6.359   4.251 -0.5333 -0.9136  3.0453
   30MOL   C29110209   0.743   5.923   4.382  0.4140 -0.4112  0.1194
   30MOL   C29210210   0.686   5.893   4.242  0.0347  0.1429  0.9095
   30MOL   N29310211   0.788   5.897   4.128  0.1395 -0.0890  0.1511
   30MOL   C29410212   0.903   5.805   4.130  0.3794 -0.0279 -0.2587
   30MOL   C29510213   0.960   5.800   3.987  0.0061  0.5448  0.2041
   30MOL   C29610214   0.868   5.892   3.903  0.2272 -0.2878  0.4441
   30MOL   C29710215   0.758   5.937   4.006 -0.0136 -0.1660 -0.2644
   30MOL   O29810216   0.658   5.997   3.970 -0.1217  0.1747  0.3429
   30MOL   H29910217   0.695   5.864   4.459 -0.4218  0.8395  0.5660
   30MOL   H30010218   0.846   5.886   4.384  0.1581 -1.1265  0.0530
   30MOL   H30110219   0.614   5.971   4.218  0.3057  0.2126  0.3124
   30MOL   H30210220   0.969   5.841   4.209 -1.8670  1.3667  1.0176
   30MOL   H30310221   0.864   5.706   4.153  0.0729  0.2950  0.6346
   30MOL   H30410222   1.064   5.830   3.986  0.7368 -1.8440 -0.8058
   30MOL   H30510223   0.960   5.693   3.963  0.7193  0.8622 -1.2212
   30MOL   H30610224   0.931   5.977   3.877 -0.9241  0.4334 -0.0276
   30MOL   H30710225   0.838   5.845   3.810  0.2478  0.7713 -0.0994
   30MOL   C30810226   0.613   5.754   4.243 -0.1818  0.2443  0.0739
   30MOL   C30910227   0.482   5.736   4.321 -0.1674 -0.4533  0.2374
   30MOL   N31010228   0.390   5.850   4.292  0.9856 -0.1116 -0.0202
   30MOL   C31110229   0.347   5.937   4.407 -0.2408  0.5517 -0.0478
   30MOL   C31210230   0.272   6.050   4.352 -0.3380  0.4969 -0.2309
   30MOL   C31310231   0.248   6.018   4.206 -0.5545  0.4005 -0.6952
   30MOL   C31410232   0.320   5.886   4.187  0.3368 -0.0350  0.4422
   30MOL   O31510233   0.302   5.813   4.089 -0.0523 -0.4010  0.5137
   30MOL   H31610234   0.685   5.678   4.270 -0.2438  0.6436  1.4064
   30MOL   H31710235   0.572   5.729   4.145 -2.3253  1.3980  0.6257
   30MOL   H31810236   0.513   5.747   4.425 -0.6178  0.4345  0.2820
   30MOL   H31910237   0.295   5.873   4.478  0.0295  0.9380  0.5010
   30MOL   H32010238   0.440   5.961   4.458 -0.3241 -0.2741  0.5054
   30MOL   H32110239   0.180   6.060   4.409 -0.2916 -1.5884  0.2379
   30MOL   H32210240   0.345   6.128   4.372  0.3945  0.4431 -2.5687
   30MOL   H32310241   0.142   6.001   4.188 -0.4660 -1.5160  0.4467
   30MOL   H32410242   0.281   6.088   4.128  1.1936 -1.4237 -1.6580
   30MOL   C32510243   0.410   5.601   4.288  0.3008  0.0630 -0.1604
   30MOL   C32610244   0.503   5.485   4.332  0.5567 -0.3042 -0.8233
   30MOL   N32710245   0.449   5.363   4.378  0.1041  0.4424  0.8729
   30MOL   C32810246   0.512   5.233   4.344 -0.6619  0.2747  0.1016
   30MOL   C32910247   0.457   5.141   4.452 -0.0859 -0.3221 -0.1681
   30MOL   C33010248   0.335   5.206   4.505  0.1740 -0.2850  0.7456
   30MOL   C33110249   0.360   5.351   4.473  0.2089  0.0948  0.2173
   30MOL   O33210250   0.302   5.441   4.531 -0.1227  0.2625  0.6986
   30MOL   H33310251   0.364   5.589   4.190 -1.1573  0.5996  0.4389
   30MOL   H33410252   0.319   5.598   4.348  0.7220  0.0182  0.4886
   30MOL   H33510253   0.561   5.516   4.418 -1.2804  0.1366  0.2757
   30MOL   H33610254   0.481   5.203   4.244 -0.2681 -0.9177  0.3232
   30MOL   H33710255   0.620   5.223   4.333 -0.4629 -0.1010  2.2401
   30MOL   H33810256   0.433   5.039   4.423 -1.3603 -0.2097  0.4228
   30MOL   H33910257   0.531   5.133   4.531 -0.5065  0.1027  0.2752
   30MOL   H34010258   0.247   5.175   4.450 -0.4360  1.8661  0.4609
   30MOL   H34110259   0.315   5.184   4.610  0.6975 -0.9044  0.7247
   30MOL   H34210260   0.583   5.466   4.260 -1.4485 -0.9316 -2.9689
   31MOL     C110261   0.382   7.238   0.764  0.5696 -0.0865 -0.4991
   31MOL     C210262   0.393   7.195   0.614 -0.1383  0.5200 -0.0688
   31MOL     N310263   0.388   7.313   0.524  0.2282 -0.6003 -0.9714
   31MOL     C410264   0.256   7.334   0.471  1.2896 -0.7108 -0.1381
   31MOL     C510265   0.280   7.450   0.369 -0.1078  0.0776  0.3488
   31MOL     C610266   0.413   7.512   0.414  0.0485  0.3885 -0.1482
   31MOL     C710267   0.479   7.405   0.499 -1.0610  0.3901 -0.0379
   31MOL     O810268   0.591   7.422   0.544  0.5521  0.6038  0.2526
   31MOL     H910269   0.450   7.322   0.784 -1.3434  1.3441  0.1210
   31MOL    H1010270   0.282   7.270   0.791  0.9753  1.7341 -1.0749
   31MOL    H1110271   0.300   7.142   0.594  0.0967  0.4056 -0.8925
   31MOL    H1210272   0.215   7.247   0.420 -1.5382  0.8971 -0.7614
   31MOL    H1310273   0.181   7.351   0.548  0.9879  1.0006 -0.7839
   31MOL    H1410274   0.299   7.421   0.266  1.1897  1.4215  0.2033
   31MOL    H1510275   0.205   7.528   0.365 -0.4613 -0.2492  0.4781
   31MOL    H1610276   0.471   7.547   0.328 -3.0922 -2.2239 -3.5056
   31MOL    H1710277   0.387   7.591   0.484  0.9500 -0.0108  0.6461
   31MOL    H1810278   0.396   7.162   0.841  1.4444 -0.3553 -0.9084
   31MOL    C1910279   0.507   7.091   0.574  0.0476 -0.2488 -0.5470
   31MOL    C2010280   0.522   7.035   0.430  0.7066  0.0342 -0.6992
   31MOL    N2110281   0.664   6.999   0.419 -0.1933  0.1094  0.1334
   31MOL    C2210282   0.737   7.055   0.311 -0.0234 -0.0020  0.5812
   31MOL    C2310283   0.879   7.005   0.330 -0.0396 -0.4999 -0.1675
   31MOL    C2410284   0.884   6.913   0.457 -0.3188  0.2985 -0.1916
   31MOL    C2510285   0.736   6.915   0.498 -0.6151 -0.2185 -0.1418
   31MOL    O2610286   0.693   6.852   0.595 -0.0736  0.3239  0.0572
   31MOL    H2710287   0.495   7.011   0.647  2.5247  0.9725  1.2974
   31MOL    H2810288   0.598   7.148   0.594 -0.9864  0.4919  2.3620
   31MOL    H2910289   0.511   7.115   0.357  1.4140 -0.0792 -0.9383
   31MOL    H3010290   0.700   7.029   0.212  0.6300  1.4153 -0.0627
   31MOL    H3110291   0.728   7.164   0.315  0.8983  0.1911 -1.6181
   31MOL    H3210292   0.903   6.942   0.244 -0.5229  1.2824 -1.6542
   31MOL    H3310293   0.949   7.087   0.348 -1.2792  0.5908 -0.2141
   31MOL    H3410294   0.919   6.812   0.435 -1.9708  0.0237 -1.7003
   31MOL    H3510295   0.937   6.967   0.535  0.6609  0.5711 -1.0263
   31MOL    C3610296   0.430   6.916   0.404 -0.1297  0.0768 -0.6731
   31MOL    C3710297   0.300   6.956   0.330  0.2245  0.3871 -0.4263
   31MOL    N3810298   0.328   7.004   0.191 -0.6494 -0.2772 -0.1144
   31MOL    C3910299   0.245   7.113   0.146  0.4736 -0.2415  0.5125
   31MOL    C4010300   0.258   7.099   7.896  0.1171  0.6381 -0.5918
   31MOL    C4110301   0.391   7.023   7.872  0.6500  0.2784 -0.2326
   31MOL    C4210302   0.416   6.959   0.100  0.0038 -0.3510  0.3439
   31MOL    O4310303   0.499   6.872   0.116  0.0648 -0.0494  0.0149
   31MOL    H4410304   0.400   6.865   0.495  0.6023 -0.4329 -0.7063
   31MOL    H4510305   0.488   6.842   0.349  0.5143 -0.8635  1.2109
   31MOL    H4610306   0.256   7.035   0.390  1.5686 -0.0692  1.1996
   31MOL    H4710307   0.150   7.110   0.200 -0.6782  0.2718 -1.4413
   31MOL    H4810308   0.290   7.209   0.169 -1.1046  0.3391  1.2749
   31MOL    H4910309   0.177   7.032   7.868  2.0222 -2.6514  1.4555
   31MOL    H5010310   0.243   7.201   7.860  0.7535  1.2095  0.7076
   31MOL    H5110311   0.389   6.948   7.793  1.3738  1.9000 -1.8277
   31MOL    H5210312   0.468   7.092   7.838  0.8386  0.0573 -0.2489
   31MOL    C5310313   0.194   6.843   0.336 -0.2849 -0.7925 -0.0680
   31MOL    C5410314   0.138   6.800   0.475 -0.2794 -0.4294  0.4578
   31MOL    N5510315   0.101   6.914   0.562 -0.6847  0.2166  0.0032
   31MOL    C5610316   0.161   6.927   0.693  0.2594 -0.3667 -0.2259
   31MOL    C5710317   0.070   7.020   0.774  0.1439 -0.2097  0.4952
   31MOL    C5810318   7.887   7.088   0.662 -0.4104  0.0904 -0.6280
   31MOL    C5910319   0.003   7.002   0.542  0.3300 -0.0920  0.1090
   31MOL    O6010320   7.847   7.007   0.435 -0.1747 -0.1021  0.5033
   31MOL    H6110321   0.242   6.762   0.282 -0.8947 -1.1241 -0.1073
   31MOL    H6210322   0.107   6.862   0.274  0.8792  0.9064 -1.2265
   31MOL    H6310323   0.222   6.744   0.515  2.0258  0.9270 -2.3099
   31MOL    H6410324   0.152   6.833   0.747  0.3478  0.5275  1.3631
   31MOL    H6510325   0.264   6.963   0.694  0.1928 -0.1469 -0.7807
   31MOL    H6610326   7.901   6.978   0.841  2.4739 -1.5346  2.3305
   31MOL    H6710327   0.128   7.088   0.836 -0.5297 -0.6712  1.6713
   31MOL    H6810328   7.780   7.104   0.674 -0.3604  0.5633 -0.8248
   31MOL    H6910329   0.020   7.185   0.634  1.2139 -0.6553 -1.0473
   31MOL    C7010330   0.014   6.701   0.469  0.0503 -0.2266 -0.1917
   31MOL    C7110331   7.873   6.645   0.606  0.1655 -0.0366 -0.1767
   31MOL    N7210332   7.742   6.576   0.597  0.0341  0.3491 -0.1248
   31MOL    C7310333   7.707   6.480   0.488  0.4382  0.1892  0.5397
   31MOL    C7410334   7.561   6.466   0.487  0.4350 -0.2481  0.8991
   31MOL    C7510335   7.507   6.564   0.588 -0.2817 -0.1317 -0.3601
   31MOL    C7610336   7.631   6.621   0.659  0.1564 -0.6717  0.3019
   31MOL    O7710337   7.619   6.699   0.754 -0.1778  0.3461 -0.1391
   31MOL    H7810338   0.028   6.609   0.412 -3.1607 -0.0203 -1.3992
   31MOL    H7910339   7.833   6.749   0.424 -0.1029 -0.9051 -0.6202
   31MOL    H8010340   7.866   6.722   0.683  1.5242 -0.4440  0.3643
   31MOL    H8110341   7.733   6.512   0.387  0.0797 -0.3307  0.2791
   31MOL    H8210342   7.753   6.384   0.510 -1.8840 -1.1277 -0.2643
   31MOL    H8310343   7.514   6.494   0.393  0.4638 -2.1965  0.2782
   31MOL    H8410344   7.541   6.363   0.519 -0.3928 -0.8084 -1.3305
   31MOL    H8510345   7.439   6.637   0.544 -2.3144 -2.1266 -0.6278
   31MOL    H8610346   7.443   6.506   0.655 -1.5436  0.1910 -1.2508
   31MOL    C8710347   0.084   6.558   0.676  0.5787 -1.0262  0.3808
   31MOL    C8810348   0.069   6.518   0.822  0.3780  0.1860  0.2129
   31MOL    N8910349   0.164   6.408   0.856 -0.0766  0.3609 -0.8946
   31MOL    C9010350   0.302   6.426   0.892 -0.0392 -1.0206 -0.7454
   31MOL    C9110351   0.379   6.292   0.872  1.2069 -0.7884  0.4208
   31MOL    C9210352   0.265   6.195   0.845 -0.7652 -0.3622 -0.0469
   31MOL    C9310353   0.141   6.282   0.832  0.0796 -0.3316 -0.0994
   31MOL    O9410354   0.037   6.234   0.781  0.2329 -0.2135 -0.0619
   31MOL    H9510355   0.181   6.606   0.667  0.5813 -0.5608  2.4451
   31MOL    H9610356   0.094   6.468   0.616 -0.4024 -0.9046  0.0284
   31MOL    H9710357   7.875   6.476   0.827  0.3995  0.1095 -0.0239
   31MOL    H9810358   0.350   6.498   0.826 -0.1499  2.3491  2.6934
   31MOL    H9910359   0.315   6.473   0.989 -2.0007  0.0517 -0.9886
   31MOL   H10010360   0.440   6.302   0.782  0.6282  2.6254  0.3671
   31MOL   H10110361   0.442   6.253   0.952  2.0350 -0.9972 -0.3194
   31MOL   H10210362   0.291   6.117   0.773  1.0307 -1.6026  1.8629
   31MOL   H10310363   0.255   6.133   0.934  0.5222 -2.4345 -1.3017
   31MOL   C10410364   0.077   6.639   0.919 -1.2605 -0.8201 -0.4532
   31MOL   C10510365   0.029   6.613   1.063  0.0563 -0.1109 -0.6233
   31MOL   N10610366   0.080   6.708   1.167 -0.4366  0.0469  0.0965
   31MOL   C10710367   0.057   6.854   1.158 -0.1592 -0.4323 -0.6001
   31MOL   C10810368   0.128   6.918   1.276  0.1796  0.2060  0.3336
   31MOL   C10910369   0.196   6.802   1.349 -0.0516  0.1329 -0.7865
   31MOL   C11010370   0.162   6.683   1.264  0.5381  0.5262  0.5896
   31MOL   O11110371   0.205   6.570   1.294  0.1572 -0.3230  0.2516
   31MOL   H11210372   0.007   6.717   0.889  2.7421  3.5610  0.9605
   31MOL   H11310373   0.177   6.680   0.913 -0.0656 -2.9549  3.1367
   31MOL   H11410374   0.057   6.511   1.091 -1.2606 -0.1509  0.5846
   31MOL   H11510375   0.096   6.897   1.066  0.9152  1.8850  0.8749
   31MOL   H11610376   7.859   6.877   1.180  0.1059 -0.9180  1.2404
   31MOL   H11710377   0.195   7.002   1.256  0.5557 -0.2681 -0.4115
   31MOL   H11810378   0.064   6.970   1.347  1.2154 -0.7114  1.9704
   31MOL   H11910379   0.150   6.803   1.447 -1.3691  1.7423 -1.4005
   31MOL   H12010380   0.303   6.815   1.364  0.1516  0.7474 -2.6352
   31MOL   C12110381   7.777   6.597   1.075 -0.7394  0.2579 -0.1509
   31MOL   C12210382   7.721   6.548   1.209 -0.3597 -0.0513 -0.5987
   31MOL   N12310383   7.576   6.556   1.207  0.0910 -0.1791  0.6295
   31MOL   C12410384   7.507   6.639   1.304  1.2180 -0.3004 -0.2631
   31MOL   C12510385   7.355   6.614   1.277 -0.9715  0.3993  0.1224
   31MOL   C12610386   7.347   6.533   1.159  0.1503  0.2617 -0.0493
   31MOL   C12710387   7.492   6.498   1.120  0.3279  0.6238 -0.1268
   31MOL   O12810388   7.520   6.428   1.023 -0.2806  0.5108 -0.1814
   31MOL   H12910389   7.747   6.517   1.008  0.4496 -1.0907  0.9082
   31MOL   H13010390   7.727   6.689   1.043  1.7209  2.1937  1.3631
   31MOL   H13110391   7.747   6.615   1.291  2.1929  0.9125 -2.1258
   31MOL   H13210392   7.532   6.735   1.257  1.4241  0.4300  1.3153
   31MOL   H13310393   7.537   6.638   1.409 -1.3378  0.5146  0.4969
   31MOL   H13410394   7.321   6.556   1.363  1.1473 -0.9385  0.1046
   31MOL   H13510395   7.306   6.712   1.274 -3.6090 -0.8584  0.5936
   31MOL   H13610396   7.302   6.435   1.178 -1.3867  1.4295  2.4422
   31MOL   H13710397   7.298   6.570   1.069  1.2557 -0.4048 -0.9350
   31MOL   C13810398   7.769   6.411   1.266 -0.3322  0.4508 -0.5388
   31MOL   C13910399   7.715   6.360   1.407  0.1670 -0.2913  0.5174
   31MOL   N14010400   7.584   6.299   1.401 -0.2408  1.4203 -0.3477
   31MOL   C14110401   7.553   6.191   1.313 -0.4447 -0.0623 -0.1635
   31MOL   C14210402   7.419   6.131   1.358 -0.0414  0.4984 -0.5033
   31MOL   C14310403   7.370   6.223   1.479  0.4340  0.3045 -0.9380
   31MOL   C14410404   7.488   6.326   1.487  1.7006  0.6212 -0.7669
   31MOL   O14510405   7.475   6.423   1.558 -0.1747  0.0182 -0.3304
   31MOL   H14610406   7.873   6.436   1.288 -0.9330  0.2074  3.0218
   31MOL   H14710407   7.777   6.329   1.195 -1.1198 -1.3406  1.3716
   31MOL   H14810408   7.720   6.454   1.462  0.4761  0.4659 -0.7942
   31MOL   H14910409   7.542   6.237   1.215  0.2569  0.3488 -0.0476
   31MOL   H15010410   7.635   6.119   1.319  0.2028  0.7372  0.6713
   31MOL   H15110411   7.350   6.133   1.274 -0.0580  1.6274 -0.4763
   31MOL   H15210412   7.435   6.029   1.391 -3.8855  0.5226  1.8493
   31MOL   H15310413   7.358   6.168   1.572 -0.1787  2.0513  0.0392
   31MOL   H15410414   7.278   6.279   1.466 -1.1327 -2.3722 -1.8173
   31MOL   C15510415   7.817   6.263   1.483 -0.7641 -0.2965  0.6049
   31MOL   C15610416   0.037   6.330   1.547 -0.4506  0.5397 -0.3701
   31MOL   N15710417   0.009   6.447   1.640  0.4550 -0.4559 -0.1234
   31MOL   C15810418   0.058   6.574   1.591 -0.1981 -0.0438 -0.4219
   31MOL   C15910419   0.024   6.669   1.712  0.7989 -0.1537  0.5545
   31MOL   C16010420   7.828   6.601   1.802 -0.3907 -0.2699 -0.3256
   31MOL   C16110421   7.829   6.458   1.749 -0.3716  0.2172 -0.5720
   31MOL   O16210422   7.762   6.368   1.803 -0.6155  0.2293 -0.1844
   31MOL   H16310423   7.847   6.185   1.413  1.4301  0.4646  0.6538
   31MOL   H16410424   7.759   6.211   1.560 -0.5998  1.0658  1.6624
   31MOL   H16510425   0.101   6.367   1.467 -1.1210 -0.2889 -1.2950
   31MOL   H16610426   0.166   6.566   1.577 -0.0011 -3.8455  2.3280
   31MOL   H16710427   0.015   6.585   1.492 -1.7763 -0.0953  0.2404
   31MOL   H16810428   0.113   6.690   1.771  2.0877 -0.4526 -1.2266
   31MOL   H16910429   7.886   6.761   1.673  1.1478 -0.6087 -0.9654
   31MOL   H17010430   7.846   6.610   1.909 -1.9173  0.6129 -0.1205
   31MOL   H17110431   7.728   6.644   1.791  0.3438  1.4499 -0.3897
   31MOL   C17210432   0.107   6.221   1.635  0.5541  0.0196 -0.2824
   31MOL   C17310433   0.132   6.088   1.568  0.5635 -0.6834 -0.4442
   31MOL   N17410434   0.205   6.108   1.446  0.4013 -0.8524  0.6975
   31MOL   C17510435   0.169   6.055   1.315 -0.3090  0.3230 -0.0438
   31MOL   C17610436   0.278   6.112   1.224 -0.1930 -0.0746  0.0910
   31MOL   C17710437   0.398   6.124   1.312 -0.2746  0.4102 -0.9084
   31MOL   C17810438   0.334   6.145   1.448 -0.1557 -0.3622  0.0960
   31MOL   O17910439   0.399   6.199   1.542  0.0948 -0.5979  0.3277
   31MOL   H18010440   0.049   6.189   1.721  0.6776  1.2005  0.2546
   31MOL   H18110441   0.195   6.265   1.682  0.6888  0.6781 -1.1300
   31MOL   H18210442   0.037   6.039   1.550 -1.5789  2.8443  0.7273
   31MOL   H18310443   0.178   5.946   1.318  1.7836  0.3959 -2.0489
   31MOL   H18410444   0.067   6.079   1.284 -0.9595 -1.4421  0.6411
   31MOL   H18510445   0.249   6.207   1.181  0.3373  0.9032  1.8609
   31MOL   H18610446   0.279   6.044   1.139 -0.5982  0.1733 -0.1160
   31MOL   H18710447   0.451   6.029   1.321  2.7798  2.2463  1.7863
   31MOL   H18810448   0.461   6.212   1.300  0.3894  0.0120 -0.4055
   31MOL   C18910449   0.206   5.994   1.668 -0.1616  0.7025  0.7039
   31MOL   C19010450   0.131   5.957   1.800 -0.2557  0.1492  0.3958
   31MOL   N19110451   0.004   5.890   1.782  0.4553 -0.4606 -0.0652
   31MOL   C19210452   7.808   5.926   1.874 -0.0585  0.1953  0.1492
   31MOL   C19310453   7.689   5.842   1.838  0.0759 -0.5433  0.0600
   31MOL   C19410454   7.742   5.737   1.739  0.5339  0.5835  0.0879
   31MOL   C19510455   7.880   5.788   1.704 -0.2597 -0.1495  0.2170
   31MOL   O19610456   0.044   5.741   1.620 -0.5972  0.2583  0.6108
   31MOL   H19710457   0.307   6.029   1.686  0.8768 -0.4521 -2.5707
   31MOL   H19810458   0.222   5.903   1.610 -2.4326  1.3190 -0.9485
   31MOL   H19910459   0.102   6.047   1.855 -0.4136  0.6019 -0.4073
   31MOL   H20010460   7.835   5.897   1.976  2.9880 -1.9198 -1.1846
   31MOL   H20110461   7.785   6.033   1.874 -0.0753  0.1933 -1.5387
   31MOL   H20210462   7.649   5.804   1.931 -1.3261  1.9161  0.5248
   31MOL   H20310463   7.611   5.907   1.798  0.2011 -0.4972 -0.1104
   31MOL   H20410464   7.757   5.643   1.792 -1.7300  1.3777  2.2330
   31MOL   H20510465   7.673   5.717   1.657  0.5063  0.1163  0.2211
   31MOL   C20610466   0.221   5.881   1.897 -0.5511 -0.0879  0.2569
   31MOL   C20710467   0.331   5.962   1.976  0.2253 -0.3695 -0.2700
   31MOL   N20810468   0.310   6.102   2.003 -0.4218  0.0211  0.0791
   31MOL   C20910469   0.380   6.211   1.937  0.0885 -0.4426 -1.1962
   31MOL   C21010470   0.298   6.334   1.969 -0.2020  0.1426 -0.0498
   31MOL   C21110471   0.190   6.299   2.069  0.0037 -0.2953 -0.2300
   31MOL   C21210472   0.206   6.150   2.073 -0.2653  0.2586  0.0262
   31MOL   O21310473   0.136   6.079   2.146  0.2867 -0.6859  0.4090
   31MOL   H21410474   0.265   5.792   1.853 -1.3975 -0.5500  0.3381
   31MOL   H21510475   0.150   5.852   1.974 -0.6801 -1.7802 -0.4927
   31MOL   H21610476   0.419   5.960   1.911  1.9552  0.4247  2.0091
   31MOL   H21710477   0.482   6.229   1.972  0.5218 -2.8234 -1.1153
   31MOL   H21810478   0.376   6.195   1.829  1.0641 -2.2458 -0.9896
   31MOL   H21910479   0.361   6.416   2.003 -0.7793  1.1922 -1.4313
   31MOL   H22010480   0.247   6.384   1.886  1.5238 -2.4170 -2.7255
   31MOL   H22110481   0.204   6.349   2.165 -2.4622 -1.3452  0.7155
   31MOL   H22210482   0.090   6.321   2.032  0.3672 -1.0464 -1.6612
   31MOL   C22310483   0.356   5.877   2.099 -0.4537  0.0986 -0.4095
   31MOL   C22410484   0.482   5.911   2.181  0.6453 -0.0760 -0.0486
   31MOL   N22510485   0.467   5.855   2.324  0.0282 -0.5150  0.1240
   31MOL   C22610486   0.422   5.945   2.427  0.5000  0.8732 -0.8375
   31MOL   C22710487   0.379   5.849   2.545  0.2425 -0.3001 -1.0276
   31MOL   C22810488   0.419   5.711   2.499 -0.6189  0.1067 -0.0714
   31MOL   C22910489   0.464   5.731   2.357 -0.0758 -0.1249 -0.1434
   31MOL   O23010490   0.487   5.632   2.282  0.1036  0.0661  0.4218
   31MOL   H23110491   0.372   5.772   2.074  1.8774  0.5554 -0.9855
   31MOL   H23210492   0.269   5.875   2.164 -0.4951 -0.4607 -0.4764
   31MOL   H23310493   0.477   6.020   2.189 -2.0758  0.0692 -2.7857
   31MOL   H23410494   0.504   6.014   2.442 -0.5612  2.4538 -2.0972
   31MOL   H23510495   0.344   6.012   2.391 -1.6843 -0.9028  0.4130
   31MOL   H23610496   0.439   5.875   2.631 -1.9610  0.1333  0.4171
   31MOL   H23710497   0.277   5.841   2.582  0.1123  0.2465 -1.2671
   31MOL   H23810498   0.491   5.655   2.559 -0.6296 -0.6975 -0.7862
   31MOL   H23910499   0.341   5.635   2.500  0.5626 -1.1528 -1.2884
   31MOL   C24010500   0.609   5.868   2.107 -0.0270 -0.2737  0.8247
   31MOL   C24110501   0.741   5.924   2.160  0.6193  0.4634 -0.0369
   31MOL   N24210502   0.866   5.858   2.098  0.2996 -0.0619 -0.6510
   31MOL   C24310503   0.943   5.764   2.178 -0.0919 -0.3937 -0.7569
   31MOL   C24410504   1.052   5.709   2.088  0.1378 -0.6586  0.4021
   31MOL   C24510505   1.049   5.801   1.968 -0.4398  0.4446  0.0168
   31MOL   C24610506   0.920   5.876   1.977  1.0242 -0.1129 -0.0241
   31MOL   O24710507   0.879   5.946   1.886 -0.7346  0.0087 -0.3610
   31MOL   H24810508   0.594   5.891   2.002  0.5984  0.7458  0.9551
   31MOL   H24910509   0.609   5.759   2.114  2.0570 -0.4707 -1.6842
   31MOL   H25010510   0.742   5.911   2.268 -1.7706 -1.4168 -0.2188
   31MOL   H25110511   0.992   5.815   2.261  0.4506  0.2019 -1.4265
   31MOL   H25210512   0.877   5.688   2.219 -1.2507  0.0753 -1.7522
   31MOL   H25310513   1.148   5.700   2.138 -0.3097 -0.2482  1.3473
   31MOL   H25410514   1.025   5.611   2.048  0.6084  0.3123 -2.4450
   31MOL   H25510515   1.127   5.878   1.961 -0.2732  0.2829  0.0876
   31MOL   H25610516   1.047   5.740   1.877 -0.0692  0.5080 -0.0359
   31MOL   C25710517   0.746   6.074   2.138  0.1458  0.5154  0.3365
   31MOL   C25810518   0.729   6.162   2.269 -0.7600  0.6710  0.1868
   31MOL   N25910519   0.857   6.146   2.357 -0.6443 -0.3916  0.8959
   31MOL   C26010520   0.829   6.113   2.498 -0.3031 -1.2230  0.0865
   31MOL   C26110521   0.961   6.066   2.554  0.1115  0.2927  0.2281
   31MOL   C26210522   1.061   6.138   2.469  0.3390 -0.1140  0.5420
   31MOL   C26310523   0.987   6.178   2.344  0.3731 -0.0236  0.3797
   31MOL   O26410524   1.038   6.233   2.245  0.1454 -0.2130 -0.5120
   31MOL   H26510525   0.671   6.105   2.066  0.9357 -1.6455 -1.4792
   31MOL   H26610526   0.845   6.103   2.102  0.1152 -1.5001 -1.4659
   31MOL   H26710527   0.635   6.134   2.316 -1.4330  0.4428 -1.2602
   31MOL   H26810528   0.798   6.204   2.549  0.1859 -0.9670 -0.0666
   31MOL   H26910529   0.752   6.036   2.494 -2.6512  1.0635 -0.1272
   31MOL   H27010530   0.980   6.090   2.659  1.9754  0.6485 -0.1793
   31MOL   H27110531   0.989   5.961   2.547  2.0006  0.5915  2.5939
   31MOL   H27210532   1.107   6.212   2.535  0.5028 -0.4116  0.7640
   31MOL   H27310533   1.142   6.067   2.453 -0.4612 -1.2993  1.6234
   31MOL   C27410534   0.716   6.314   2.229 -0.1002 -0.4979  0.2439
   31MOL   C27510535   0.701   6.421   2.339 -0.0542  0.2859 -0.2280
   31MOL   N27610536   0.757   6.547   2.279 -0.4589  0.5974 -0.5018
   31MOL   C27710537   0.890   6.588   2.312  0.3012 -0.1583  0.4201
   31MOL   C27810538   0.912   6.720   2.245 -0.3407  0.1204 -0.0121
   31MOL   C27910539   0.807   6.718   2.132 -0.4238 -0.1967  0.2077
   31MOL   C28010540   0.711   6.605   2.169  0.5949  0.5748 -0.0135
   31MOL   O28110541   0.609   6.577   2.108  0.1205 -0.0137 -0.3480
   31MOL   H28210542   0.626   6.325   2.168 -0.1577  0.6969  0.5474
   31MOL   H28310543   0.805   6.338   2.170 -1.8877  1.6880 -1.6359
   31MOL   H28410544   0.759   6.393   2.426  0.2979 -0.1118 -0.5870
   31MOL   H28510545   0.903   6.601   2.420 -1.9181  0.1648  0.6763
   31MOL   H28610546   0.956   6.511   2.271 -0.5959 -0.9628  0.4704
   31MOL   H28710547   0.910   6.806   2.311  2.2179  1.4095 -1.5223
   31MOL   H28810548   1.008   6.733   2.194 -0.2551  2.7071  0.7323
   31MOL   H28910549   0.758   6.815   2.133  0.4253  0.2323  2.3977
   31MOL   H29010550   0.845   6.687   2.035  1.6952  3.1482 -0.0961
   31MOL   C29110551   0.559   6.433   2.389  0.0534  0.1934  0.3483
   31MOL   C29210552   0.530   6.532   2.510  0.6486 -0.4220 -0.3896
   31MOL   N29310553   0.537   6.680   2.476 -0.1656  0.0011  0.6574
   31MOL   C29410554   0.433   6.755   2.397  0.0181 -0.0486  0.2185
   31MOL   C29510555   0.489   6.902   2.388  0.1607  1.0794  0.5184
   31MOL   C29610556   0.602   6.906   2.497 -0.2969  0.1405 -0.4213
   31MOL   C29710557   0.633   6.768   2.525 -0.1807 -0.4562 -0.1084
   31MOL   O29810558   0.743   6.730   2.571 -0.2905 -0.6289  0.0066
   31MOL   H29910559   0.518   6.338   2.424 -0.1251  0.1500  0.0236
   31MOL   H30010560   0.482   6.463   2.318  0.6899  0.6939 -0.1372
   31MOL   H30110561   0.606   6.523   2.588 -0.6968  0.1699  1.0232
   31MOL   H30210562   0.397   6.715   2.302  0.8251 -0.8192  0.2361
   31MOL   H30310563   0.346   6.772   2.461 -0.1073 -0.5665  0.1856
   31MOL   H30410564   0.529   6.929   2.291  1.6852 -0.4175  0.6989
   31MOL   H30510565   0.407   6.964   2.424  1.0590  1.6193  1.6496
   31MOL   H30610566   0.697   6.950   2.466 -0.8284  1.4754 -0.2020
   31MOL   H30710567   0.573   6.956   2.590  1.4265  2.8873 -1.2888
   31MOL   C30810568   0.402   6.498   2.595  0.1578 -0.6522  0.0563
   31MOL   C30910569   0.402   6.360   2.663  0.2125  0.1062  0.4469
   31MOL   N31010570   0.520   6.330   2.744 -0.0142  0.7509 -0.3824
   31MOL   C31110571   0.566   6.193   2.755  0.3783 -0.4880  0.1675
   31MOL   C31210572   0.691   6.192   2.843 -0.4315  0.3476 -0.0984
   31MOL   C31310573   0.685   6.330   2.916 -0.4814  0.4033  0.0492
   31MOL   C31410574   0.581   6.408   2.838  0.0919  0.1245  0.4665
   31MOL   O31510575   0.559   6.527   2.863 -0.1363 -0.4542 -0.2652
   31MOL   H31610576   0.316   6.507   2.529 -0.8938  3.4545  1.8587
   31MOL   H31710577   0.374   6.564   2.676  2.0345 -0.6305  0.7291
   31MOL   H31810578   0.391   6.280   2.589 -2.4706 -0.2921  1.2190
   31MOL   H31910579   0.486   6.128   2.790  0.2131 -0.2338  0.2595
   31MOL   H32010580   0.588   6.157   2.654 -1.8349 -2.4493  0.3432
   31MOL   H32110581   0.696   6.111   2.916  1.8134  0.5364 -0.0012
   31MOL   H32210582   0.788   6.181   2.795  0.3952  0.8768  1.4165
   31MOL   H32310583   0.666   6.318   3.023 -1.6221  0.7345 -0.1069
   31MOL   H32410584   0.777   6.386   2.899 -0.3162 -0.3711 -1.6463
   31MOL   C32510585   0.282   6.339   2.757  0.7194 -0.0480  0.1886
   31MOL   C32610586   0.142   6.370   2.699  0.0498  0.0499  0.8262
   31MOL   N32710587   0.102   6.291   2.583  0.0417 -0.7157 -0.4824
   31MOL   C32810588   0.038   6.368   2.473 -0.1600 -0.1042  0.0737
   31MOL   C32910589   7.865   6.259   2.401  0.7079 -0.4905 -0.1867
   31MOL   C33010590   0.011   6.123   2.449 -0.2963  0.4748  0.8510
   31MOL   C33110591   0.085   6.162   2.572 -0.6474  0.3708  0.6982
   31MOL   O33210592   0.134   6.070   2.638 -0.6878 -0.0408 -0.0653
   31MOL   H33310593   0.290   6.394   2.850  1.5526 -1.1254  0.7644
   31MOL   H33410594   0.279   6.238   2.798 -3.2674 -0.3309 -0.5542
   31MOL   H33510595   0.145   6.477   2.674  1.2092 -0.3038 -0.6333
   31MOL   H33610596   7.877   6.440   2.519 -0.2330  1.1244 -1.8614
   31MOL   H33710597   0.113   6.420   2.412  0.2690 -1.2172 -0.3640
   31MOL   H33810598   7.761   6.283   2.426  1.2622  1.4822  0.3395
   31MOL   H33910599   7.875   6.286   2.296  0.8519 -2.0841 -0.6022
   31MOL   H34010600   7.839   6.061   2.494 -2.0080  3.7424  2.5533
   31MOL   H34110601   0.084   6.075   2.384  1.1346  1.0801  1.9743
   31MOL   H34210602   0.070   6.369   2.780  0.0049 -0.4380  0.7761
   32MOL     C110603   4.426   6.561   5.245 -0.1603  0.0552  1.1063
   32MOL     C210604   4.320   6.528   5.364 -0.1829 -0.1396 -0.2085
   32MOL     N310605   4.221   6.419   5.339  0.9478 -0.0823 -0.3078
   32MOL     C410606   4.077   6.456   5.331  0.0121 -0.1465  0.1278
   32MOL     C510607   4.003   6.318   5.345 -1.0921 -0.1970  0.1106
   32MOL     C610608   4.108   6.220   5.287  1.2172  0.3988  0.0771
   32MOL     C710609   4.239   6.293   5.309 -0.3988  0.5241  0.5311
   32MOL     O810610   4.350   6.239   5.299  0.0532  0.2542 -0.0196
   32MOL     H910611   4.499   6.482   5.231 -0.1701 -0.0151  1.4248
   32MOL    H1010612   4.368   6.571   5.153  0.0708  1.7614  1.1301
   32MOL    H1110613   4.261   6.619   5.371  1.3074  0.8862 -0.6930
   32MOL    H1210614   4.039   6.532   5.399 -1.6634 -0.0642 -0.8889
   32MOL    H1310615   4.058   6.494   5.231 -0.1723 -2.3099 -0.6690
   32MOL    H1410616   3.980   6.287   5.447 -1.8931  0.4773  0.1427
   32MOL    H1510617   3.909   6.319   5.290  1.0439  1.8397 -3.6959
   32MOL    H1610618   4.100   6.127   5.343 -1.6043  0.6600  0.1941
   32MOL    H1710619   4.103   6.203   5.179  1.4160  0.7018  0.0169
   32MOL    H1810620   4.480   6.652   5.272  1.7698 -1.0056  0.8657
   32MOL    C1910621   4.411   6.503   5.494 -0.0341 -0.4238 -0.0547
   32MOL    C2010622   4.352   6.511   5.639 -0.2072 -0.4576 -0.0014
   32MOL    N2110623   4.446   6.476   5.742 -0.2379  0.0598 -0.8030
   32MOL    C2210624   4.418   6.372   5.850 -0.2688 -0.2058 -0.0256
   32MOL    C2310625   4.546   6.369   5.935  0.3629  0.1574  0.3889
   32MOL    C2410626   4.600   6.514   5.916  0.4703 -0.2441  0.3949
   32MOL    C2510627   4.550   6.552   5.778  0.3621 -0.0016 -0.2313
   32MOL    O2610628   4.609   6.640   5.716  0.1701 -0.0340 -0.2069
   32MOL    H2710629   4.493   6.575   5.496 -2.7317  2.7113  0.5252
   32MOL    H2810630   4.454   6.403   5.480  0.8618  0.0501 -0.7218
   32MOL    H2910631   4.280   6.429   5.629 -2.1879  1.2116  0.2862
   32MOL    H3010632   4.341   6.404   5.920 -0.0977  0.5387 -0.1697
   32MOL    H3110633   4.389   6.272   5.817 -0.4295  0.1140 -0.8710
   32MOL    H3210634   4.526   6.346   6.040  3.2197  0.3832  1.0131
   32MOL    H3310635   4.612   6.289   5.901 -1.1528 -0.0578 -2.1665
   32MOL    H3410636   4.548   6.584   5.982  2.3185  0.6363  0.9534
   32MOL    H3510637   4.706   6.528   5.936  0.1877  0.6389  1.3687
   32MOL    C3610638   4.276   6.646   5.658  0.4310  0.1117 -0.2679
   32MOL    C3710639   4.186   6.658   5.785 -0.7260  0.5239  0.0862
   32MOL    N3810640   4.180   6.802   5.812 -0.1917 -0.0650 -0.6076
   32MOL    C3910641   4.234   6.849   5.940 -0.1223  0.5092  0.4083
   32MOL    C4010642   4.225   6.998   5.943  0.3356 -0.3346  0.2082
   32MOL    C4110643   4.168   7.041   5.806  0.1363 -0.0525  0.3034
   32MOL    C4210644   4.134   6.908   5.741 -0.2079  0.4871  0.0253
   32MOL    O4310645   4.079   6.895   5.629 -0.3149  0.3392  0.1314
   32MOL    H4410646   4.217   6.657   5.567  0.7821 -0.0828 -0.5180
   32MOL    H4510647   4.344   6.731   5.665 -0.7566  1.2172 -1.8523
   32MOL    H4610648   4.240   6.626   5.874 -0.5144 -0.3501 -0.3462
   32MOL    H4710649   4.191   6.794   6.024  1.7495  0.2004  1.1860
   32MOL    H4810650   4.339   6.822   5.939 -0.0781  0.6342  1.0412
   32MOL    H4910651   4.168   7.028   6.031  2.0144  1.8491  0.6026
   32MOL    H5010652   4.322   7.045   5.961 -0.5066  2.2331 -1.6863
   32MOL    H5110653   4.080   7.104   5.804  0.6915  0.7481  0.8017
   32MOL    H5210654   4.252   7.089   5.756 -0.3450  1.2627  0.7254
   32MOL    C5310655   4.040   6.596   5.782  0.0609  0.2661  0.2124
   32MOL    C5410656   4.033   6.449   5.824  0.0186  0.3699  0.2561
   32MOL    N5510657   4.009   6.436   5.972 -0.8206 -0.4583 -0.2714
   32MOL    C5610658   4.120   6.415   6.071  0.0920  0.3083  0.0679
   32MOL    C5710659   4.046   6.404   6.206  0.0906 -0.4767 -0.2813
   32MOL    C5810660   3.895   6.415   6.177 -0.0090 -0.0991  1.0703
   32MOL    C5910661   3.886   6.435   6.027  0.5292 -0.6078 -0.0018
   32MOL    O6010662   3.775   6.438   5.975 -0.3613  0.3403  0.0402
   32MOL    H6110663   4.000   6.618   5.683  1.8146  1.4654 -0.2428
   32MOL    H6210664   3.970   6.653   5.843 -2.2733 -2.8743  0.5946
   32MOL    H6310665   4.133   6.412   5.801 -0.5662 -0.8885 -0.2874
   32MOL    H6410666   4.167   6.322   6.039 -1.0313 -1.2231  2.7584
   32MOL    H6510667   4.191   6.498   6.076  1.3729 -0.7136 -0.5613
   32MOL    H6610668   4.059   6.302   6.242 -0.9250 -0.3766  0.3867
   32MOL    H6710669   4.077   6.473   6.284 -0.6604 -1.2593  0.7199
   32MOL    H6810670   3.833   6.328   6.198  0.9291 -1.0029  0.1349
   32MOL    H6910671   3.856   6.507   6.220 -0.1995 -0.9575  2.7559
   32MOL    C7010672   3.957   6.355   5.732  0.2134  1.0817  0.1931
   32MOL    C7110673   3.953   6.210   5.783  0.0254 -0.5353  0.0656
   32MOL    N7210674   3.853   6.128   5.711 -0.2032 -0.0647 -0.5996
   32MOL    C7310675   3.718   6.119   5.763 -0.5314 -0.1267 -0.5387
   32MOL    C7410676   3.639   6.065   5.653  0.4212  0.4587 -0.1267
   32MOL    C7510677   3.731   6.007   5.546 -0.5022 -0.3847 -0.0721
   32MOL    C7610678   3.868   6.056   5.598 -0.4357 -0.0342 -0.2022
   32MOL    O7710679   3.968   6.033   5.528 -0.4937 -0.2455 -0.3609
   32MOL    H7810680   4.001   6.363   5.633 -1.3422 -1.9684 -0.8278
   32MOL    H7910681   3.854   6.388   5.739 -0.9071 -2.1384 -0.0948
   32MOL    H8010682   3.916   6.214   5.885  1.5867 -0.9891  0.6549
   32MOL    H8110683   3.718   6.057   5.854  1.7589 -0.2211 -0.5614
   32MOL    H8210684   3.677   6.216   5.789 -1.3920 -0.6976  0.2903
   32MOL    H8310685   3.563   5.993   5.684  0.2410  0.9454  0.5711
   32MOL    H8410686   3.583   6.151   5.616 -0.0250 -0.0288 -0.5839
   32MOL    H8510687   3.745   5.899   5.555  1.1155 -0.0528  2.0049
   32MOL    H8610688   3.715   6.028   5.441 -3.0046  0.9279  0.5414
   32MOL    C8710689   4.093   6.136   5.791  0.0355  0.3230 -0.2998
   32MOL    C8810690   4.094   6.002   5.871  0.0130 -0.2291  0.6129
   32MOL    N8910691   4.236   5.966   5.890  0.7576 -0.0015  0.1390
   32MOL    C9010692   4.284   5.876   5.789  0.5520  0.2318 -0.8193
   32MOL    C9110693   4.435   5.860   5.821  0.1935 -0.0214  1.2015
   32MOL    C9210694   4.464   5.949   5.939  0.2038  0.1318  0.0564
   32MOL    C9310695   4.334   6.018   5.969  0.7147  0.1823  0.5116
   32MOL    O9410696   4.320   6.105   6.055 -0.0591  0.5054  0.3362
   32MOL    H9510697   4.167   6.199   5.840  0.8876 -0.8784 -0.0258
   32MOL    H9610698   4.131   6.120   5.690  2.1862  0.1306  0.5232
   32MOL    H9710699   4.045   5.928   5.808  0.7612  0.9693 -1.4065
   32MOL    H9810700   4.229   5.782   5.783  0.6904  0.0055  1.1485
   32MOL    H9910701   4.269   5.924   5.693 -0.8641 -3.0763 -2.3599
   32MOL   H10010702   4.456   5.755   5.841  0.3265 -0.5387 -1.5465
   32MOL   H10110703   4.509   5.892   5.748 -1.3304 -0.1992 -0.4540
   32MOL   H10210704   4.520   5.901   6.019  1.4596  1.7817  0.2027
   32MOL   H10310705   4.542   6.021   5.913  0.2492  0.3175  0.6997
   32MOL   C10410706   4.005   5.999   5.999 -0.3439 -0.2362 -0.1604
   32MOL   C10510707   4.009   5.861   6.075  0.0572  0.3855 -0.2550
   32MOL   N10610708   4.107   5.858   6.193 -0.3796  0.3001 -0.0229
   32MOL   C10710709   4.109   5.965   6.302  0.4871 -0.3500  0.2420
   32MOL   C10810710   4.244   5.942   6.371  0.0605  0.0230  0.3307
   32MOL   C10910711   4.302   5.804   6.318 -0.4612 -0.0632  0.0795
   32MOL   C11010712   4.208   5.768   6.206  0.0444  0.0797 -1.0547
   32MOL   O11110713   4.221   5.666   6.136 -0.5852  0.3800  0.6445
   32MOL   H11210714   3.904   6.017   5.963 -0.2353  0.8392  0.0505
   32MOL   H11310715   4.039   6.086   6.055 -1.8958  0.3740 -0.1435
   32MOL   H11410716   4.049   5.787   6.006  1.6199  0.8784  0.1181
   32MOL   H11510717   4.120   6.064   6.256  1.7113 -0.9204 -0.7172
   32MOL   H11610718   4.020   5.968   6.364  0.2509  1.4735 -0.1455
   32MOL   H11710719   4.301   6.033   6.355 -3.7346  2.4550 -0.1047
   32MOL   H11810720   4.224   5.936   6.479  1.7982  0.4434  0.6834
   32MOL   H11910721   4.294   5.720   6.387 -1.4224  0.9205  1.1758
   32MOL   H12010722   4.404   5.808   6.278 -0.7182  0.3964 -0.5384
   32MOL   C12110723   3.866   5.825   6.127 -0.0481  0.3316 -0.1476
   32MOL   C12210724   3.778   5.765   6.008 -1.2972 -0.3902 -0.0290
   32MOL   N12310725   3.851   5.642   5.977 -0.4977  0.0304  0.3756
   32MOL   C12410726   3.920   5.638   5.844 -0.4042 -0.8747  0.0469
   32MOL   C12510727   4.043   5.550   5.868  0.5861 -0.0953  0.0062
   32MOL   C12610728   4.006   5.462   5.988 -0.3050 -0.3904  0.6162
   32MOL   C12710729   3.886   5.535   6.048 -0.3001 -0.0291  1.1471
   32MOL   O12810730   3.836   5.503   6.155 -0.0508 -0.1656  0.9189
   32MOL   H12910731   3.821   5.912   6.173 -3.4124 -0.0404 -2.5583
   32MOL   H13010732   3.872   5.753   6.208  1.9654  0.1353 -0.4500
   32MOL   H13110733   3.778   5.827   5.918  0.6695  1.0122  0.9054
   32MOL   H13210734   3.953   5.736   5.808  0.3796 -0.8148  0.9294
   32MOL   H13310735   3.856   5.601   5.764 -0.5428  1.2131 -0.8293
   32MOL   H13410736   4.062   5.490   5.779 -0.7452  0.3823 -0.6145
   32MOL   H13510737   4.130   5.613   5.887 -0.3504  1.4804 -0.8564
   32MOL   H13610738   3.982   5.360   5.956 -2.1471  0.3721 -0.5072
   32MOL   H13710739   4.086   5.467   6.062  0.5070  0.6885 -0.3189
   32MOL   C13810740   3.632   5.754   6.053 -0.5231  0.1517  0.0852
   32MOL   C13910741   3.543   5.645   5.997  0.2878  0.2655 -1.0703
   32MOL   N14010742   3.413   5.638   6.075 -0.4065 -0.3197 -0.1021
   32MOL   C14110743   3.407   5.572   6.211 -0.2633 -0.4156 -0.0363
   32MOL   C14210744   3.273   5.600   6.267 -0.4351 -0.0427 -0.1689
   32MOL   C14310745   3.189   5.648   6.142 -0.0041  0.2321  0.3623
   32MOL   C14410746   3.288   5.690   6.046  0.2223 -0.1543  0.4740
   32MOL   O14510747   3.262   5.762   5.953 -0.2323 -0.3893 -0.0735
   32MOL   H14610748   3.588   5.852   6.036 -1.4003 -0.1513  0.6172
   32MOL   H14710749   3.648   5.746   6.160  1.4986 -0.8729 -0.2631
   32MOL   H14810750   3.591   5.552   6.028  2.1290  1.0554 -1.4915
   32MOL   H14910751   3.414   5.464   6.199  3.7772  0.0434 -2.5720
   32MOL   H15010752   3.483   5.610   6.280 -0.3462 -0.2569 -0.0331
   32MOL   H15110753   3.240   5.505   6.309  3.4843 -0.4331  2.2471
   32MOL   H15210754   3.274   5.677   6.344  0.4153 -0.7208  0.4995
   32MOL   H15310755   3.121   5.729   6.168 -2.0105 -1.5231  0.6838
   32MOL   H15410756   3.132   5.565   6.101 -2.5705  1.1089  2.0539
   32MOL   C15510757   3.522   5.648   5.845  0.2627 -0.6525 -0.1134
   32MOL   C15610758   3.468   5.519   5.788 -0.2934  0.3748 -0.0460
   32MOL   N15710759   3.442   5.519   5.642 -0.1829 -0.1376 -0.0162
   32MOL   C15810760   3.317   5.466   5.586  0.1201 -0.1783 -0.5067
   32MOL   C15910761   3.340   5.440   5.436 -0.2861  0.3794  0.1125
   32MOL   C16010762   3.467   5.523   5.408 -0.2785 -0.5524  0.2163
   32MOL   C16110763   3.530   5.548   5.544  1.0435 -0.5767  0.7198
   32MOL   O16210764   3.645   5.585   5.562 -0.5192  0.2387  0.1730
   32MOL   H16310765   3.617   5.668   5.795  0.8011 -0.5115  0.9657
   32MOL   H16410766   3.449   5.724   5.819  2.6626  1.7109 -0.1144
   32MOL   H16510767   3.375   5.499   5.841 -0.1155 -1.8557 -0.5002
   32MOL   H16610768   3.291   5.379   5.646  1.8376 -0.3975 -0.0594
   32MOL   H16710769   3.256   5.553   5.609 -0.1539 -0.2687 -0.8785
   32MOL   H16810770   3.344   5.331   5.432 -0.0944  0.4606 -3.1765
   32MOL   H16910771   3.259   5.472   5.371 -1.3362 -2.2514  0.0732
   32MOL   H17010772   3.548   5.476   5.351 -0.5387 -1.0745  0.2709
   32MOL   H17110773   3.435   5.612   5.354  0.3286 -0.5787 -0.1998
   32MOL   C17210774   3.569   5.406   5.829 -0.2167 -0.1021  0.3900
   32MOL   C17310775   3.523   5.307   5.939 -0.3392  0.6917 -0.4251
   32MOL   N17410776   3.392   5.253   5.913 -0.2805  0.1881  0.2006
   32MOL   C17510777   3.272   5.288   5.990 -0.5410  0.4794 -0.5668
   32MOL   C17610778   3.154   5.219   5.932  0.2108 -0.6549  0.6108
   32MOL   C17710779   3.215   5.128   5.828 -0.5446 -0.1179 -0.7707
   32MOL   C17810780   3.360   5.172   5.812  0.0957 -0.5998  0.0353
   32MOL   O17910781   3.431   5.138   5.718 -0.0520  0.1313  0.0694
   32MOL   H18010782   3.669   5.444   5.845 -0.3598  0.0447  0.9290
   32MOL   H18110783   3.594   5.343   5.743 -1.7098  1.1978 -1.0471
   32MOL   H18210784   3.498   5.354   6.033  0.1202 -1.3217  0.7436
   32MOL   H18310785   3.285   5.250   6.091  2.5115 -0.0512 -1.1011
   32MOL   H18410786   3.259   5.396   5.996 -2.5248  0.3861 -2.4247
   32MOL   H18510787   3.083   5.291   5.890 -0.0616 -2.2532 -1.7707
   32MOL   H18610788   3.095   5.153   5.996 -1.9208 -1.6382 -2.2413
   32MOL   H18710789   3.208   5.024   5.862  1.9845 -0.4238 -1.0822
   32MOL   H18810790   3.159   5.137   5.735  0.7944 -0.4464 -1.6253
   32MOL   C18910791   3.629   5.197   5.959 -0.7406 -0.4069 -0.2002
   32MOL   C19010792   3.602   5.081   6.059  0.0687 -0.4818  0.1797
   32MOL   N19110793   3.704   4.966   6.059  0.1885 -0.3236 -0.0690
   32MOL   C19210794   3.677   4.833   6.007 -0.5007 -0.8599  0.2083
   32MOL   C19310795   3.819   4.779   5.967  0.2760  0.2049 -0.0633
   32MOL   C19410796   3.925   4.865   6.036  0.5181 -0.2371 -0.0335
   32MOL   C19510797   3.840   4.990   6.071  0.0362  0.3375 -0.1208
   32MOL   O19610798   3.897   5.093   6.117  0.0803  0.3773  0.1058
   32MOL   H19710799   3.717   5.249   5.999 -0.4447 -0.5183 -0.6899
   32MOL   H19810800   3.667   5.161   5.863  0.9245  0.4740  0.1060
   32MOL   H19910801   3.501   5.049   6.034 -0.0291  0.7097 -0.9753
   32MOL   H20010802   3.624   4.766   6.075 -2.6697  0.4029 -0.1740
   32MOL   H20110803   3.618   4.848   5.916 -1.3290  2.0394  1.1595
   32MOL   H20210804   3.824   4.675   5.998 -0.1107 -0.1403 -1.1529
   32MOL   H20310805   3.824   4.789   5.859 -1.9112  1.2851 -0.1042
   32MOL   H20410806   3.950   4.816   6.130  2.7487  0.2394 -0.3690
   32MOL   H20510807   4.006   4.886   5.967  0.6266 -0.6532 -0.0347
   32MOL   C20610808   3.594   5.144   6.204 -0.6068  0.4241 -0.1079
   32MOL   C20710809   3.525   5.050   6.310 -0.6531  0.4978 -0.3316
   32MOL   N20810810   3.574   5.076   6.451  0.7920  0.4185 -0.3621
   32MOL   C20910811   3.651   5.200   6.482  0.1421 -0.4405 -0.5281
   32MOL   C21010812   3.695   5.179   6.624 -0.5940  0.5095  0.4991
   32MOL   C21110813   3.614   5.059   6.682 -0.5696 -0.8316 -0.3052
   32MOL   C21210814   3.562   4.995   6.557 -0.3063 -0.0713  0.3966
   32MOL   O21310815   3.516   4.882   6.552  0.2831  0.2021  0.6002
   32MOL   H21410816   3.554   5.245   6.196  1.9998  1.3249 -2.4573
   32MOL   H21510817   3.694   5.173   6.236 -0.5950  0.5168 -0.2256
   32MOL   H21610818   3.554   4.945   6.299  1.0305  0.9888 -0.7933
   32MOL   H21710819   3.747   5.196   6.431  0.6172 -0.5667  0.3669
   32MOL   H21810820   3.592   5.290   6.466 -0.9415 -1.1763 -0.7314
   32MOL   H21910821   3.801   5.151   6.627 -0.0712  2.5002  1.1183
   32MOL   H22010822   3.704   5.267   6.687  1.1317 -0.3746  1.5337
   32MOL   H22110823   3.676   4.990   6.740  0.8637  0.8786  0.2474
   32MOL   H22210824   3.531   5.091   6.746  0.3755  1.0214  0.0376
   32MOL   C22310825   3.375   5.083   6.299  0.1370  0.6269  0.1362
   32MOL   C22410826   3.271   4.989   6.364 -0.5801  0.1068 -0.6238
   32MOL   N22510827   3.200   5.055   6.477 -0.0676 -0.3248 -0.1809
   32MOL   C22610828   3.177   4.983   6.604 -0.2055  0.5112 -0.4088
   32MOL   C22710829   3.072   5.065   6.681  0.7309  0.0433 -0.5008
   32MOL   C22810830   3.052   5.188   6.598 -0.8086  0.1443 -0.3740
   32MOL   C22910831   3.131   5.170   6.470 -0.4811  0.7047  1.2495
   32MOL   O23010832   3.118   5.238   6.373 -0.0023 -0.4769  0.0643
   32MOL   H23110833   3.348   5.075   6.194 -1.0680 -0.8755  0.5509
   32MOL   H23210834   3.365   5.191   6.312  0.0730  1.0657 -3.0558
   32MOL   H23310835   3.319   4.907   6.417  0.2717 -0.5069 -2.3244
   32MOL   H23410836   3.156   4.881   6.572 -0.6348  0.0341  1.3391
   32MOL   H23510837   3.272   4.976   6.657 -0.4946 -1.2800 -0.1154
   32MOL   H23610838   2.980   5.011   6.701  1.3803 -1.0854 -0.4916
   32MOL   H23710839   3.108   5.101   6.777 -0.7168 -0.3086  0.1876
   32MOL   H23810840   2.943   5.202   6.600 -0.3759  3.8738  0.6834
   32MOL   H23910841   3.097   5.278   6.640  0.4217 -0.7416  0.2152
   32MOL   C24010842   3.162   4.927   6.267  0.7353 -0.1695  0.0074
   32MOL   C24110843   3.217   4.821   6.170  0.7439 -0.4979 -0.4511
   32MOL   N24210844   3.267   4.699   6.240 -0.8244 -0.2796 -0.0455
   32MOL   C24310845   3.409   4.660   6.233 -0.0118  0.5996  0.2778
   32MOL   C24410846   3.416   4.528   6.292  0.6235 -0.7490 -0.1302
   32MOL   C24510847   3.277   4.511   6.374 -0.8511  0.5154 -0.3911
   32MOL   C24610848   3.194   4.621   6.318  0.3500  0.0207  0.2376
   32MOL   O24710849   3.070   4.622   6.332 -0.1504  0.0269  0.2255
   32MOL   H24810850   3.110   5.004   6.211 -1.6701 -0.0029  2.3669
   32MOL   H24910851   3.085   4.885   6.332  0.2385  1.2131  0.3214
   32MOL   H25010852   3.301   4.854   6.109  1.9310 -0.3658  1.2087
   32MOL   H25110853   3.442   4.661   6.129  0.7590  0.1652  0.5187
   32MOL   H25210854   3.460   4.729   6.299  0.4133 -0.1251  0.7133
   32MOL   H25310855   3.413   4.453   6.213  0.0110 -0.4996 -0.3477
   32MOL   H25410856   3.501   4.512   6.359 -0.4461 -0.0264  1.4189
   32MOL   H25510857   3.233   4.411   6.373  0.2310  0.0304 -1.2343
   32MOL   H25610858   3.291   4.530   6.481  3.2924  0.7477 -0.8961
   32MOL   C25710859   3.106   4.785   6.065  0.1140 -0.5960  0.5091
   32MOL   C25810860   3.160   4.685   5.960  0.2451 -0.8700 -0.1665
   32MOL   N25910861   3.047   4.633   5.892 -0.0487  0.3915  0.2660
   32MOL   C26010862   3.006   4.500   5.924 -1.0030  0.5665  0.5334
   32MOL   C26110863   2.859   4.490   5.878 -0.1798 -0.6054 -0.5015
   32MOL   C26210864   2.855   4.589   5.766 -0.3060 -0.8841  0.0350
   32MOL   C26310865   2.964   4.687   5.803 -0.7844 -0.6568  0.7639
   32MOL   O26410866   2.957   4.809   5.767  0.0638 -0.6575 -0.6501
   32MOL   H26510867   3.074   4.876   6.013  1.7005  0.8786  2.0252
   32MOL   H26610868   3.015   4.756   6.118 -0.6188 -1.3448 -1.1186
   32MOL   H26710869   3.215   4.607   6.013 -1.0734 -2.8754 -1.6984
   32MOL   H26810870   3.068   4.425   5.875 -1.7999 -1.1680  2.1025
   32MOL   H26910871   3.006   4.468   6.028  1.9950 -0.5802  0.2410
   32MOL   H27010872   2.844   4.390   5.837  2.2559 -1.1652 -0.0886
   32MOL   H27110873   2.791   4.508   5.961 -0.7277 -2.2765 -0.5522
   32MOL   H27210874   2.875   4.538   5.672  0.2556  0.3674 -0.5232
   32MOL   H27310875   2.757   4.635   5.751 -0.0691 -0.0501  1.0284
   32MOL   C27410876   3.258   4.745   5.854 -0.0686 -0.5890 -0.2340
   32MOL   C27510877   3.314   4.648   5.752 -0.3112  0.4734 -0.4621
   32MOL   N27610878   3.372   4.726   5.641 -0.2481 -0.9404 -0.3446
   32MOL   C27710879   3.279   4.795   5.548 -0.2605 -0.1278 -0.4340
   32MOL   C27810880   3.375   4.858   5.446  0.4119  0.3863 -0.0722
   32MOL   C27910881   3.520   4.841   5.493  0.1589  0.2343  0.2369
   32MOL   C28010882   3.500   4.763   5.624 -0.0616 -1.0844 -0.3607
   32MOL   O28110883   3.598   4.724   5.692 -0.5976  0.2020  0.1469
   32MOL   H28210884   3.339   4.797   5.905 -2.3262  0.5589  2.2704
   32MOL   H28310885   3.210   4.831   5.807  0.9856  0.0397 -0.1950
   32MOL   H28410886   3.231   4.592   5.708 -1.3491  0.7746  1.0690
   32MOL   H28510887   3.209   4.724   5.503  0.5458 -0.7208 -0.7563
   32MOL   H28610888   3.221   4.873   5.597 -0.8125 -0.0485 -1.1949
   32MOL   H28710889   3.358   4.852   5.339 -1.2609 -0.1549  0.2039
   32MOL   H28810890   3.345   4.962   5.455 -1.5368 -0.0169 -1.4578
   32MOL   H28910891   3.575   4.780   5.422 -1.1727 -0.8788  0.1426
   32MOL   H29010892   3.566   4.938   5.514 -1.8592  0.8755  1.8608
   32MOL   C29110893   3.404   4.544   5.815 -0.3174 -0.3552  0.6566
   32MOL   C29210894   3.451   4.445   5.706  0.3179 -0.4049  0.4783
   32MOL   N29310895   3.586   4.403   5.756  0.2165 -0.6112  0.0050
   32MOL   C29410896   3.620   4.343   5.885 -0.0805 -0.3487  0.3083
   32MOL   C29510897   3.774   4.323   5.891  0.1699  0.2423 -0.6785
   32MOL   C29610898   3.822   4.360   5.751  0.3621 -0.7000 -0.1220
   32MOL   C29710899   3.699   4.416   5.673 -0.1480 -0.2369 -0.7279
   32MOL   O29810900   3.709   4.451   5.556 -0.0459  0.0016  0.1301
   32MOL   H29910901   3.342   4.486   5.883  0.4307  0.1704  1.8213
   32MOL   H30010902   3.480   4.592   5.877  1.3719 -3.1641  0.8874
   32MOL   H30110903   3.474   4.500   5.615  0.8226  1.1834  1.5427
   32MOL   H30210904   3.598   4.397   5.978 -1.9269 -0.2039 -0.1876
   32MOL   H30310905   3.562   4.253   5.905 -0.2654 -0.0722  1.0802
   32MOL   H30410906   3.818   4.392   5.963  0.2605  1.4856 -1.8930
   32MOL   H30510907   3.800   4.222   5.920  1.4287  0.6270 -0.4588
   32MOL   H30610908   3.905   4.431   5.760  1.0197 -1.6524  1.3017
   32MOL   H30710909   3.866   4.270   5.709 -0.4438 -2.0538  1.9221
   32MOL   C30810910   3.356   4.326   5.683  0.4646  0.1580  0.4528
   32MOL   C30910911   3.343   4.275   5.542  0.6937  0.0784 -0.5037
   32MOL   N31010912   3.467   4.218   5.475  0.4103 -0.4675  0.3659
   32MOL   C31110913   3.512   4.284   5.356 -0.5172 -0.0343 -0.5335
   32MOL   C31210914   3.634   4.194   5.302 -0.4340  0.0293 -0.2195
   32MOL   C31310915   3.672   4.112   5.431 -0.5000  0.0142  0.0223
   32MOL   C31410916   3.557   4.134   5.528 -0.1661 -0.5334  0.4853
   32MOL   O31510917   3.549   4.080   5.639 -0.2371  0.1597 -0.2468
   32MOL   H31610918   3.259   4.371   5.705  0.0335 -0.1796 -0.7419
   32MOL   H31710919   3.375   4.247   5.756  3.7714  1.3907  1.0222
   32MOL   H31810920   3.311   4.362   5.486  0.1242  0.9310  1.1201
   32MOL   H31910921   3.427   4.294   5.288 -1.4246  1.0210  0.7448
   32MOL   H32010922   3.547   4.383   5.387 -0.3066 -0.1721 -0.3308
   32MOL   H32110923   3.598   4.127   5.224  1.8122  0.5610 -1.7301
   32MOL   H32210924   3.715   4.256   5.264  1.6869 -1.6082  1.4706
   32MOL   H32310925   3.672   4.005   5.412  0.6177  0.1749 -0.9042
   32MOL   H32410926   3.767   4.142   5.474 -0.2439  0.6822 -0.9768
   32MOL   C32510927   3.223   4.183   5.534 -0.0077  0.3104 -0.2799
   32MOL   C32610928   3.087   4.261   5.504 -0.6899  0.6557 -0.2051
   32MOL   N32710929   2.973   4.179   5.493 -0.3430  0.2313  0.1760
   32MOL   C32810930   2.867   4.207   5.589  0.1339 -0.0658 -1.0080
   32MOL   C32910931   2.786   4.074   5.583 -0.2911  0.0420 -0.3443
   32MOL   C33010932   2.834   3.999   5.461  0.2026  0.6627  0.4474
   32MOL   C33110933   2.953   4.077   5.411 -0.5949 -0.0372 -0.2787
   32MOL   O33210934   3.033   4.030   5.323  0.5145 -0.8733 -0.3647
   32MOL   H33310935   3.212   4.140   5.634 -0.0157  0.9445 -0.0114
   32MOL   H33410936   3.238   4.116   5.449 -1.5857  0.8327 -0.9945
   32MOL   H33510937   3.096   4.310   5.408  4.7686 -0.3585 -0.3652
   32MOL   H33610938   2.918   4.225   5.684 -0.3819  1.3121 -0.9824
   32MOL   H33710939   2.823   4.302   5.560  0.8957  1.0403  1.3082
   32MOL   H33810940   2.798   4.009   5.669 -1.4312 -0.1983 -0.3602
   32MOL   H33910941   2.679   4.092   5.584 -0.3013 -0.0859  1.3814
   32MOL   H34010942   2.840   3.891   5.475  1.4080  0.6610 -0.0184
   32MOL   H34110943   2.753   4.014   5.390 -0.4024 -0.8615  0.8163
   32MOL   H34210944   3.075   4.346   5.570  1.9200 -0.0346  1.2178
   33MOL     C110945   4.024   5.284   7.369  0.1096 -0.2927  0.4055
   33MOL     C210946   3.962   5.236   7.502  0.1489  0.3309 -0.6619
   33MOL     N310947   3.815   5.251   7.506  0.4436 -0.1326 -0.0488
   33MOL     C410948   3.760   5.332   7.614  0.6161  0.0149 -0.3682
   33MOL     C510949   3.608   5.311   7.599  0.0812 -0.6686 -0.3187
   33MOL     C610950   3.590   5.264   7.457 -0.4806 -0.2798  0.2424
   33MOL     C710951   3.723   5.206   7.420 -0.4966 -0.0649 -0.2885
   33MOL     O810952   3.742   5.135   7.318  0.1404 -0.2028  0.0947
   33MOL     H910953   3.989   5.212   7.295  0.3272  1.4204 -1.4035
   33MOL    H1010954   4.002   5.384   7.332  1.8042 -0.0729 -0.0552
   33MOL    H1110955   4.001   5.307   7.575  1.7006  0.3151 -1.4772
   33MOL    H1210956   3.791   5.304   7.715  0.1411 -1.4316 -0.6258
   33MOL    H1310957   3.788   5.435   7.589 -1.6961  0.5951 -0.6752
   33MOL    H1410958   3.584   5.225   7.661  1.1020 -0.2592  0.6592
   33MOL    H1510959   3.546   5.398   7.621  1.0617 -0.5484  2.1132
   33MOL    H1610960   3.523   5.178   7.450  1.3027 -1.8106  1.5929
   33MOL    H1710961   3.562   5.343   7.387 -2.5939  0.2432  1.6198
   33MOL    H1810962   4.132   5.275   7.381  0.3886  0.6570 -1.2208
   33MOL    C1910963   4.003   5.098   7.545 -0.7833  0.6220 -0.1484
   33MOL    C2010964   4.156   5.077   7.560 -0.2008  0.0306  0.3953
   33MOL    N2110965   4.234   5.188   7.628  0.2512  0.3724  0.6274
   33MOL    C2210966   4.357   5.230   7.560  0.5176  0.7469 -0.4411
   33MOL    C2310967   4.419   5.336   7.643 -0.0672 -0.5081  0.4586
   33MOL    C2410968   4.324   5.362   7.759 -0.6169 -0.5681 -0.1518
   33MOL    C2510969   4.219   5.259   7.742  0.4219  0.2313  0.8743
   33MOL    O2610970   4.137   5.230   7.830 -0.1333  0.5525 -0.5534
   33MOL    H2710971   3.968   5.018   7.480  0.4051 -1.0830  1.2380
   33MOL    H2810972   3.947   5.080   7.637  2.7959 -1.6560  1.7255
   33MOL    H2910973   4.198   5.067   7.459 -3.2482 -0.7820 -0.8436
   33MOL    H3010974   4.419   5.141   7.551 -2.1910 -1.3137  0.2110
   33MOL    H3110975   4.331   5.270   7.462 -2.8484  1.7797  0.7822
   33MOL    H3210976   4.522   5.308   7.668 -0.6817 -0.9561  2.6686
   33MOL    H3310977   4.432   5.426   7.583 -1.2791  1.4596  3.0497
   33MOL    H3410978   4.384   5.367   7.850  1.5025  3.2151 -1.6291
   33MOL    H3510979   4.287   5.463   7.743  0.9569  0.5528  2.7724
   33MOL    C3610980   4.186   4.942   7.634  0.4036  0.2694 -0.1307
   33MOL    C3710981   4.132   4.812   7.573 -0.6019 -0.0807  0.4919
   33MOL    N3810982   4.170   4.782   7.432  0.4738 -1.1873 -0.2520
   33MOL    C3910983   4.067   4.744   7.335  0.0896  0.0276  0.0174
   33MOL    C4010984   4.140   4.686   7.218  0.2502  0.2149 -0.3247
   33MOL    C4110985   4.280   4.732   7.229  0.0607 -0.3509  0.2075
   33MOL    C4210986   4.288   4.788   7.369  0.1548 -0.3022 -0.2200
   33MOL    O4310987   4.394   4.834   7.409  0.4755 -0.5520 -0.1819
   33MOL    H4410988   4.147   4.954   7.735 -0.6164  1.2242 -0.6195
   33MOL    H4510989   4.294   4.933   7.645  0.0121 -1.0082  3.1025
   33MOL    H4610990   4.024   4.816   7.585 -0.8429 -0.0708 -1.5030
   33MOL    H4710991   4.011   4.664   7.383 -1.8663 -0.0897 -2.3421
   33MOL    H4810992   4.003   4.831   7.317 -1.9697 -1.2866  0.7789
   33MOL    H4910993   4.143   4.578   7.231  0.1308  0.4408  1.6952
   33MOL    H5010994   4.092   4.711   7.123  0.4754 -0.1804 -0.5458
   33MOL    H5110995   4.342   4.644   7.212 -2.1270 -1.6681 -1.1359
   33MOL    H5210996   4.321   4.811   7.164  0.1334 -0.9362 -0.4649
   33MOL    C5310997   4.177   4.679   7.655 -1.0727 -0.3300  0.1573
   33MOL    C5410998   4.096   4.649   7.782  0.1430  0.7536 -0.2720
   33MOL    N5510999   3.965   4.584   7.739  0.2808  0.1124  0.0170
   33MOL    C5611000   3.849   4.661   7.765  0.1931 -0.3684  0.1835
   33MOL    C5711001   3.740   4.587   7.682  0.3700  0.3434  0.2673
   33MOL    C5811002   3.800   4.453   7.635  0.5682 -0.0173  0.1354
   33MOL    C5911003   3.944   4.466   7.666 -0.0479  0.2030 -0.5386
   33MOL    O6011004   4.026   4.389   7.619  0.0194 -0.1150  0.4128
   33MOL    H6111005   4.282   4.699   7.679 -0.6715 -1.7251 -0.3830
   33MOL    H6211006   4.186   4.596   7.585  0.2259 -2.2974  2.5742
   33MOL    H6311007   4.071   4.732   7.849 -2.9121 -0.8976  0.7316
   33MOL    H6411008   3.837   4.680   7.872  0.1418  3.2412 -0.3890
   33MOL    H6511009   3.882   4.760   7.732 -0.2431 -0.5214 -0.7365
   33MOL    H6611010   3.643   4.567   7.727 -1.6045  2.0807 -2.9609
   33MOL    H6711011   3.714   4.651   7.598 -1.8506 -0.5034  0.2844
   33MOL    H6811012   3.754   4.381   7.702  1.6488 -0.1580  0.7473
   33MOL    H6911013   3.777   4.428   7.532  0.7636 -1.7441  0.4933
   33MOL    C7011014   4.176   4.551   7.876  0.4637 -0.4184  0.3296
   33MOL    C7111015   4.088   4.489   0.083  0.1284  0.2015  0.7863
   33MOL    N7211016   4.144   4.365   0.133  0.5215  0.3456  0.0422
   33MOL    C7311017   4.072   4.245   0.114  0.5470 -0.1357  0.6497
   33MOL    C7411018   4.146   4.128   0.186 -0.1492 -0.4533 -0.2303
   33MOL    C7511019   4.272   4.198   0.238 -0.4661 -0.9598  0.3355
   33MOL    C7611020   4.262   4.342   0.198  0.3422  0.0757 -0.3773
   33MOL    O7711021   4.359   4.420   0.207  0.4031  0.0012  0.4672
   33MOL    H7811022   4.259   4.611   0.007 -0.7558 -0.1346  2.7785
   33MOL    H7911023   4.219   4.468   7.820  1.1173  0.7703 -0.9511
   33MOL    H8011024   3.992   4.457   0.043  0.4547 -0.2391  0.3442
   33MOL    H8111025   3.966   4.245   0.140  0.4400 -1.6157  0.3095
   33MOL    H8211026   4.085   4.217   0.009 -1.7851  0.1007  0.2745
   33MOL    H8311027   4.080   4.087   0.263  0.5847 -1.4154 -0.1011
   33MOL    H8411028   4.169   4.046   0.118 -1.6041  0.5294 -1.9775
   33MOL    H8511029   4.258   4.196   0.346 -0.4125  1.4890  0.4113
   33MOL    H8611030   4.362   4.155   0.192  0.3477 -0.4184  1.4164
   33MOL    C8711031   4.060   4.595   0.199  0.6772  0.3141 -0.4336
   33MOL    C8811032   3.960   4.570   0.316 -0.4430  0.7740 -0.0410
   33MOL    N8911033   3.818   4.588   0.274  0.1457 -0.3107  0.3428
   33MOL    C9011034   3.741   4.700   0.333  0.0983  0.6497  0.4261
   33MOL    C9111035   3.606   4.691   0.265  0.5307 -0.5333  0.6988
   33MOL    C9211036   3.599   4.546   0.193  0.1297  0.0999 -0.4907
   33MOL    C9311037   3.742   4.503   0.202 -0.6595  0.2972  0.5541
   33MOL    O9411038   3.782   4.401   0.142 -0.1504  0.4539  0.6765
   33MOL    H9511039   4.038   4.689   0.148 -0.3884  1.3131  1.8335
   33MOL    H9611040   4.153   4.629   0.244  0.3396 -0.8834  1.2224
   33MOL    H9711041   3.991   4.647   0.386  2.0095 -0.1101 -0.0966
   33MOL    H9811042   3.734   4.692   0.441 -0.5345 -5.0435  0.1379
   33MOL    H9911043   3.796   4.791   0.310  0.4943  0.3693  0.2500
   33MOL   H10011044   3.527   4.721   0.332  0.3933  1.6711 -0.4139
   33MOL   H10111045   3.600   4.764   0.185 -0.5916 -2.7122 -1.2823
   33MOL   H10211046   3.527   4.476   0.236  0.1463 -0.5421 -1.4972
   33MOL   H10311047   3.570   4.544   0.088  3.5215 -1.7776 -1.4435
   33MOL   C10411048   3.974   4.435   0.393 -0.3030  0.2225  0.1418
   33MOL   C10511049   3.900   4.438   0.529 -0.3828  0.2215 -0.3901
   33MOL   N10611050   3.795   4.337   0.525  0.6153  0.5842  0.2063
   33MOL   C10711051   3.817   4.196   0.548  0.1372  0.1107 -0.1798
   33MOL   C10811052   3.687   4.132   0.501  0.1301  0.1304  1.1129
   33MOL   C10911053   3.583   4.244   0.489  0.5758 -0.3901 -0.1504
   33MOL   C11011054   3.665   4.366   0.502  0.1340  0.3151 -0.2432
   33MOL   O11111055   3.609   4.476   0.490 -0.7267  0.0542 -0.4756
   33MOL   H11211056   4.074   4.404   0.425  0.7709  2.7909 -0.6191
   33MOL   H11311057   3.949   4.348   0.331 -2.0133  0.3249  0.6551
   33MOL   H11411058   3.852   4.536   0.541 -1.7251 -0.7363  2.7173
   33MOL   H11511059   3.909   4.157   0.505 -0.5344 -0.8872 -0.7318
   33MOL   H11611060   3.832   4.181   0.655  1.2254  2.3279  0.0056
   33MOL   H11711061   3.710   4.094   0.401  0.6551  0.7955  0.9755
   33MOL   H11811062   3.650   4.059   0.572 -0.6506 -0.2206  0.3536
   33MOL   H11911063   3.511   4.246   0.570 -1.2754 -1.2528 -1.7295
   33MOL   H12011064   3.535   4.248   0.391 -0.1228  0.1765  0.2149
   33MOL   C12111065   3.999   4.424   0.653 -0.0446 -0.0188  0.2757
   33MOL   C12211066   3.951   4.422   0.796 -0.1173 -1.2399 -0.2262
   33MOL   N12311067   4.057   4.400   0.899 -0.0405 -0.7395 -0.0474
   33MOL   C12411068   4.166   4.491   0.921 -0.0045  0.0266  0.1530
   33MOL   C12511069   4.261   4.427   1.030  0.2587 -0.0800  0.0454
   33MOL   C12611070   4.191   4.292   1.065 -0.4946  0.0235 -0.0125
   33MOL   C12711071   4.068   4.288   0.972 -0.0091  0.2567 -1.0498
   33MOL   O12811072   3.973   4.204   0.984  0.1606 -0.1584  0.4345
   33MOL   H12911073   4.070   4.506   0.639  1.1731 -0.8252  1.5742
   33MOL   H13011074   4.054   4.331   0.643  1.3195  0.8256 -0.3232
   33MOL   H13111075   3.882   4.337   0.794 -0.0984 -1.2370 -1.2956
   33MOL   H13211076   4.122   4.585   0.954 -0.2580  0.3871 -1.1460
   33MOL   H13311077   4.220   4.514   0.829 -0.4716  2.2598  0.4140
   33MOL   H13411078   4.363   4.405   0.998 -0.4246 -1.3275 -1.3518
   33MOL   H13511079   4.254   4.478   1.126 -0.3159  0.2286 -0.1613
   33MOL   H13611080   4.256   4.207   1.046  1.3984  0.7382  2.9527
   33MOL   H13711081   4.170   4.295   1.172  2.5131 -0.8871  0.6468
   33MOL   C13811082   3.859   4.543   0.828  0.2813  0.4638  1.2598
   33MOL   C13911083   3.764   4.516   0.942 -0.9797 -0.6443 -0.1280
   33MOL   N14011084   3.725   4.637   1.007 -0.0950 -0.1403  0.5690
   33MOL   C14111085   3.745   4.666   1.148 -0.0816  0.4077  0.0534
   33MOL   C14211086   3.663   4.785   1.185  1.1183  0.0543  0.4393
   33MOL   C14311087   3.623   4.853   1.054 -0.0130 -0.5671  0.1179
   33MOL   C14411088   3.666   4.750   0.948 -0.6554 -0.2218  0.0272
   33MOL   O14511089   3.641   4.759   0.827  0.7354 -0.6682 -0.5651
   33MOL   H14611090   3.795   4.573   0.744  0.8203 -1.8489 -0.0244
   33MOL   H14711091   3.912   4.628   0.871 -0.3476 -0.1627  3.3156
   33MOL   H14811092   3.828   4.468   1.016 -0.2368 -0.4429 -0.6410
   33MOL   H14911093   3.750   4.578   1.211  1.9817 -1.1664 -2.2045
   33MOL   H15011094   3.847   4.695   1.174  0.4119  0.1034 -1.4540
   33MOL   H15111095   3.571   4.757   1.235  0.0949 -0.0788 -1.4589
   33MOL   H15211096   3.715   4.854   1.251 -1.9203  0.9247  2.0148
   33MOL   H15311097   3.665   4.952   1.044  1.0554 -1.2907 -3.1967
   33MOL   H15411098   3.520   4.873   1.024 -0.2152 -0.9742  0.5307
   33MOL   C15511099   3.647   4.420   0.900 -0.0150  0.4018 -0.2604
   33MOL   C15611100   3.553   4.371   1.012  0.0722  0.0372 -0.4277
   33MOL   N15711101   3.427   4.329   0.944  0.1231 -0.3892 -0.5028
   33MOL   C15811102   3.304   4.389   0.973  0.3809  0.0305 -0.3447
   33MOL   C15911103   3.192   4.310   0.898 -0.0603 -0.2922 -0.7913
   33MOL   C16011104   3.270   4.210   0.809  0.7268  0.2532 -0.2889
   33MOL   C16111105   3.416   4.229   0.849  0.1813 -0.2972  0.1258
   33MOL   O16211106   3.516   4.167   0.809  0.6172  0.0487 -0.1183
   33MOL   H16311107   3.698   4.333   0.858  1.2237  0.2861  1.4235
   33MOL   H16411108   3.599   4.482   0.825  2.7767  0.7294 -1.8193
   33MOL   H16511109   3.541   4.456   1.079 -0.7831 -1.3202  1.1640
   33MOL   H16611110   3.288   4.375   1.080  1.2788 -0.0757 -0.2221
   33MOL   H16711111   3.307   4.495   0.951  0.3169 -0.4654 -2.9999
   33MOL   H16811112   3.132   4.259   0.974 -0.4097 -0.1485 -0.9675
   33MOL   H16911113   3.129   4.380   0.842  1.3952  1.3752 -0.3891
   33MOL   H17011114   3.236   4.107   0.817  1.5438  0.1142  1.4378
   33MOL   H17111115   3.252   4.240   0.705  0.5367  0.9568 -0.0496
   33MOL   C17211116   3.620   4.263   1.097 -0.6954  0.2187 -0.1008
   33MOL   C17311117   3.530   4.189   1.193 -0.4151  0.2464 -0.7731
   33MOL   N17411118   3.603   4.074   1.253 -0.0787 -0.6214  0.3672
   33MOL   C17511119   3.543   3.942   1.255  0.2961  1.0272 -0.0478
   33MOL   C17611120   3.650   3.840   1.303 -0.6045 -0.0297  0.0277
   33MOL   C17711121   3.768   3.934   1.347  0.3014  0.2731 -0.0305
   33MOL   C17811122   3.724   4.070   1.307 -0.2614  0.1154 -0.1902
   33MOL   O17911123   3.795   4.164   1.323 -0.3214  0.8099 -0.0362
   33MOL   H18011124   3.683   4.307   1.173 -1.5983  1.3031  0.0423
   33MOL   H18111125   3.672   4.191   1.033  1.0729 -0.4689  2.0781
   33MOL   H18211126   3.456   4.149   1.124 -0.3297  0.7207 -1.1378
   33MOL   H18311127   3.459   3.931   1.323  2.5374 -2.1476  2.3778
   33MOL   H18411128   3.500   3.916   1.159  1.8621 -1.5089 -0.1081
   33MOL   H18511129   3.684   3.791   1.212 -3.4770 -0.5503 -0.7853
   33MOL   H18611130   3.615   3.778   1.386  0.1376  0.9269  1.0703
   33MOL   H18711131   3.776   3.932   1.455 -2.9679 -2.8149  0.2658
   33MOL   H18811132   3.865   3.904   1.306  0.8780  0.1445  1.4080
   33MOL   C18911133   3.469   4.280   1.299 -0.0661  0.4066  0.2051
   33MOL   C19011134   3.369   4.210   1.387 -0.5254  0.1555  0.0224
   33MOL   N19111135   3.332   4.302   1.501  0.2535 -0.2780 -0.3015
   33MOL   C19211136   3.389   4.273   1.631 -0.4572  0.1173  0.8089
   33MOL   C19311137   3.346   4.384   1.720 -0.4775 -0.3755 -0.5269
   33MOL   C19411138   3.262   4.479   1.637  0.5588  0.0353  0.1287
   33MOL   C19511139   3.254   4.411   1.500 -0.0238  0.3172 -0.1978
   33MOL   O19611140   3.186   4.447   1.405 -0.5774 -0.1033  0.1339
   33MOL   H19711141   3.428   4.373   1.261  2.1133  1.2783 -0.0802
   33MOL   H19811142   3.557   4.296   1.362  0.4083  1.4071 -0.6955
   33MOL   H19911143   3.404   4.121   1.439 -2.0760  0.1856  1.1694
   33MOL   H20011144   3.373   4.175   1.676  1.7451 -0.7005 -0.1429
   33MOL   H20111145   3.497   4.283   1.619 -0.3614 -2.5405 -1.1341
   33MOL   H20211146   3.282   4.333   1.792 -0.2116 -1.0479 -0.7669
   33MOL   H20311147   3.427   4.423   1.781 -1.4855  0.2498  0.4395
   33MOL   H20411148   3.166   4.496   1.684 -0.1636 -1.5312 -0.7508
   33MOL   H20511149   3.302   4.581   1.638  2.2495 -0.6147  0.8622
   33MOL   C20611150   3.248   4.172   1.303  0.0355 -0.4377  0.2038
   33MOL   C20711151   3.126   4.106   1.381 -0.2681 -0.2445  0.1187
   33MOL   N20811152   3.000   4.125   1.316 -0.4217  0.0040  0.4912
   33MOL   C20911153   2.901   4.203   1.383 -0.4518  0.1752  0.0671
   33MOL   C21011154   2.779   4.208   1.302 -0.4712 -0.2157  0.2338
   33MOL   C21111155   2.818   4.139   1.173 -0.6159  0.0362  0.4897
   33MOL   C21211156   2.961   4.094   1.190  0.0454  0.5837 -0.0947
   33MOL   O21311157   3.023   4.043   1.099 -0.2364  0.1691 -0.4983
   33MOL   H21411158   3.279   4.090   1.238 -0.7085 -0.7655  0.2561
   33MOL   H21511159   3.214   4.256   1.241  2.1319  0.0026 -0.3834
   33MOL   H21611160   3.119   4.157   1.477 -1.1195  1.4360 -0.8163
   33MOL   H21711161   2.888   4.150   1.478 -1.2980 -2.3757 -1.4281
   33MOL   H21811162   2.941   4.304   1.393  2.2085 -0.5709 -2.3939
   33MOL   H21911163   2.701   4.159   1.362  0.6047 -2.5526 -0.2326
   33MOL   H22011164   2.747   4.311   1.285 -0.8467 -0.3074  0.3798
   33MOL   H22111165   2.760   4.051   1.146 -0.4231 -0.4012  1.5040
   33MOL   H22211166   2.812   4.217   1.097  3.6785 -0.5082 -0.5346
   33MOL   C22311167   3.150   3.958   1.405 -0.4574  0.3456  0.2390
   33MOL   C22411168   3.062   3.901   1.508 -0.2629  0.0808  0.5755
   33MOL   N22511169   3.019   3.763   1.468 -0.2031 -0.1753  0.1862
   33MOL   C22611170   2.876   3.730   1.468  0.2052  0.0562  0.1570
   33MOL   C22711171   2.873   3.586   1.440  0.4791  0.2960  0.0526
   33MOL   C22811172   3.017   3.534   1.464  0.5314  0.7260  0.4000
   33MOL   C22911173   3.094   3.656   1.478  0.3912 -0.6388  0.9921
   33MOL   O23011174   3.217   3.647   1.480  0.5720 -0.2117 -0.0507
   33MOL   H23111175   3.255   3.939   1.426 -0.1706  0.9762 -0.5860
   33MOL   H23211176   3.123   3.902   1.316 -1.4663 -0.3959  0.9990
   33MOL   H23311177   2.967   3.954   1.512 -1.2885 -1.4944 -1.4794
   33MOL   H23411178   2.834   3.753   1.566  0.2707  0.1523  0.1628
   33MOL   H23511179   2.813   3.785   1.398 -1.3151 -2.7421 -0.7590
   33MOL   H23611180   2.810   3.526   1.505 -0.2363  0.3174 -0.6113
   33MOL   H23711181   2.859   3.558   1.336 -1.3103  1.0267  0.0881
   33MOL   H23811182   3.024   3.482   1.560  0.9818  0.8268  0.4270
   33MOL   H23911183   3.056   3.463   1.391  2.3784  0.9562  1.1348
   33MOL   C24011184   3.126   3.892   1.651  0.4506 -1.0762 -0.0083
   33MOL   C24111185   3.125   4.027   1.728  0.3109  0.1615 -0.2120
   33MOL   N24211186   2.985   4.090   1.731 -0.1730  0.2154  0.1902
   33MOL   C24311187   2.966   4.239   1.745 -0.1322 -0.6549  0.5747
   33MOL   C24411188   2.819   4.261   1.767 -0.0400 -0.6208  0.2010
   33MOL   C24511189   2.753   4.134   1.768  0.6397  0.3929  0.7482
   33MOL   C24611190   2.872   4.038   1.777  0.2116  0.2428 -0.1013
   33MOL   O24711191   2.864   3.922   1.814 -0.4922 -0.6840  0.3466
   33MOL   H24811192   3.230   3.862   1.646  1.1479  0.7929  2.2424
   33MOL   H24911193   3.073   3.811   1.702 -0.8965 -1.4155 -1.8953
   33MOL   H25011194   3.192   4.086   1.667 -1.0811  2.6449  0.5899
   33MOL   H25111195   3.023   4.265   1.834 -0.8013 -0.2838  0.8980
   33MOL   H25211196   2.998   4.286   1.652 -0.8946  0.3032  0.7793
   33MOL   H25311197   2.806   4.316   1.860 -0.9877 -1.9135  0.8508
   33MOL   H25411198   2.784   4.334   1.694  3.2142  0.3050 -0.5168
   33MOL   H25511199   2.682   4.123   1.849  1.1043  0.4775  1.1680
   33MOL   H25611200   2.702   4.118   1.673  0.6941 -0.8114  0.9192
   33MOL   C25711201   3.202   4.034   1.863  0.5340 -0.0372  0.2847
   33MOL   C25811202   3.184   3.932   1.969  0.1610 -0.4868  0.1656
   33MOL   N25911203   3.215   3.789   1.939  0.4545 -0.0646  0.1316
   33MOL   C26011204   3.117   3.689   1.971 -0.3607  0.0001  0.2501
   33MOL   C26111205   3.194   3.559   1.970 -0.9591 -0.0391  0.2450
   33MOL   C26211206   3.325   3.587   1.897  0.4910  0.4603  0.1527
   33MOL   C26311207   3.330   3.741   1.892 -0.0235  0.4200  0.1704
   33MOL   O26411208   3.432   3.803   1.856  0.1482 -0.6574  0.5029
   33MOL   H26511209   3.175   4.129   1.910 -1.2434 -0.4448  0.1262
   33MOL   H26611210   3.309   4.040   1.842  0.0658 -0.9583 -2.6991
   33MOL   H26711211   3.078   3.942   1.990  0.3289 -0.1228  0.8589
   33MOL   H26811212   3.069   3.707   2.067  2.1315  0.1489  1.4964
   33MOL   H26911213   3.040   3.697   1.895  1.4011 -1.3792 -1.7291
   33MOL   H27011214   3.214   3.531   2.073 -2.4796 -0.5691  0.4029
   33MOL   H27111215   3.145   3.477   1.918  1.1549 -1.2057  0.0207
   33MOL   H27211216   3.412   3.545   1.947  0.1692 -0.2648  0.1087
   33MOL   H27311217   3.325   3.569   1.789 -0.2974 -0.5827  0.3211
   33MOL   C27411218   3.261   3.972   2.093 -0.8007  0.3092 -0.2524
   33MOL   C27511219   3.246   4.110   2.156  1.1142 -0.6738 -0.0648
   33MOL   N27611220   3.107   4.132   2.203 -0.9543 -1.0619 -0.4582
   33MOL   C27711221   3.024   4.214   2.121  0.0801 -0.2543  0.0058
   33MOL   C27811222   2.891   4.221   2.196 -0.1077 -1.0107 -0.0453
   33MOL   C27911223   2.902   4.132   2.318  0.5178  0.1844 -0.3000
   33MOL   C28011224   3.038   4.077   2.304  0.8894  0.4678 -0.2021
   33MOL   O28111225   3.094   3.999   2.382 -0.5820 -0.5955 -0.1243
   33MOL   H28211226   3.366   3.957   2.070 -0.1582  1.1883  2.0246
   33MOL   H28311227   3.237   3.902   2.173 -2.3683 -0.1611 -1.1007
   33MOL   H28411228   3.264   4.186   2.081 -0.2112  0.1053  0.3837
   33MOL   H28511229   3.059   4.316   2.104  2.0778 -1.0597 -0.8811
   33MOL   H28611230   3.001   4.158   2.030 -2.2806  0.4398  0.1466
   33MOL   H28711231   2.876   4.324   2.227 -1.1318 -0.8435 -1.0451
   33MOL   H28811232   2.808   4.191   2.131 -0.7847  0.2726  0.2253
   33MOL   H28911233   2.891   4.184   2.413  2.7386 -0.1925  0.2058
   33MOL   H29011234   2.819   4.062   2.325 -1.2785  2.2379 -0.4935
   33MOL   C29111235   3.344   4.148   2.274 -0.8051  0.1767 -0.6652
   33MOL   C29211236   3.494   4.116   2.257  0.5524 -0.1500 -1.0312
   33MOL   N29311237   3.565   4.213   2.166  0.2466  0.4457 -0.7469
   33MOL   C29411238   3.632   4.154   2.051 -0.1134  0.9308 -0.5991
   33MOL   C29511239   3.700   4.283   1.993  0.2469 -0.3134  0.0221
   33MOL   C29611240   3.639   4.408   2.063 -0.1081  0.1594 -0.3947
   33MOL   C29711241   3.554   4.346   2.170  0.4608 -0.6297 -0.4096
   33MOL   O29811242   3.487   4.422   2.239 -0.3105 -0.2804 -0.0668
   33MOL   H29911243   3.320   4.104   2.371  0.0730 -0.4375 -0.7201
   33MOL   H30011244   3.331   4.254   2.293  0.4497  0.4321 -1.2357
   33MOL   H30111245   3.491   4.015   2.217  1.1057  0.4428 -2.6303
   33MOL   H30211246   3.717   4.091   2.076 -0.1355  0.5299 -1.5127
   33MOL   H30311247   3.563   4.103   1.984  0.2356 -0.7138  0.2541
   33MOL   H30411248   3.807   4.288   2.012  0.5711 -1.1098 -1.5159
   33MOL   H30511249   3.694   4.282   1.885 -3.6751  1.0685  0.1452
   33MOL   H30611250   3.718   4.462   2.114 -0.7699 -1.1055  2.0124
   33MOL   H30711251   3.578   4.472   1.998 -1.2223 -3.0538 -2.6618
   33MOL   C30811252   3.572   4.114   2.399  0.6856  0.1029 -0.6619
   33MOL   C30911253   3.528   4.006   2.506 -0.1491  0.6458  0.0016
   33MOL   N31011254   3.522   3.866   2.449  0.0519 -0.3794 -0.0426
   33MOL   C31111255   3.391   3.798   2.442  0.2326 -0.3129 -0.6087
   33MOL   C31211256   3.413   3.677   2.338  0.1068  0.4284  0.3064
   33MOL   C31311257   3.567   3.659   2.335 -0.2105 -0.6001  0.2464
   33MOL   C31411258   3.617   3.789   2.392  0.5838 -0.8096  0.5560
   33MOL   O31511259   3.735   3.820   2.389 -0.3842  0.1156 -0.2181
   33MOL   H31611260   3.579   4.215   2.441  0.4330  0.0951 -0.5932
   33MOL   H31711261   3.678   4.094   2.383  0.6593 -0.4387 -0.1633
   33MOL   H31811262   3.425   4.030   2.532 -1.1257 -3.8256  0.5662
   33MOL   H31911263   3.365   3.757   2.540 -1.1861  1.4838 -0.2177
   33MOL   H32011264   3.312   3.868   2.416  1.2778  1.1823  0.2182
   33MOL   H32111265   3.354   3.588   2.362  2.5045 -1.4549 -0.5944
   33MOL   H32211266   3.380   3.712   2.240 -0.7446  0.8014  0.7156
   33MOL   H32311267   3.608   3.577   2.394 -0.8838 -0.2445  1.2184
   33MOL   H32411268   3.604   3.645   2.233 -1.9598  1.9536 -0.7994
   33MOL   C32511269   3.607   4.008   2.635 -0.0194  0.1145 -0.4709
   33MOL   C32611270   3.525   3.958   2.761 -0.0848  0.4018  0.3629
   33MOL   N32711271   3.583   3.964   2.902 -0.0042 -0.2919  0.5997
   33MOL   C32811272   3.495   3.939   3.012 -0.2526 -0.2486  0.3308
   33MOL   C32911273   3.566   3.992   3.132  0.2022  0.6415 -0.7748
   33MOL   C33011274   3.715   4.001   3.095  0.2787  0.8181 -0.0757
   33MOL   C33111275   3.706   3.996   2.941 -0.0803  0.5693  0.5655
   33MOL   O33211276   3.806   4.017   2.872  0.4560  0.0831 -0.0481
   33MOL   H33311277   3.626   4.112   2.661 -0.4172  0.5070 -1.7434
   33MOL   H33411278   3.705   3.961   2.630 -0.9528 -1.7584 -1.4502
   33MOL   H33511279   3.501   3.852   2.746  1.5566  0.1506 -0.5825
   33MOL   H33611280   3.401   3.992   2.999 -1.2584 -2.1639 -0.3885
   33MOL   H33711281   3.484   3.831   3.024  1.9603 -0.2084  3.1106
   33MOL   H33811282   3.524   4.089   3.156  3.1862  1.5978  0.9440
   33MOL   H33911283   3.551   3.934   3.223 -0.0814  2.3258  0.2803
   33MOL   H34011284   3.765   4.095   3.120 -0.7224  1.1678  0.6496
   33MOL   H34111285   3.775   3.922   3.139 -0.3594  0.3419 -0.0601
   33MOL   H34211286   3.432   4.014   2.771  0.2124  0.7192  1.4067
   34MOL     C111287   0.713   5.548   3.524  0.7394 -0.2482 -0.2406
   34MOL     C211288   0.576   5.597   3.570 -0.0678 -0.3657 -0.0795
   34MOL     N311289   0.534   5.537   3.703  0.5809  0.3726  0.2734
   34MOL     C411290   0.407   5.477   3.725  0.4403 -0.3162 -0.4217
   34MOL     C511291   0.387   5.460   3.876 -0.0487  0.1749 -0.2471
   34MOL     C611292   0.516   5.497   3.936 -0.0628  0.2439  0.7476
   34MOL     C711293   0.601   5.546   3.820  0.1518  0.2551 -0.9956
   34MOL     O811294   0.705   5.612   3.843 -0.0836 -0.1119 -0.3829
   34MOL     H911295   0.727   5.440   3.523  0.4827 -0.2824 -1.3401
   34MOL    H1011296   0.737   5.582   3.423  0.8083 -0.8370 -0.4226
   34MOL    H1111297   0.508   5.548   3.501  0.0872 -0.7968  0.0750
   34MOL    H1211298   0.323   5.517   3.668 -0.3368 -0.5119  0.5851
   34MOL    H1311299   0.415   5.375   3.688  0.6236  0.4896 -2.7119
   34MOL    H1411300   0.309   5.533   3.899  1.9699  2.9058 -1.6918
   34MOL    H1511301   0.350   5.366   3.916  1.5283  0.6228  2.3597
   34MOL    H1611302   0.509   5.580   4.007  2.0520  0.7468  0.4019
   34MOL    H1711303   0.551   5.406   3.985 -0.1313  0.0872  0.5029
   34MOL    H1811304   0.783   5.597   3.591  0.5588 -0.7790  0.3400
   34MOL    C1911305   0.566   5.748   3.571  0.6578 -0.1397 -0.3970
   34MOL    C2011306   0.425   5.800   3.586 -0.3412  0.8091 -0.5326
   34MOL    N2111307   0.421   5.933   3.644 -0.4591  0.0623  0.0986
   34MOL    C2211308   0.359   5.958   3.769 -0.5494  0.0281 -0.4092
   34MOL    C2311309   0.372   6.108   3.788  0.3145  0.7063  0.3304
   34MOL    C2411310   0.411   6.163   3.651 -0.2144 -0.3532 -1.1711
   34MOL    C2511311   0.475   6.042   3.586  0.3231  0.2100 -0.0503
   34MOL    O2611312   0.552   6.055   3.492 -0.2194 -0.4396  0.5763
   34MOL    H2711313   0.618   5.772   3.478 -1.8598  0.6100 -1.6560
   34MOL    H2811314   0.630   5.787   3.650  0.6727  0.2208 -0.5830
   34MOL    H2911315   0.382   5.729   3.657  0.4761  0.7863 -0.0472
   34MOL    H3011316   0.256   5.924   3.778 -0.0625 -0.8157  2.7208
   34MOL    H3111317   0.415   5.907   3.848 -1.6675 -2.0606 -0.9341
   34MOL    H3211318   0.275   6.138   3.829 -0.7345  0.0661 -1.5943
   34MOL    H3311319   0.442   6.118   3.871 -1.1806 -0.3687  1.7566
   34MOL    H3411320   0.318   6.185   3.597  0.5348  2.9348 -1.2020
   34MOL    H3511321   0.473   6.252   3.649 -0.4387 -0.2059 -1.6579
   34MOL    C3611322   0.348   5.783   3.453 -0.1045 -0.3293 -0.5178
   34MOL    C3711323   0.202   5.724   3.467 -0.2644  0.2088  0.6003
   34MOL    N3811324   0.119   5.794   3.556  0.0995 -0.5576 -0.2538
   34MOL    C3911325   0.077   5.739   3.685  0.2765 -0.3192 -0.3064
   34MOL    C4011326   7.882   5.843   3.735  0.0209  1.1364  0.1322
   34MOL    C4111327   7.893   5.965   3.648  0.0448  0.7010  0.2464
   34MOL    C4211328   0.070   5.919   3.528  0.4646  0.4488  0.9394
   34MOL    O4311329   0.090   5.993   3.426  0.4948  0.7059 -0.0088
   34MOL    H4411330   0.406   5.726   3.380 -0.2197  0.6816 -1.4029
   34MOL    H4511331   0.351   5.883   3.411 -2.3259  0.3141  0.7402
   34MOL    H4611332   0.210   5.623   3.506  0.4335 -0.2147 -0.6124
   34MOL    H4711333   0.029   5.641   3.684 -4.5743  1.9624 -0.8059
   34MOL    H4811334   0.161   5.727   3.754  1.0945  0.3178 -1.1647
   34MOL    H4911335   7.781   5.803   3.740 -0.3078  1.8297 -0.8220
   34MOL    H5011336   7.906   5.869   3.838 -2.7106  0.8993  0.8412
   34MOL    H5111337   7.796   5.999   3.613  0.2391  0.9559 -0.0465
   34MOL    H5211338   0.027   6.057   3.692 -0.7227  1.1795 -0.0569
   34MOL    C5311339   0.140   5.702   3.320 -0.3003  0.1063  0.4805
   34MOL    C5411340   7.898   5.655   3.322 -0.2008  0.0520 -0.7661
   34MOL    N5511341   7.840   5.664   3.188  0.4725  0.5229  0.0747
   34MOL    C5611342   7.748   5.777   3.159  0.2384  0.0050  0.8165
   34MOL    C5711343   7.742   5.789   3.008  0.4586 -0.4333 -1.6355
   34MOL    C5811344   7.823   5.671   2.948  0.4334  0.4688  0.2113
   34MOL    C5911345   7.884   5.612   3.069 -0.5055  0.6289 -0.7426
   34MOL    O6011346   0.059   5.526   3.056  0.1813  0.2694  0.3642
   34MOL    H6111347   0.202   5.637   3.259  1.5155  2.3178 -0.1110
   34MOL    H6211348   0.141   5.798   3.269 -1.0338 -0.2161 -0.1486
   34MOL    H6311349   7.837   5.711   3.393 -1.5569 -0.0221 -1.8334
   34MOL    H6411350   7.653   5.766   3.210 -1.1373  2.9469 -0.9826
   34MOL    H6511351   7.790   5.870   3.198 -2.0731 -0.0026  3.5283
   34MOL    H6611352   7.634   5.788   2.991  0.2481 -0.3342 -0.3197
   34MOL    H6711353   7.775   5.887   2.973  2.3481  0.2603  1.8361
   34MOL    H6811354   7.752   5.603   2.902  1.1077  0.4193 -0.7759
   34MOL    H6911355   7.896   5.693   2.870 -0.5291  0.3945 -0.7163
   34MOL    C7011356   7.887   5.506   3.373 -0.2486  0.6167 -0.4499
   34MOL    C7111357   7.742   5.456   3.419 -0.0691 -0.0000 -0.1228
   34MOL    N7211358   7.766   5.321   3.478 -0.3710  0.0006 -0.1310
   34MOL    C7311359   7.762   5.204   3.392  0.3969 -1.0069 -1.4156
   34MOL    C7411360   7.799   5.089   3.486 -0.2384 -0.2569 -0.4229
   34MOL    C7511361   7.869   5.144   3.609  0.4739 -0.2358 -0.7673
   34MOL    C7611362   7.828   5.295   3.592 -0.3818  0.7352 -0.5706
   34MOL    O7711363   7.859   5.378   3.677 -0.2071  0.2056 -0.6794
   34MOL    H7811364   0.039   5.490   3.464 -2.1530 -1.4617  0.4525
   34MOL    H7911365   0.031   5.439   3.302 -2.3416 -0.9014 -0.5391
   34MOL    H8011366   7.684   5.447   3.327 -2.0854 -0.4843  1.1690
   34MOL    H8111367   7.666   5.191   3.342 -0.7723  1.1547  0.1877
   34MOL    H8211368   7.838   5.211   3.315  0.2841  1.5726 -1.3479
   34MOL    H8311369   7.712   5.026   3.502 -0.9664  0.2275 -2.4163
   34MOL    H8411370   7.858   5.014   3.434  1.6252  0.2535  0.8787
   34MOL    H8511371   7.819   5.108   3.699 -2.3479  1.0531 -1.7507
   34MOL    H8611372   0.068   5.116   3.604  0.3204 -1.2420  1.0421
   34MOL    C8711373   7.661   5.544   3.510 -0.8154 -0.0779 -0.5295
   34MOL    C8811374   7.533   5.491   3.586 -0.5274  0.6754 -0.4610
   34MOL    N8911375   7.512   5.569   3.711 -0.0964 -0.4539 -0.3224
   34MOL    C9011376   7.487   5.503   3.834 -0.3799  0.3395  0.6061
   34MOL    C9111377   7.447   5.614   3.927  0.4108 -0.9662 -0.5344
   34MOL    C9211378   7.498   5.749   3.866 -0.1200 -0.2789 -0.1449
   34MOL    C9311379   7.518   5.706   3.723 -0.3809  0.2849  0.0578
   34MOL    O9411380   7.539   5.787   3.636  0.4436  0.3487  0.0698
   34MOL    H9511381   7.626   5.634   3.458  0.2943  0.4798 -0.3204
   34MOL    H9611382   7.738   5.580   3.578 -1.6193  0.1226  0.2715
   34MOL    H9711383   7.546   5.386   3.614  0.8902  0.7548 -0.7681
   34MOL    H9811384   7.398   5.442   3.817 -2.6057  3.4646  0.5331
   34MOL    H9911385   7.571   5.445   3.872  0.3023  1.2029  0.4169
   34MOL   H10011386   7.340   5.628   3.939  0.3892  0.2669 -2.0350
   34MOL   H10111387   7.485   5.598   4.028 -0.4577 -2.4809 -0.4325
   34MOL   H10211388   7.424   5.829   3.875 -0.1352 -0.2787 -0.2779
   34MOL   H10311389   7.600   5.761   3.903  0.0542 -0.8538 -0.4387
   34MOL   C10411390   7.410   5.515   3.506  0.1624 -0.3692 -0.0143
   34MOL   C10511391   7.386   5.470   3.365  0.4083  0.0562 -0.5932
   34MOL   N10611392   7.283   5.365   3.364 -0.4869 -0.4670 -0.0680
   34MOL   C10711393   7.142   5.388   3.384  0.1795  0.2393  0.6468
   34MOL   C10811394   7.069   5.254   3.402  0.1980  0.0239 -0.1624
   34MOL   C10911395   7.176   5.151   3.383 -0.1110 -0.0835  0.3271
   34MOL   C11011396   7.306   5.233   3.375  0.1563 -0.8968 -0.4620
   34MOL   O11111397   7.415   5.174   3.374  0.3590  0.2404  0.3354
   34MOL   H11211398   7.392   5.622   3.510 -0.8059 -0.4892 -1.0499
   34MOL   H11311399   7.345   5.468   3.580  1.2852  1.3829  2.1745
   34MOL   H11411400   7.474   5.432   3.314  1.3450 -0.5127  1.4142
   34MOL   H11511401   7.123   5.446   3.475 -1.3668 -1.7724  1.6766
   34MOL   H11611402   7.111   5.432   3.289  2.0220 -1.2385 -0.6554
   34MOL   H11711403   7.023   5.242   3.500 -1.0535  2.0409 -0.4665
   34MOL   H11811404   6.996   5.237   3.324 -0.4802  1.3964  0.1508
   34MOL   H11911405   7.176   5.088   3.294 -0.6427  0.3416  0.0247
   34MOL   H12011406   7.194   5.081   3.464  1.0530  1.3741  1.3571
   34MOL   C12111407   7.345   5.600   3.281  0.1448  0.0804 -0.1420
   34MOL   C12211408   7.323   5.585   3.129  0.6249  0.0345  0.3198
   34MOL   N12311409   7.252   5.702   3.077  0.4959 -0.1014  0.5441
   34MOL   C12411410   7.112   5.699   3.069  0.0610  0.2567 -0.2959
   34MOL   C12511411   7.063   5.838   3.026 -0.4029 -0.3686  0.3045
   34MOL   C12611412   7.190   5.916   3.011  0.1429  0.1051 -0.0427
   34MOL   C12711413   7.297   5.828   3.063  0.3111 -0.2352  0.1117
   34MOL   O12811414   7.410   5.865   3.093  0.1901  0.1216 -0.8264
   34MOL   H12911415   7.415   5.683   3.294  0.2372 -0.0430  0.1448
   34MOL   H13011416   7.259   5.645   3.332 -1.2337 -1.0379 -1.4438
   34MOL   H13111417   7.248   5.506   3.118  0.8028  0.0084 -0.7007
   34MOL   H13211418   7.071   5.668   3.165 -2.1735 -0.1849 -1.3435
   34MOL   H13311419   7.083   5.631   2.989  0.2675  0.4726 -0.5533
   34MOL   H13411420   7.005   5.842   2.934 -0.9185  1.7854  0.6809
   34MOL   H13511421   6.998   5.889   3.098 -0.1568  0.1355  0.1670
   34MOL   H13611422   7.193   5.937   2.904 -1.8553 -0.4311 -0.2372
   34MOL   H13711423   7.185   6.014   3.057 -0.4563  0.6063 -1.1301
   34MOL   C13811424   7.454   5.550   3.044  0.9832  0.1579  0.3675
   34MOL   C13911425   7.457   5.401   3.008  0.5581  0.4805  0.0886
   34MOL   N14011426   7.383   5.379   2.878 -0.5589  0.7844 -0.4512
   34MOL   C14111427   7.256   5.306   2.882  0.1487  0.0396 -0.5362
   34MOL   C14211428   7.215   5.300   2.734 -0.2705  0.3348  0.5051
   34MOL   C14311429   7.325   5.365   2.648 -0.3906 -0.2080 -0.6888
   34MOL   C14411430   7.425   5.416   2.755  0.1751  0.2131  0.1238
   34MOL   O14511431   7.533   5.463   2.720 -0.5267 -0.5802  0.3099
   34MOL   H14611432   7.539   5.575   3.108  0.9970 -0.7679  0.7126
   34MOL   H14711433   7.483   5.619   2.965  1.3486 -0.6299 -0.1876
   34MOL   H14811434   7.401   5.334   3.074  0.1409  0.4551 -0.2890
   34MOL   H14911435   7.260   5.204   2.920 -3.9872 -0.4442 -1.1539
   34MOL   H15011436   7.186   5.353   2.950  0.3947 -1.9047  1.1270
   34MOL   H15111437   7.195   5.196   2.705  0.4431  0.8774 -2.0721
   34MOL   H15211438   7.125   5.357   2.711 -0.6056 -0.2410  0.3766
   34MOL   H15311439   7.283   5.449   2.593 -0.4586  0.2848  0.1082
   34MOL   H15411440   7.378   5.296   2.582  1.7557 -0.9028  1.6572
   34MOL   C15511441   7.600   5.351   3.016 -0.9661  0.2088 -0.7651
   34MOL   C15611442   7.618   5.213   2.958 -0.0022  0.1586  0.2974
   34MOL   N15711443   7.756   5.196   2.923  0.1198 -0.1529 -0.2385
   34MOL   C15811444   7.802   5.239   2.799  0.1957  0.4145 -0.7772
   34MOL   C15911445   0.028   5.154   2.775  0.0579 -0.1032  0.2946
   34MOL   C16011446   0.078   5.114   2.913  0.2536  0.1405  0.0551
   34MOL   C16111447   7.849   5.126   2.990 -0.1351  0.3155  0.2821
   34MOL   O16211448   7.842   5.079   3.102 -0.6840  0.0794  0.3088
   34MOL   H16311449   7.619   5.353   3.123  0.9439 -0.8807 -1.0801
   34MOL   H16411450   7.665   5.423   2.967 -0.5016  0.5897  0.4103
   34MOL   H16511451   7.559   5.212   2.867  1.3267  1.3292 -0.5890
   34MOL   H16611452   7.737   5.214   2.716  1.6778 -0.4557 -1.7038
   34MOL   H16711453   7.811   5.347   2.802  2.2235  0.2741 -0.6503
   34MOL   H16811454   7.896   5.074   2.712 -0.3924  0.3283  0.0112
   34MOL   H16911455   0.094   5.222   2.722 -2.2211  0.0930 -2.3767
   34MOL   H17011456   0.115   5.013   2.925 -1.0170 -0.4142 -0.5741
   34MOL   H17111457   0.148   5.187   2.953  0.9604 -1.1136  1.1326
   34MOL   C17211458   7.555   5.102   3.050  0.8729  0.1527  0.5707
   34MOL   C17311459   7.540   4.957   2.996 -0.0213 -0.4658  0.0789
   34MOL   N17411460   7.516   4.878   3.120 -0.1174 -0.7946  0.6397
   34MOL   C17511461   7.636   4.840   3.195  0.0633  0.3872  1.5117
   34MOL   C17611462   7.584   4.773   3.318  0.4263  0.1152 -0.0634
   34MOL   C17711463   7.435   4.802   3.323  0.0605 -0.0969  0.9194
   34MOL   C17811464   7.402   4.847   3.187 -0.6555 -0.5188 -0.1737
   34MOL   O17911465   7.286   4.856   3.144  0.0226 -0.6972 -0.0521
   34MOL   H18011466   7.449   5.127   3.062  0.4056 -2.0300  1.1996
   34MOL   H18111467   7.604   5.099   3.147 -0.7341  0.4840  1.4128
   34MOL   H18211468   7.635   4.930   2.950  0.9032  2.4691  0.1530
   34MOL   H18311469   7.695   4.769   3.138 -0.4807 -0.1125  1.5677
   34MOL   H18411470   7.693   4.930   3.220 -1.1561  1.5877  0.0151
   34MOL   H18511471   7.635   4.798   3.411  0.7442  3.1225 -1.0047
   34MOL   H18611472   7.620   4.670   3.315 -2.2754 -0.8344 -1.2877
   34MOL   H18711473   7.366   4.722   3.353 -0.9611  0.8743  1.1951
   34MOL   H18811474   7.426   4.878   3.400  2.1608  0.6489  0.4458
   34MOL   C18911475   7.434   4.942   2.886  0.3996 -0.2483 -0.1025
   34MOL   C19011476   7.425   4.803   2.819 -0.6147 -0.3522 -0.8012
   34MOL   N19111477   7.325   4.811   2.714 -0.1407 -0.1023 -0.2283
   34MOL   C19211478   7.187   4.778   2.748  0.3436 -0.0805 -0.7277
   34MOL   C19311479   7.113   4.824   2.626 -0.1684  0.5497 -0.6008
   34MOL   C19411480   7.206   4.897   2.534  0.3095 -0.1774 -0.4288
   34MOL   C19511481   7.339   4.878   2.597 -0.1518 -0.0043  0.0345
   34MOL   O19611482   7.439   4.918   2.541  0.3490  0.0836 -0.5829
   34MOL   H19711483   7.462   5.007   2.803  1.1196  0.4030  0.6446
   34MOL   H19811484   7.337   4.979   2.919  0.4788 -0.0376 -0.1061
   34MOL   H19911485   7.399   4.726   2.892 -0.2534  0.2054 -0.0741
   34MOL   H20011486   7.168   4.676   2.781  0.7615 -0.3369 -1.2707
   34MOL   H20111487   7.150   4.829   2.837  0.6915 -1.7288  0.3824
   34MOL   H20211488   7.074   4.736   2.575  1.2882  0.0568 -0.8992
   34MOL   H20311489   7.029   4.888   2.652 -0.3415  0.4009 -0.7953
   34MOL   H20411490   7.193   4.835   2.446 -0.8945 -1.7985  0.8487
   34MOL   H20511491   7.189   5.004   2.517 -0.2426 -0.1641  0.1732
   34MOL   C20611492   7.562   4.753   2.762  0.0178  0.1865 -0.1373
   34MOL   C20711493   7.663   4.672   2.847 -0.3680  0.4206  0.8921
   34MOL   N20811494   7.612   4.536   2.872 -0.0308  0.2134  0.0503
   34MOL   C20911495   7.591   4.487   3.012  0.6131 -0.0876 -0.2230
   34MOL   C21011496   7.566   4.336   3.000 -0.0547 -0.6595 -0.0025
   34MOL   C21111497   7.539   4.310   2.854  0.1252 -0.1533 -0.4236
   34MOL   C21211498   7.598   4.430   2.788  0.6341  0.0608  0.0861
   34MOL   O21311499   7.627   4.433   2.673 -0.8435 -0.3305  0.1289
   34MOL   H21411500   7.602   4.848   2.726 -2.7292  1.8024  0.8855
   34MOL   H21511501   7.547   4.696   2.671  0.1296 -2.6572  1.5674
   34MOL   H21611502   7.671   4.717   2.946 -0.5056 -0.4892  1.3279
   34MOL   H21711503   7.673   4.515   3.079  0.1301  1.8497 -0.4264
   34MOL   H21811504   7.499   4.535   3.044  1.0257 -0.5708  1.7763
   34MOL   H21911505   7.664   4.297   3.025 -0.6431 -0.2340  3.1754
   34MOL   H22011506   7.491   4.299   3.070 -1.1625 -0.4418 -1.0517
   34MOL   H22111507   7.583   4.222   2.807 -0.7915 -1.3444  0.9009
   34MOL   H22211508   7.432   4.298   2.832 -0.8605 -1.1618  4.3780
   34MOL   C22311509   7.800   4.682   2.777  0.3281 -0.8821  0.1416
   34MOL   C22411510   0.018   4.619   2.841 -0.2255  0.0523  0.4841
   34MOL   N22511511   0.122   4.628   2.736 -0.0573 -0.0448 -0.3349
   34MOL   C22611512   0.160   4.495   2.679  0.6164 -0.8754 -0.4102
   34MOL   C22711513   0.264   4.535   2.572  0.7151  0.4185  0.4512
   34MOL   C22811514   0.262   4.685   2.569  0.3915  0.5876  0.1749
   34MOL   C22911515   0.182   4.736   2.685 -0.1304 -0.1769  0.2486
   34MOL   O23011516   0.164   4.854   2.715  0.0175 -0.1997  0.6870
   34MOL   H23111517   7.814   4.788   2.758 -0.0493 -0.8655 -0.0542
   34MOL   H23211518   7.796   4.638   2.677  2.8219 -1.8651  0.4338
   34MOL   H23311519   7.899   4.514   2.852 -0.6423  0.1701  0.6591
   34MOL   H23411520   0.199   4.432   2.759 -1.9633 -1.6710  0.2630
   34MOL   H23511521   0.072   4.445   2.638  1.0262 -2.1472  0.2526
   34MOL   H23611522   0.360   4.500   2.609  0.7242  0.3367  0.3497
   34MOL   H23711523   0.249   4.486   2.476 -0.3973 -1.6226  1.6334
   34MOL   H23811524   0.360   4.730   2.557  1.0909 -1.4628 -2.2157
   34MOL   H23911525   0.206   4.724   2.483  0.9030 -1.4224 -1.0986
   34MOL   C24011526   0.053   4.684   2.966  0.7862 -0.0873 -0.6725
   34MOL   C24111527   0.188   4.634   3.026  0.9167 -0.4245  0.3638
   34MOL   N24211528   0.229   4.721   3.132  0.1992 -0.1254 -0.0946
   34MOL   C24311529   0.345   4.806   3.111  0.0081  0.3966  0.6114
   34MOL   C24411530   0.369   4.887   3.239  0.3165  0.1352  0.0023
   34MOL   C24511531   0.257   4.837   3.334  0.1304  0.0682  0.4388
   34MOL   C24611532   0.166   4.755   3.243 -0.2000 -0.3648  0.1395
   34MOL   O24711533   0.052   4.717   3.278  0.5277 -0.0352  0.0661
   34MOL   H24811534   7.879   4.677   3.040 -0.5561 -0.3456 -2.1238
   34MOL   H24911535   0.062   4.791   2.944 -2.2299  0.1604 -0.9831
   34MOL   H25011536   0.269   4.645   2.953  0.8061 -1.3270  0.0919
   34MOL   H25111537   0.427   4.741   3.081  0.1808  0.1789  1.5471
   34MOL   H25211538   0.330   4.869   3.023 -0.3091 -1.1564 -0.4635
   34MOL   H25311539   0.472   4.870   3.272  0.9713  1.6127 -1.2227
   34MOL   H25411540   0.352   4.993   3.219  0.8228 -0.0276 -1.3071
   34MOL   H25511541   0.280   4.760   3.408 -0.5473  0.2939  0.8879
   34MOL   H25611542   0.209   4.917   3.392 -0.1223 -1.2274  2.0732
   34MOL   C25711543   0.195   4.489   3.066 -0.7149  0.4337  0.2086
   34MOL   C25811544   0.320   4.404   3.043  0.1605  0.6347 -0.0620
   34MOL   N25911545   0.440   4.465   3.116  0.4431 -0.2440 -0.0523
   34MOL   C26011546   0.572   4.468   3.056  0.0098  0.1736  0.1187
   34MOL   C26111547   0.660   4.537   3.158  0.7200  0.2314 -0.1178
   34MOL   C26211548   0.582   4.539   3.293  0.3266 -0.4492 -0.0739
   34MOL   C26311549   0.441   4.495   3.247  0.1639  0.4851 -0.0062
   34MOL   O26411550   0.350   4.473   3.325 -0.3905 -0.4758 -0.4941
   34MOL   H26511551   0.123   4.440   3.000 -1.0937 -2.0217  2.3080
   34MOL   H26611552   0.148   4.470   3.163  2.5552 -1.5879  1.5120
   34MOL   H26711553   0.330   4.405   2.935 -0.6214 -1.6945 -0.1715
   34MOL   H26811554   0.603   4.367   3.029 -1.8079 -0.1627 -0.7915
   34MOL   H26911555   0.564   4.527   2.965  2.9544  0.2475 -0.1521
   34MOL   H27011556   0.759   4.490   3.164  0.9722  1.0729  4.0683
   34MOL   H27111557   0.674   4.638   3.121  1.9369 -0.4840 -1.6771
   34MOL   H27211558   0.615   4.457   3.356 -1.5442 -0.7421  0.5208
   34MOL   H27311559   0.574   4.637   3.340  0.1808  0.4772 -1.9538
   34MOL   C27411560   0.298   4.259   3.087 -0.3688  0.3702 -0.0027
   34MOL   C27511561   0.197   4.176   3.006 -0.4130  0.1346 -0.1639
   34MOL   N27611562   0.246   4.143   2.872 -0.2193 -0.2008  0.7312
   34MOL   C27711563   0.141   4.133   2.777  0.5614 -0.0189 -0.2353
   34MOL   C27811564   0.211   4.132   2.644 -0.2328  0.7785  0.5684
   34MOL   C27911565   0.353   4.160   2.664 -0.2943 -0.7550 -0.0452
   34MOL   C28011566   0.365   4.144   2.813 -0.0007 -0.4146  0.2982
   34MOL   O28111567   0.475   4.152   2.868 -0.0726  0.6490  0.0063
   34MOL   H28211568   0.260   4.268   3.189  0.4381  1.0801  0.2414
   34MOL   H28311569   0.400   4.220   3.093 -0.3914  0.5475  2.0163
   34MOL   H28411570   0.100   4.224   2.998  0.3928  1.6559 -1.3472
   34MOL   H28511571   0.080   4.044   2.792 -1.3790  1.1030 -1.3369
   34MOL   H28611572   0.072   4.217   2.784  0.3607 -0.3621  2.3848
   34MOL   H28711573   0.197   4.035   2.595  0.1720  2.2429 -2.5817
   34MOL   H28811574   0.159   4.190   2.568  1.3041 -1.7867 -2.5734
   34MOL   H28911575   0.417   4.094   2.605 -0.0410  0.1526 -0.8117
   34MOL   H29011576   0.371   4.261   2.626  1.0430 -1.5644 -1.6141
   34MOL   C29111577   0.177   4.039   3.076  0.9332  0.1345 -0.5306
   34MOL   C29211578   0.144   4.024   3.232  0.0340 -0.5830 -0.3186
   34MOL   N29311579   0.023   4.100   3.269  0.2726  0.6160  0.2801
   34MOL   C29411580   0.031   4.209   3.371  0.4075  0.0380  0.1080
   34MOL   C29511581   7.787   4.241   3.397  0.2081 -0.1752 -0.2190
   34MOL   C29611582   7.711   4.174   3.291  0.3314  0.0681  0.1126
   34MOL   C29711583   7.807   4.089   3.215 -0.1919 -0.0854  0.2023
   34MOL   O29811584   7.770   4.011   3.128 -0.0767  0.3254  0.1629
   34MOL   H29911585   0.262   3.972   3.061 -1.0261 -2.0218 -2.4177
   34MOL   H30011586   0.107   3.978   3.018 -0.8170  0.8829  0.7604
   34MOL   H30111587   0.228   4.076   3.279 -0.1655  0.4471 -1.0645
   34MOL   H30211588   0.068   4.181   3.469 -1.2271  0.7272  0.9409
   34MOL   H30311589   0.091   4.291   3.331 -1.1499  2.6434  2.9757
   34MOL   H30411590   7.756   4.177   3.479 -0.7875  2.4990  1.5446
   34MOL   H30511591   7.759   4.344   3.418 -0.7123  0.0699 -2.5140
   34MOL   H30611592   7.632   4.113   3.336  0.1536 -1.4886 -2.2475
   34MOL   H30711593   7.668   4.250   3.225 -0.5840 -0.3470  0.2201
   34MOL   C30811594   0.144   3.871   3.267 -0.4978 -0.0325  0.2197
   34MOL   C30911595   0.200   3.835   3.407 -0.2210  0.2906  0.6400
   34MOL   N31011596   0.120   3.886   3.521  0.2786  0.3196 -0.2501
   34MOL   C31111597   0.194   3.965   3.625  0.0447  0.2216 -0.5721
   34MOL   C31211598   0.090   4.011   3.731  0.1323 -0.0828 -0.1979
   34MOL   C31311599   7.864   3.940   3.686  0.7096 -0.3198  0.3759
   34MOL   C31411600   7.897   3.873   3.548  0.2663 -0.4858  0.4990
   34MOL   O31511601   7.815   3.813   3.481 -0.2710  0.1157 -0.2724
   34MOL   H31611602   0.200   3.808   3.198 -1.2857  0.8443 -1.2595
   34MOL   H31711603   0.040   3.840   3.261 -0.6621  0.1673  1.9078
   34MOL   H31811604   0.298   3.882   3.417 -0.1233  0.0594  0.7655
   34MOL   H31911605   0.265   3.896   3.672  0.4143  1.8083  1.2408
   34MOL   H32011606   0.246   4.049   3.579  0.6369 -0.7283 -1.6633
   34MOL   H32111607   0.115   3.981   3.833  0.9932 -2.7663 -1.1464
   34MOL   H32211608   0.091   4.120   3.730  1.2022 -0.0557  1.5050
   34MOL   H32311609   7.833   3.860   3.753 -1.3672  0.4955  0.4325
   34MOL   H32411610   7.778   4.007   3.671  0.3976 -0.8237 -0.1010
   34MOL   C32511611   0.219   3.683   3.427  0.3609  0.2442 -0.4204
   34MOL   C32611612   0.304   3.647   3.548 -0.3834 -0.1952  0.3776
   34MOL   N32711613   0.359   3.508   3.546  0.2445  0.2077  1.5088
   34MOL   C32811614   0.297   3.394   3.623  0.0541  0.2989  0.3838
   34MOL   C32911615   0.375   3.273   3.571  0.4791  0.1242 -0.0538
   34MOL   C33011616   0.475   3.322   3.460  0.4991 -0.2924 -0.2577
   34MOL   C33111617   0.457   3.472   3.462  0.5827  0.0537 -0.3125
   34MOL   O33211618   0.529   3.547   3.397  0.2486  0.2081  0.3348
   34MOL   H33311619   0.273   3.642   3.342  0.4009 -0.7397  0.0664
   34MOL   H33411620   0.126   3.627   3.424  0.4850 -0.0020  0.2230
   34MOL   H33511621   0.240   3.667   3.634 -0.6465 -0.3923  0.2268
   34MOL   H33611622   0.316   3.421   3.727  1.6889 -0.5186  0.3128
   34MOL   H33711623   0.190   3.389   3.602 -0.4649  0.7635  2.7517
   34MOL   H33811624   0.425   3.225   3.655 -1.0343 -0.0203  0.7771
   34MOL   H33911625   0.326   3.192   3.517  0.5114  0.4398 -0.5654
   34MOL   H34011626   0.581   3.307   3.482  0.2853 -1.5447 -0.0774
   34MOL   H34111627   0.451   3.274   3.366  0.7932  1.1412 -1.0807
   34MOL   H34211628   0.391   3.713   3.554  0.0209 -0.4916 -1.6686
   35MOL     C111629   6.516   2.432   2.107 -0.3173 -0.7398 -0.5348
   35MOL     C211630   6.642   2.523   2.133  0.3817 -0.1504 -0.3381
   35MOL     N311631   6.699   2.510   2.264  0.0471 -1.0446 -0.0821
   35MOL     C411632   6.650   2.598   2.374 -0.1523 -0.1251  0.1947
   35MOL     C511633   6.718   2.554   2.500 -0.0817 -0.3849  0.2240
   35MOL     C611634   6.768   2.413   2.464 -0.3374 -0.8710 -0.6204
   35MOL     C711635   6.774   2.412   2.315 -0.0438  0.1541  0.2752
   35MOL     O811636   6.823   2.319   2.254  0.1119  0.6518  0.3545
   35MOL     H911637   6.447   2.441   2.191  0.6974 -2.7947  0.5314
   35MOL    H1011638   6.456   2.442   2.016  1.4461 -1.0382 -1.7383
   35MOL    H1111639   6.587   2.617   2.124 -0.9245 -0.8569  0.1679
   35MOL    H1211640   6.677   2.698   2.341  0.1369 -0.5682 -0.9258
   35MOL    H1311641   6.541   2.595   2.381 -0.1663  0.3217  0.1436
   35MOL    H1411642   6.803   2.621   2.506 -0.8970  0.7047 -0.2328
   35MOL    H1511643   6.658   2.564   2.591  1.6677  2.0165  1.1770
   35MOL    H1611644   6.863   2.386   2.508 -1.5355 -2.6265  0.9712
   35MOL    H1711645   6.694   2.339   2.496 -0.3014 -1.5821 -2.1406
   35MOL    H1811646   6.545   2.327   2.111 -0.2319 -0.6314  2.3314
   35MOL    C1911647   6.749   2.516   2.019  0.1250  0.1548  0.3105
   35MOL    C2011648   6.689   2.546   1.879 -0.1379 -0.2790  0.2548
   35MOL    N2111649   6.662   2.687   1.856  0.8349  0.6142 -0.2315
   35MOL    C2211650   6.521   2.731   1.864 -0.2727 -0.8996  0.3056
   35MOL    C2311651   6.527   2.877   1.898  0.2778  0.3872 -0.1036
   35MOL    C2411652   6.664   2.923   1.856 -0.0224 -0.5415  0.1290
   35MOL    C2511653   6.741   2.793   1.841 -0.9072  0.2588 -0.3873
   35MOL    O2611654   6.863   2.793   1.830 -0.5330  0.1445  0.0190
   35MOL    H2711655   6.801   2.421   2.020 -0.0255  0.0870  2.5934
   35MOL    H2811656   6.823   2.594   2.037  2.5703 -1.6598 -1.4673
   35MOL    H2911657   6.595   2.490   1.877 -0.9707  1.0771  1.0419
   35MOL    H3011658   6.483   2.734   1.762 -2.2488  1.7799  1.0705
   35MOL    H3111659   6.460   2.667   1.928  0.0332 -0.4178  1.0859
   35MOL    H3211660   6.452   2.934   1.843  1.0873  2.4749  0.8986
   35MOL    H3311661   6.518   2.887   2.007 -0.7676 -0.0013 -0.1437
   35MOL    H3411662   6.652   2.970   1.759 -0.5773 -1.0957 -0.0718
   35MOL    H3511663   6.704   2.993   1.930 -0.7498  1.3595 -1.2439
   35MOL    C3611664   6.776   2.480   1.767  0.1133  0.1771 -1.2380
   35MOL    C3711665   6.764   2.327   1.758  0.2099 -0.5517 -0.4794
   35MOL    N3811666   6.632   2.279   1.725 -0.0274 -0.2442  0.3013
   35MOL    C3911667   6.575   2.169   1.800 -0.0899 -0.1997 -0.3331
   35MOL    C4011668   6.431   2.148   1.744  0.3570  0.5725  0.7703
   35MOL    C4111669   6.435   2.216   1.606 -1.0676  0.2386  0.0079
   35MOL    C4211670   6.548   2.317   1.623  0.3056 -0.0895  0.2477
   35MOL    O4311671   6.562   2.408   1.543  0.4848 -0.1240  0.3228
   35MOL    H4411672   6.880   2.508   1.783  0.4272 -0.6531 -1.7293
   35MOL    H4511673   6.775   2.537   1.674 -1.9865  1.7072 -0.3320
   35MOL    H4611674   6.772   2.291   1.860 -0.6365  0.6495  0.0146
   35MOL    H4711675   6.635   2.081   1.778 -0.8909 -0.5933 -0.9862
   35MOL    H4811676   6.571   2.175   1.909  0.5999 -3.3079 -0.0816
   35MOL    H4911677   6.399   2.044   1.733  2.5964  0.1097 -1.8315
   35MOL    H5011678   6.371   2.199   1.819  0.8826  1.3654  0.6485
   35MOL    H5111679   6.467   2.148   1.528  1.3234  0.6295  0.6321
   35MOL    H5211680   6.338   2.256   1.577 -1.3144 -1.1551 -1.1300
   35MOL    C5311681   6.880   2.259   1.690 -0.0684 -0.4228 -0.1173
   35MOL    C5411682   7.020   2.275   1.760 -0.2798  0.0928  0.6025
   35MOL    N5511683   7.024   2.210   1.890 -0.6674  0.5540 -0.1133
   35MOL    C5611684   7.116   2.261   1.991  0.1590 -0.4918  0.4219
   35MOL    C5711685   7.103   2.168   2.112  0.4337  0.2849 -0.1563
   35MOL    C5811686   7.012   2.049   2.080  0.4437 -0.3441 -1.0855
   35MOL    C5911687   6.958   2.102   1.941  0.1259  0.8477 -0.1579
   35MOL    O6011688   6.874   2.030   1.886  0.3333  0.2053  0.2074
   35MOL    H6111689   6.878   2.301   1.589 -1.4291 -0.1049  0.0359
   35MOL    H6211690   6.858   2.156   1.663 -0.7269 -0.0772 -0.8824
   35MOL    H6311691   7.039   2.381   1.778 -1.3857 -0.0972  3.0890
   35MOL    H6411692   7.220   2.268   1.959  0.5169  1.4446  1.9364
   35MOL    H6511693   7.094   2.360   2.031 -0.2818 -0.7636  0.8500
   35MOL    H6611694   7.203   2.131   2.134  0.9128  0.9449 -1.1781
   35MOL    H6711695   7.056   2.234   2.186 -2.0961 -0.8010 -0.7344
   35MOL    H6811696   7.067   1.957   2.061  2.4003  0.3952  0.8575
   35MOL    H6911697   6.933   2.033   2.153 -1.3063 -0.0941 -2.8734
   35MOL    C7011698   7.126   2.215   1.668  0.0621  0.2269 -0.3832
   35MOL    C7111699   7.187   2.320   1.572 -0.1151  0.0009 -0.2940
   35MOL    N7211700   7.261   2.414   1.654 -0.5529 -0.1752  0.8116
   35MOL    C7311701   7.208   2.550   1.683  1.2114  0.0789 -0.4383
   35MOL    C7411702   7.300   2.599   1.794 -0.3431  0.6086  0.2027
   35MOL    C7511703   7.408   2.494   1.823 -0.3968  0.4236 -0.2180
   35MOL    C7611704   7.383   2.392   1.714 -0.8201  0.2326  0.1862
   35MOL    O7711705   7.460   2.296   1.697 -0.0982 -0.0445  0.5023
   35MOL    H7811706   7.092   2.130   1.609 -1.7739 -1.8042  3.3992
   35MOL    H7911707   7.201   2.157   1.723  0.2719 -0.4331 -1.3448
   35MOL    H8011708   7.105   2.377   1.530 -0.9012 -0.1427  1.0201
   35MOL    H8111709   7.208   2.618   1.598  0.2146  1.1428  0.3861
   35MOL    H8211710   7.105   2.547   1.719  1.0210 -0.4378 -1.0369
   35MOL    H8311711   7.338   2.698   1.771 -1.1463  0.9489  0.3105
   35MOL    H8411712   7.245   2.612   1.887 -1.0724  0.7493 -0.2427
   35MOL    H8511713   7.507   2.538   1.813 -0.2174  0.1188  0.1667
   35MOL    H8611714   7.395   2.447   1.921  4.0054 -0.9571 -0.1875
   35MOL    C8711715   7.271   2.247   1.467  0.3641 -0.1769  0.2133
   35MOL    C8811716   7.199   2.164   1.354  0.7091 -0.0374  0.1111
   35MOL    N8911717   7.076   2.221   1.313 -0.1413 -0.2050 -0.9459
   35MOL    C9011718   6.961   2.135   1.329  0.2940  0.3148 -0.3959
   35MOL    C9111719   6.839   2.219   1.267  0.0545  0.3336  0.3650
   35MOL    C9211720   6.890   2.360   1.242  1.0504 -0.0739 -0.4571
   35MOL    C9311721   7.035   2.342   1.269 -0.2930 -0.4099 -0.6663
   35MOL    O9411722   7.115   2.431   1.241  0.1251  0.6295  0.7025
   35MOL    H9511723   7.354   2.189   1.507 -0.1037 -0.3117  0.9971
   35MOL    H9611724   7.323   2.322   1.406  1.1103 -1.8640 -1.3019
   35MOL    H9711725   7.187   2.065   1.400 -2.1301 -0.5215 -1.5619
   35MOL    H9811726   6.971   2.044   1.270  2.2196  1.6530 -2.2073
   35MOL    H9911727   6.953   2.097   1.431 -0.6511 -0.7883 -0.8726
   35MOL   H10011728   6.815   2.164   1.176  1.6604  0.5823 -0.2237
   35MOL   H10111729   6.743   2.215   1.318  0.1802 -1.9265  0.4961
   35MOL   H10211730   6.879   2.398   1.141 -1.6383 -0.5108 -0.3574
   35MOL   H10311731   6.830   2.429   1.302 -0.4091  0.2635 -2.2696
   35MOL   C10411732   7.288   2.158   1.225  0.8996 -0.0618  0.4751
   35MOL   C10511733   7.380   2.038   1.226 -0.6899  0.5942 -0.5053
   35MOL   N10611734   7.305   1.911   1.234  0.8887 -0.9145 -0.2753
   35MOL   C10711735   7.333   1.815   1.336  0.5880  0.2893  0.1492
   35MOL   C10811736   7.222   1.711   1.314 -0.2442 -0.1497  0.5145
   35MOL   C10911737   7.165   1.727   1.181 -0.2667 -0.8375  0.4967
   35MOL   C11011738   7.210   1.866   1.152 -0.0785  0.8580 -0.2519
   35MOL   O11111739   7.155   1.929   1.057 -0.2983 -0.6010 -0.4300
   35MOL   H11211740   7.332   2.254   1.198 -0.6373  0.1863 -1.2595
   35MOL   H11311741   7.217   2.150   1.142  1.0812 -0.0956  0.3242
   35MOL   H11411742   7.419   2.045   1.327 -0.7363 -1.2043 -0.3407
   35MOL   H11511743   7.433   1.779   1.312  0.2469  0.5438 -1.7487
   35MOL   H11611744   7.327   1.861   1.434  0.3490  2.1153 -0.7107
   35MOL   H11711745   7.259   1.608   1.321 -1.1193 -0.9187 -4.4552
   35MOL   H11811746   7.147   1.715   1.393 -0.9026 -1.3008 -0.0352
   35MOL   H11911747   7.056   1.725   1.180 -0.3686  0.4873  3.4379
   35MOL   H12011748   7.202   1.660   1.104 -0.2408 -2.7246  2.1140
   35MOL   C12111749   7.485   2.037   1.113  0.1836 -0.1793 -0.2971
   35MOL   C12211750   7.594   2.152   1.117  0.6890  0.7061 -0.9873
   35MOL   N12311751   7.670   2.165   1.237 -0.1171 -0.6938  0.0603
   35MOL   C12411752   7.641   2.282   1.317 -0.7975 -0.1053  0.0393
   35MOL   C12511753   7.721   2.265   1.447  0.4112 -0.5675  0.2496
   35MOL   C12611754   7.768   2.122   1.447 -0.6370 -0.7586  0.2751
   35MOL   C12711755   7.743   2.074   1.304 -0.1873  0.5185  0.0628
   35MOL   O12811756   7.771   1.958   1.266  0.7073 -0.3071  0.1154
   35MOL   H12911757   7.443   2.029   1.013 -2.0946 -1.3962  0.7450
   35MOL   H13011758   7.534   1.943   1.136 -1.1314 -0.5393  1.0936
   35MOL   H13111759   7.539   2.246   1.106 -1.8558 -0.4703  0.9494
   35MOL   H13211760   7.532   2.288   1.328 -1.0605 -0.5270 -2.1495
   35MOL   H13311761   7.679   2.359   1.251 -0.0753 -0.6364 -0.1748
   35MOL   H13411762   7.807   2.332   1.445  0.7883 -1.0723 -0.7634
   35MOL   H13511763   7.663   2.307   1.529 -1.0771  1.1289 -1.6305
   35MOL   H13611764   7.873   2.113   1.473 -0.4827  0.2026  0.0168
   35MOL   H13711765   7.701   2.057   1.504 -1.1368 -0.5285 -0.0384
   35MOL   C13811766   7.691   2.150   0.998 -0.1918  0.3547  0.3828
   35MOL   C13911767   7.634   2.218   0.872  0.4578 -0.8433 -0.1449
   35MOL   N14011768   7.626   2.364   0.894  0.4121  0.2861  0.6149
   35MOL   C14111769   7.507   2.434   0.843  0.3710 -0.4755  0.6268
   35MOL   C14211770   7.523   2.585   0.888 -0.0459  0.0319 -0.2934
   35MOL   C14311771   7.664   2.593   0.951  0.4680  0.3531 -0.6310
   35MOL   C14411772   7.719   2.451   0.936  0.0154 -0.2308 -0.9606
   35MOL   O14511773   7.832   2.430   0.982 -0.5483 -0.1796  0.0140
   35MOL   H14611774   7.711   2.045   0.977  0.3070 -0.0646  2.8160
   35MOL   H14711775   7.790   2.192   1.017  0.8882 -1.6276 -0.6991
   35MOL   H14811776   7.532   2.185   0.853  0.5641 -1.2034 -0.0966
   35MOL   H14911777   7.517   2.426   0.735 -1.7133 -0.5300  0.4097
   35MOL   H15011778   7.415   2.392   0.884 -1.1969  2.2396 -0.0063
   35MOL   H15111779   7.509   2.653   0.804 -0.1286  3.0021  2.0393
   35MOL   H15211780   7.442   2.597   0.960  0.1731 -0.9889  0.1395
   35MOL   H15311781   7.657   2.627   1.054 -1.3672 -0.6248 -0.4030
   35MOL   H15411782   7.717   2.658   0.882 -0.4466  1.5312 -0.2317
   35MOL   C15511783   7.721   2.188   0.752 -0.0738  0.4642  0.0026
   35MOL   C15611784   7.742   2.043   0.703  0.2650 -0.1409  0.5127
   35MOL   N15711785   7.619   1.961   0.704  0.5798  0.2803  0.2906
   35MOL   C15811786   7.601   1.839   0.788  0.8284  0.0955 -0.0497
   35MOL   C15911787   7.455   1.787   0.774 -0.6380 -0.2665  0.3081
   35MOL   C16011788   7.387   1.906   0.707 -0.1073 -0.4982  0.2340
   35MOL   C16111789   7.501   1.993   0.650 -0.3384 -0.1189 -0.1122
   35MOL   O16211790   7.472   2.093   0.586  0.0399  0.3469 -0.1249
   35MOL   H16311791   7.816   2.240   0.763  0.2194 -0.0952  0.1192
   35MOL   H16411792   7.674   2.243   0.670 -1.9816  1.0334  1.4269
   35MOL   H16511793   7.805   1.995   0.778 -0.9059  0.3700  1.8317
   35MOL   H16611794   7.663   1.753   0.760  2.1324  0.7440  0.7910
   35MOL   H16711795   7.633   1.858   0.890  0.6718  1.4306 -0.2481
   35MOL   H16811796   7.443   1.694   0.720 -0.6215 -1.3792  2.1830
   35MOL   H16911797   7.409   1.776   0.872  3.6564  0.1187  2.5150
   35MOL   H17011798   7.325   1.869   0.626  0.1167  0.4109 -0.3648
   35MOL   H17111799   7.324   1.973   0.767  0.9301  0.1088  0.6531
   35MOL   C17211800   7.805   2.049   0.561  0.5392 -0.0379  0.1238
   35MOL   C17311801   0.046   2.100   0.559  0.7188  0.2775 -0.1004
   35MOL   N17411802   0.142   2.008   0.628  0.2054  0.1456  0.0046
   35MOL   C17511803   0.214   2.041   0.746 -0.6537  0.2974 -0.6616
   35MOL   C17611804   0.244   1.911   0.816  0.4737 -0.8436 -0.2018
   35MOL   C17711805   0.251   1.813   0.695 -0.6718 -0.2717 -0.3621
   35MOL   C17811806   0.166   1.882   0.593  0.4320  0.1441  0.6866
   35MOL   O17911807   0.118   1.819   0.499  0.3140  0.1084  0.2342
   35MOL   H18011808   7.739   2.117   0.506  0.5385  0.4628  0.7343
   35MOL   H18111809   7.790   1.954   0.510 -2.1615 -0.2288  1.1798
   35MOL   H18211810   0.044   2.197   0.610  1.3409 -0.8171  2.0975
   35MOL   H18311811   0.310   2.085   0.720  0.2743 -0.1442  1.8350
   35MOL   H18411812   0.156   2.113   0.805  0.2320  0.1533  0.4162
   35MOL   H18511813   0.149   1.884   0.862  0.3012 -2.1150 -1.2587
   35MOL   H18611814   0.327   1.903   0.885  1.0387 -0.5523 -0.8425
   35MOL   H18711815   0.348   1.808   0.646 -0.0786 -1.1460  0.8617
   35MOL   H18811816   0.218   1.711   0.716 -1.0465 -0.4045 -1.6019
   35MOL   C18911817   0.097   2.144   0.421 -0.9268  0.6603 -0.1788
   35MOL   C19011818   0.022   2.257   0.352 -0.9460 -0.6333 -0.9060
   35MOL   N19111819   7.901   2.376   0.436  0.6105 -0.5716 -0.3449
   35MOL   C19211820   7.763   2.415   0.440 -0.6572 -0.0849  0.3665
   35MOL   C19311821   7.761   2.542   0.530  0.1312  0.2740  0.4943
   35MOL   C19411822   0.002   2.569   0.566 -0.4020  0.8974  0.1349
   35MOL   C19511823   0.076   2.447   0.512 -0.7036 -0.4681 -0.0997
   35MOL   O19611824   0.191   2.428   0.531 -0.1164  0.0102  0.6753
   35MOL   H19711825   0.112   2.064   0.349 -1.6545 -0.0740  0.4831
   35MOL   H19811826   0.192   2.195   0.436 -1.6760  1.9728  0.1765
   35MOL   H19911827   7.834   2.206   0.332 -0.9666 -1.5072  1.3122
   35MOL   H20011828   7.745   2.440   0.336  2.0507 -0.4780 -0.2516
   35MOL   H20111829   7.697   2.338   0.480 -2.7042  1.5875  0.2694
   35MOL   H20211830   7.714   2.616   0.464 -0.1632 -0.7475 -0.4610
   35MOL   H20311831   7.693   2.522   0.612  0.1117  0.3369  0.4939
   35MOL   H20411832   0.036   2.662   0.521  0.6240 -0.4193 -1.8440
   35MOL   H20511833   0.020   2.571   0.674 -3.4645  0.8499  0.7053
   35MOL   C20611834   0.080   2.295   0.218 -0.0657 -0.9431  0.2203
   35MOL   C20711835   0.068   2.185   0.107 -0.1272 -0.1094 -0.2372
   35MOL   N20811836   7.836   2.159   0.077  0.1546 -0.1826  0.1716
   35MOL   C20911837   7.759   2.261   0.001 -0.2505  0.0133  0.0207
   35MOL   C21011838   7.620   2.194   7.871 -0.1772 -0.6096  0.2673
   35MOL   C21111839   7.620   2.068   0.051 -0.7351 -0.2201  0.4585
   35MOL   C21211840   7.764   2.048   0.111 -0.4883 -0.1484 -0.5780
   35MOL   O21311841   7.796   1.948   0.180  0.3308  0.2468  0.3364
   35MOL   H21411842   0.182   2.328   0.235 -0.0639  0.3041 -1.9815
   35MOL   H21511843   0.032   2.382   0.172  1.0550 -0.2354  0.3608
   35MOL   H21611844   0.103   2.087   0.139  1.2534  0.8406  1.2211
   35MOL   H21711845   7.754   2.359   0.048  1.6700  0.0092  0.2625
   35MOL   H21811846   7.817   2.266   7.814 -2.1370  0.1243 -1.1826
   35MOL   H21911847   7.541   2.260   0.001  0.2338  0.1749 -0.2630
   35MOL   H22011848   7.615   2.163   7.767 -3.1319  2.4869 -0.5964
   35MOL   H22111849   7.552   2.091   0.133 -1.1543  1.3352 -0.3018
   35MOL   H22211850   7.590   1.976   0.001  0.3581 -0.7730  0.8006
   35MOL   C22311851   0.141   2.239   7.883  0.0644 -0.9847 -0.3884
   35MOL   C22411852   0.300   2.259   7.903 -0.8740  0.6008 -0.6820
   35MOL   N22511853   0.350   2.129   0.057  0.2990 -0.0191 -0.6575
   35MOL   C22611854   0.404   2.139   0.188 -0.3797  0.6022  0.4702
   35MOL   C22711855   0.441   1.989   0.227  0.2129  0.1001  0.3256
   35MOL   C22811856   0.416   1.909   0.100 -0.0688  0.4110 -0.1570
   35MOL   C22911857   0.360   2.005   0.003 -0.0572  0.2587 -0.1843
   35MOL   O23011858   0.317   1.969   7.799  0.0443 -0.5201  0.3052
   35MOL   H23111859   0.102   2.335   7.851  2.6354  0.0429 -0.4952
   35MOL   H23211860   0.119   2.165   7.806  3.6582 -1.2252 -1.2656
   35MOL   H23311861   0.311   2.331   0.079 -1.4841  1.7232 -1.5751
   35MOL   H23411862   0.501   2.190   0.186 -0.7928  1.3302 -1.6650
   35MOL   H23511863   0.356   2.191   0.271 -1.5003  1.0851 -0.4644
   35MOL   H23611864   0.546   1.972   0.253  0.3940 -0.7569 -0.9736
   35MOL   H23711865   0.379   1.945   0.305 -0.3008 -2.3774 -1.4176
   35MOL   H23811866   0.500   1.852   0.060  0.9776  0.3003  2.1032
   35MOL   H23911867   0.338   1.835   0.119 -0.7001  0.2965 -2.8910
   35MOL   C24011868   0.373   2.311   7.783  0.2050  0.0416  0.6892
   35MOL   C24111869   0.511   2.371   7.817 -0.0708 -0.4713  0.0517
   35MOL   N24211870   0.607   2.397   7.702 -0.1857 -0.4145  0.4548
   35MOL   C24311871   0.738   2.331   7.702  0.3354  0.0124 -0.3371
   35MOL   C24411872   0.821   2.394   7.582  0.3845  0.5025 -0.5178
   35MOL   C24511873   0.718   2.485   7.515 -0.3271  0.7036  0.2898
   35MOL   C24611874   0.590   2.472   7.594  0.8849 -0.2751  0.1312
   35MOL   O24711875   0.486   2.530   7.558  0.6996 -0.1913  0.3377
   35MOL   H24811876   0.309   2.386   7.736  0.6849  0.7692  1.1763
   35MOL   H24911877   0.384   2.229   7.712  1.3841 -0.4602  1.4481
   35MOL   H25011878   0.554   2.294   7.881  1.0937  1.1773  1.2605
   35MOL   H25111879   0.787   2.324   7.799  0.7384 -2.3648 -0.6706
   35MOL   H25211880   0.720   2.225   7.683  1.9437 -0.2055 -0.7300
   35MOL   H25311881   0.912   2.450   7.603  0.1864  1.1353 -1.3588
   35MOL   H25411882   0.853   2.307   7.524  0.1270 -0.4952  0.8052
   35MOL   H25511883   0.755   2.588   7.519  1.3077  0.1090  0.8788
   35MOL   H25611884   0.689   2.455   7.414  0.8970  1.5700 -0.3474
   35MOL   C25711885   0.499   2.499   7.901 -0.5514  0.5220  0.0084
   35MOL   C25811886   0.575   2.499   0.131  0.6341  0.1676  0.2963
   35MOL   N25911887   0.719   2.515   0.102  0.6789  0.2932  0.2358
   35MOL   C26011888   0.789   2.642   0.065 -0.2576  0.0853 -0.6814
   35MOL   C26111889   0.939   2.630   0.105  0.1790  0.1258 -0.2760
   35MOL   C26211890   0.946   2.494   0.168  0.1268  0.4273 -0.2400
   35MOL   C26311891   0.808   2.429   0.153  0.0873  0.2318 -0.2457
   35MOL   O26411892   0.780   2.317   0.195 -0.0224  0.0997 -0.1919
   35MOL   H26511893   0.397   2.527   0.021 -1.9605 -4.3388  0.2363
   35MOL   H26611894   0.517   2.589   7.842  1.4731  1.0998  1.4544
   35MOL   H26711895   0.550   2.413   0.193  0.6134 -0.4488 -0.5635
   35MOL   H26811896   0.787   2.650   7.862 -2.2253 -1.4275 -0.7916
   35MOL   H26911897   0.740   2.731   0.104 -1.1077 -0.2414 -0.9825
   35MOL   H27011898   1.024   2.647   0.038  2.3376 -0.4009  2.2438
   35MOL   H27111899   0.953   2.703   0.184 -1.0010 -1.9529  1.9062
   35MOL   H27211900   1.022   2.436   0.116 -0.1756  0.9864 -1.3384
   35MOL   H27311901   0.968   2.498   0.274 -0.7859 -1.4870  0.0369
   35MOL   C27411902   0.520   2.614   0.226  0.0978 -0.7269 -0.1984
   35MOL   C27511903   0.567   2.597   0.377  0.7807 -0.5461  0.0843
   35MOL   N27611904   0.587   2.729   0.435  0.9158 -0.7841 -0.3978
   35MOL   C27711905   0.722   2.773   0.464  0.0814  0.5493 -0.1687
   35MOL   C27811906   0.701   2.893   0.548  0.8720 -0.0625 -0.7909
   35MOL   C27911907   0.556   2.947   0.513 -0.1722  0.1298 -0.8132
   35MOL   C28011908   0.493   2.824   0.450 -0.3380  0.0522 -0.0196
   35MOL   O28111909   0.372   2.819   0.420 -0.5262  0.5246  0.5221
   35MOL   H28211910   0.411   2.623   0.222  0.2414  1.8569  0.6207
   35MOL   H28311911   0.558   2.709   0.186  0.3302 -0.0309  1.6421
   35MOL   H28411912   0.665   2.551   0.373  0.0523 -2.0407 -1.0929
   35MOL   H28511913   0.773   2.703   0.531  0.8666 -0.0707 -1.3855
   35MOL   H28611914   0.782   2.805   0.379  1.0149  0.4283  0.4310
   35MOL   H28711915   0.712   2.866   0.654  1.9850  0.0496 -0.8752
   35MOL   H28811916   0.773   2.970   0.524  1.4921 -0.6695 -0.8852
   35MOL   H28911917   0.511   2.980   0.607  0.4211  0.9344 -0.8125
   35MOL   H29011918   0.564   3.037   0.453 -0.8465  0.8268  0.1302
   35MOL   C29111919   0.492   2.499   0.473  0.6505  0.2609 -0.3221
   35MOL   C29211920   0.556   2.413   0.581  0.6310  0.4328  0.5521
   35MOL   N29311921   0.660   2.316   0.531  0.4856  0.4322 -0.0323
   35MOL   C29411922   0.622   2.181   0.504 -0.0923 -0.7038 -1.1611
   35MOL   C29511923   0.744   2.105   0.451 -0.5172 -0.4957  0.5075
   35MOL   C29611924   0.864   2.199   0.481  0.0668  0.2304  0.5715
   35MOL   C29711925   0.791   2.331   0.517  0.2441  0.1982  0.2991
   35MOL   O29811926   0.849   2.435   0.526  0.6505 -0.2219  0.3812
   35MOL   H29911927   0.424   2.429   0.423 -0.8936  0.7264  1.0823
   35MOL   H30011928   0.422   2.564   0.526  1.5980 -0.6051  2.0475
   35MOL   H30111929   0.481   2.342   0.616  0.5530  0.0661 -0.3400
   35MOL   H30211930   0.588   2.136   0.597  1.8037 -0.0860 -0.1392
   35MOL   H30311931   0.535   2.181   0.437 -0.3226 -2.6314 -0.8701
   35MOL   H30411932   0.755   2.017   0.514 -0.6467  0.4390  1.8582
   35MOL   H30511933   0.737   2.071   0.348 -0.8956  0.8679  0.0768
   35MOL   H30611934   0.928   2.170   0.565  0.5892  0.0377  0.1082
   35MOL   H30711935   0.923   2.212   0.391 -1.4954  3.9027 -0.0114
   35MOL   C30811936   0.594   2.507   0.698 -0.7215  0.3770  0.0904
   35MOL   C30911937   0.483   2.523   0.811 -0.3824  1.0360  0.0481
   35MOL   N31011938   0.448   2.399   0.880 -0.3410  0.3512 -0.6104
   35MOL   C31111939   0.305   2.380   0.911 -0.5024  0.3417  0.0038
   35MOL   C31211940   0.303   2.261   1.008  0.7196  1.2730 -0.1391
   35MOL   C31311941   0.436   2.189   0.995 -0.4615  0.8757 -0.2197
   35MOL   C31411942   0.527   2.297   0.935  0.7063  0.3180  0.5568
   35MOL   O31511943   0.648   2.296   0.933  0.1345  0.3182 -0.5529
   35MOL   H31611944   0.611   2.603   0.649 -0.2107  0.8982  1.2830
   35MOL   H31711945   0.685   2.470   0.746  0.0915 -0.8595 -2.3181
   35MOL   H31811946   0.396   2.572   0.767  0.7376  4.1612  1.1908
   35MOL   H31911947   0.266   2.474   0.951 -1.6911  0.3323 -1.0980
   35MOL   H32011948   0.249   2.356   0.821 -0.5643 -1.4213  0.4965
   35MOL   H32111949   0.306   2.284   1.115 -1.6045  1.0578 -0.0009
   35MOL   H32211950   0.227   2.185   0.993  0.4515  1.0414  2.1596
   35MOL   H32311951   0.486   2.144   1.081 -0.7863  2.2146  0.6902
   35MOL   H32411952   0.420   2.113   0.919  0.9322 -0.1899  0.5197
   35MOL   C32511953   0.527   2.617   0.924 -0.5153  0.6736  0.3191
   35MOL   C32611954   0.496   2.767   0.905  0.2760  0.0715 -0.9690
   35MOL   N32711955   0.352   2.795   0.888 -0.1595 -0.7976  0.1555
   35MOL   C32811956   0.296   2.860   0.768  0.1441  0.5331 -0.0132
   35MOL   C32911957   0.139   2.882   0.794  0.1302 -0.0732  0.1217
   35MOL   C33011958   0.125   2.861   0.941 -0.2249 -0.5916  0.0889
   35MOL   C33111959   0.260   2.793   0.987 -0.3481  0.0668  0.0457
   35MOL   O33211960   0.279   2.755   1.104  0.2086 -0.1751 -0.3471
   35MOL   H33311961   0.631   2.597   0.949 -1.1024 -2.3613  0.4610
   35MOL   H33411962   0.479   2.593   1.019  0.3172 -1.3837  0.2347
   35MOL   H33511963   0.549   2.806   0.818 -0.1409  0.2851 -1.1314
   35MOL   H33611964   0.334   2.961   0.755  2.9599 -0.5854 -0.7409
   35MOL   H33711965   0.304   2.802   0.676 -0.9797  2.0628 -1.1074
   35MOL   H33811966   0.110   2.978   0.751 -0.2558  0.0009  0.5473
   35MOL   H33911967   0.080   2.804   0.746  0.5113  0.2901 -0.9701
   35MOL   H34011968   0.118   2.952   1.000  1.9335 -0.3267 -0.0344
   35MOL   H34111969   0.045   2.795   0.976  0.6088 -2.5830 -1.6520
   35MOL   H34211970   0.533   2.822   0.992 -0.4538 -0.1477 -0.5155
   36MOL     C111971   2.034   0.596   6.129  0.1091  0.0779  0.1971
   36MOL     C211972   2.023   0.500   6.261  0.4685  0.3106 -0.0362
   36MOL     N311973   2.096   0.375   6.228 -0.4087  0.1320 -0.3940
   36MOL     C411974   2.026   0.251   6.221 -0.2064 -0.1149 -0.3544
   36MOL     C511975   2.122   0.148   6.199  0.0325  0.1035  0.4040
   36MOL     C611976   2.246   0.216   6.146 -0.1960 -0.0514  1.3321
   36MOL     C711977   2.224   0.365   6.182  0.7576  0.6808  0.4811
   36MOL     O811978   2.308   0.451   6.176 -0.4830  0.1034 -0.3019
   36MOL     H911979   2.124   0.656   6.141 -0.1274  0.4585  0.0737
   36MOL    H1011980   2.048   0.536   6.038  2.3088  0.9224 -0.0654
   36MOL    H1111981   1.916   0.484   6.270  0.3368  1.2660  0.1202
   36MOL    H1211982   1.986   0.242   6.322  1.2523 -0.5402  0.1883
   36MOL    H1311983   1.950   0.244   6.143 -1.7785  1.3107  1.0032
   36MOL    H1411984   2.150   0.098   6.292  0.5508 -1.6396 -0.6808
   36MOL    H1511985   2.071   0.074   6.137 -3.7029  1.6366  1.4913
   36MOL    H1611986   2.329   0.173   6.201  0.9899 -0.8001 -0.9827
   36MOL    H1711987   2.268   0.206   6.040 -0.8423  0.9026  1.0956
   36MOL    H1811988   1.946   0.658   6.116 -0.5731 -1.5049 -3.5203
   36MOL    C1911989   2.071   0.563   6.388 -0.1772 -0.2590 -0.3310
   36MOL    C2011990   1.975   0.645   6.476  0.4791  1.1289  0.9267
   36MOL    N2111991   2.042   0.658   6.606 -0.0444 -0.2856  0.0126
   36MOL    C2211992   2.000   0.571   6.718  0.2924  0.4584 -0.4099
   36MOL    C2311993   2.076   0.628   6.841 -0.0288  0.3081 -0.2671
   36MOL    C2411994   2.176   0.736   6.790 -0.6547 -0.0194  0.0224
   36MOL    C2511995   2.126   0.752   6.652 -0.2805 -1.1292  0.2806
   36MOL    O2611996   2.169   0.839   6.581 -0.3469 -0.1392 -0.0372
   36MOL    H2711997   2.167   0.611   6.370 -0.7577  0.6461 -1.0668
   36MOL    H2811998   2.104   0.482   6.454 -2.5725 -1.9536 -1.1573
   36MOL    H2911999   1.884   0.587   6.493  0.6112  0.5655 -0.2553
   36MOL    H3012000   1.892   0.557   6.722  0.4863 -0.6510  0.9371
   36MOL    H3112001   2.032   0.467   6.705  0.3260  0.6748 -2.2353
   36MOL    H3212002   2.017   0.674   6.921  0.4572  0.6293 -0.0903
   36MOL    H3312003   2.129   0.546   6.889  0.6058  1.1938  0.5801
   36MOL    H3412004   2.162   0.826   6.849  0.8666  0.1323  0.1667
   36MOL    H3512005   2.277   0.694   6.801 -0.6135 -0.3408 -1.5525
   36MOL    C3612006   1.930   0.781   6.401  0.3314  0.2464  0.4106
   36MOL    C3712007   1.833   0.874   6.479 -0.0723 -0.7649 -0.4258
   36MOL    N3812008   1.828   1.010   6.423 -0.2109  0.5314  0.3005
   36MOL    C3912009   1.901   1.112   6.484  0.5235  0.5733 -0.5203
   36MOL    C4012010   1.878   1.232   6.390  0.2382 -0.0854  0.7901
   36MOL    C4112011   1.804   1.189   6.268 -0.0234  0.2321 -0.1975
   36MOL    C4212012   1.765   1.046   6.311  0.1237 -0.3292  0.9277
   36MOL    O4312013   1.687   0.983   6.243  0.5018  0.2217  0.2831
   36MOL    H4412014   1.867   0.749   6.317  0.0333  1.1113  0.3036
   36MOL    H4512015   2.018   0.835   6.369  0.8719 -0.7806  0.1463
   36MOL    H4612016   1.874   0.884   6.580 -1.2026 -0.0295 -0.0244
   36MOL    H4712017   1.863   1.150   6.579  0.5980 -0.8606  0.0932
   36MOL    H4812018   2.006   1.086   6.494  0.1799 -0.1845  1.3355
   36MOL    H4912019   1.818   1.309   6.438 -1.3442  0.1221 -1.4399
   36MOL    H5012020   1.971   1.288   6.375  0.0184  0.9492  3.0153
   36MOL    H5112021   1.711   1.245   6.255 -1.5492 -1.5712  2.3223
   36MOL    H5212022   1.860   1.182   6.175  1.7909 -0.1415  0.9068
   36MOL    C5312023   1.700   0.805   6.504  0.0112  1.1677 -0.1338
   36MOL    C5412024   1.607   0.876   6.606  0.0786 -0.0906  0.8661
   36MOL    N5512025   1.533   0.992   6.540  1.4571 -0.0062 -0.2895
   36MOL    C5612026   1.543   1.134   6.590 -0.4575  0.0469 -0.0906
   36MOL    C5712027   1.443   1.214   6.504  0.5707 -0.0285  1.0877
   36MOL    C5812028   1.392   1.116   6.400  0.0256 -0.1938  0.0280
   36MOL    C5912029   1.448   0.984   6.436  0.0658  0.1332  0.0056
   36MOL    O6012030   1.415   0.884   6.371 -0.3754 -0.0870  0.1559
   36MOL    H6112031   1.723   0.704   6.540 -2.5848  0.5137 -0.1338
   36MOL    H6212032   1.650   0.788   6.409  0.9986 -2.2129 -0.1167
   36MOL    H6312033   1.668   0.922   6.684  0.1977  0.2579  0.5657
   36MOL    H6412034   1.531   1.129   6.698 -0.8612 -2.0572 -0.2092
   36MOL    H6512035   1.642   1.178   6.578  0.4239 -1.2646  2.0653
   36MOL    H6612036   1.364   1.259   6.565 -0.5649  0.4554 -0.6814
   36MOL    H6712037   1.476   1.302   6.450 -1.2686  0.5650  0.8729
   36MOL    H6812038   1.284   1.118   6.395  0.0779  2.5326 -0.7453
   36MOL    H6912039   1.444   1.139   6.307 -1.4963 -1.2731 -1.1048
   36MOL    C7012040   1.504   0.784   6.671  0.2419 -0.6933  0.0320
   36MOL    C7112041   1.548   0.654   6.751 -0.1668 -0.5297  0.8813
   36MOL    N7212042   1.582   0.690   6.889  0.5834 -0.2573  0.4912
   36MOL    C7312043   1.724   0.684   6.929  0.3424  0.7202  0.2745
   36MOL    C7412044   1.723   0.739   7.069 -0.5532 -0.0727  0.3761
   36MOL    C7512045   1.588   0.711   7.124 -0.2094 -0.2755  0.1090
   36MOL    C7612046   1.509   0.701   6.997  0.0385 -0.0966  0.5141
   36MOL    O7712047   1.387   0.718   7.002  0.6645  0.2098  0.1592
   36MOL    H7812048   1.424   0.760   6.601  0.5237 -0.8972 -0.2198
   36MOL    H7912049   1.458   0.850   6.744  2.0458  1.9060 -1.0849
   36MOL    H8012050   1.634   0.604   6.706 -1.4250 -1.7714 -0.1773
   36MOL    H8112051   1.753   0.580   6.916  1.6121  1.0161  0.6291
   36MOL    H8212052   1.788   0.742   6.864 -0.4252  0.2570 -0.9093
   36MOL    H8312053   1.810   0.714   7.130 -0.2319 -0.3973 -0.2142
   36MOL    H8412054   1.730   0.847   7.057  1.6045 -0.3691 -1.2740
   36MOL    H8512055   1.581   0.615   7.176 -2.3773 -0.8617 -1.2182
   36MOL    H8612056   1.552   0.792   7.187  0.8977 -0.5083  1.0680
   36MOL    C8712057   1.442   0.547   6.756  0.2237 -0.3690  0.8738
   36MOL    C8812058   1.391   0.498   6.624 -0.8456 -0.0371  0.0796
   36MOL    N8912059   1.494   0.452   6.528 -0.4808 -0.3316 -0.3658
   36MOL    C9012060   1.486   0.491   6.382 -0.0340 -0.4831 -0.4191
   36MOL    C9112061   1.606   0.428   6.317  0.2893  0.5558 -0.3696
   36MOL    C9212062   1.663   0.334   6.415  0.4645 -0.2902  0.2703
   36MOL    C9312063   1.589   0.350   6.545  0.6879 -0.5173  0.1904
   36MOL    O9412064   1.609   0.278   6.642  0.1872  0.2901  0.3103
   36MOL    H9512065   1.355   0.575   6.817  0.6334  2.1535  0.3527
   36MOL    H9612066   1.480   0.467   6.819 -0.4736 -0.9953  0.5032
   36MOL    H9712067   1.343   0.585   6.579  3.9618  2.3498 -0.7816
   36MOL    H9812068   1.400   0.452   6.328  0.0769 -1.3215  0.0035
   36MOL    H9912069   1.478   0.598   6.364 -2.6937 -0.1898  2.0949
   36MOL   H10012070   1.581   0.385   6.221 -1.3529  0.1630  0.2153
   36MOL   H10112071   1.687   0.494   6.288  0.4762  1.9640  3.1311
   36MOL   H10212072   1.647   0.230   6.386 -0.5303 -0.0508 -0.0338
   36MOL   H10312073   1.770   0.350   6.433  0.7566 -1.4931 -0.3171
   36MOL   C10412074   1.290   0.379   6.641 -0.7041 -0.0021  0.5570
   36MOL   C10512075   1.143   0.408   6.695  0.1569 -0.2389  0.5236
   36MOL   N10612076   1.082   0.530   6.629 -0.0106 -0.0525  0.2931
   36MOL   C10712077   1.051   0.648   6.705  0.3901  0.0926  0.3883
   36MOL   C10812078   1.007   0.749   6.604  0.1841 -0.1894  0.4524
   36MOL   C10912079   1.044   0.694   6.466  0.7621 -0.0097  0.1947
   36MOL   C11012080   1.069   0.551   6.494  0.1590  0.4110 -0.6423
   36MOL   O11112081   1.072   0.463   6.405  0.2316  0.2488 -0.3900
   36MOL   H11212082   1.329   0.300   6.705 -1.1604 -0.2368  0.5408
   36MOL   H11312083   1.279   0.328   6.546 -0.4320  0.9285  0.0145
   36MOL   H11412084   1.163   0.427   6.800 -1.8952 -1.1343  1.0865
   36MOL   H11512085   0.965   0.623   6.769 -0.2735  1.3697  0.0099
   36MOL   H11612086   1.141   0.676   6.759  2.0090 -0.7552 -1.7953
   36MOL   H11712087   0.899   0.760   6.610 -0.0921 -2.5062  0.3249
   36MOL   H11812088   1.054   0.846   6.618  2.3550 -0.9799 -1.1039
   36MOL   H11912089   1.137   0.731   6.423  0.4695 -0.9776 -1.2836
   36MOL   H12012090   0.957   0.710   6.403  1.7661 -1.3509 -1.5769
   36MOL   C12112091   1.067   0.274   6.671 -0.6254  0.0839 -0.5498
   36MOL   C12212092   0.914   0.282   6.705 -0.8027  0.1815  1.0220
   36MOL   N12312093   0.841   0.176   6.633  0.1459  0.1287  0.0014
   36MOL   C12412094   0.739   0.222   6.535 -0.1810  0.3372 -0.4801
   36MOL   C12512095   0.662   0.088   6.495 -0.1644  0.4709 -0.8936
   36MOL   C12612096   0.746   7.877   6.561  0.6458 -0.4674 -0.1628
   36MOL   C12712097   0.845   0.043   6.649  0.6088 -0.4020 -0.2712
   36MOL   O12812098   0.920   7.887   6.732 -0.0441 -0.2503  0.0288
   36MOL   H12912099   1.121   0.201   6.731 -0.9274  1.7124  1.8167
   36MOL   H13012100   1.090   0.242   6.570  1.2143  0.2384 -0.2000
   36MOL   H13112101   0.880   0.376   6.663 -1.5341 -0.6147 -0.2137
   36MOL   H13212102   0.788   0.276   6.454  1.7764  0.5042  0.7588
   36MOL   H13312103   0.664   0.289   6.576  0.6731  1.1102 -0.1722
   36MOL   H13412104   0.564   0.091   6.541  0.2918 -0.2046  0.1529
   36MOL   H13512105   0.653   0.079   6.387 -2.1047  0.9735 -0.7930
   36MOL   H13612106   0.684   7.815   6.625  3.0111 -2.5425  0.1642
   36MOL   H13712107   0.785   7.801   6.494  1.5486 -0.5962  0.4993
   36MOL   C13812108   0.881   0.294   6.854  0.5459  0.0522 -0.4126
   36MOL   C13912109   0.735   0.338   6.888  0.3663 -0.3880 -0.2825
   36MOL   N14012110   0.681   0.284   7.010  0.0047 -0.0949  0.3060
   36MOL   C14112111   0.731   0.331   7.139  0.0787 -0.5045 -0.0822
   36MOL   C14212112   0.630   0.292   7.243 -0.1958  0.2749 -0.2509
   36MOL   C14312113   0.553   0.183   7.179 -0.0597 -0.6748  0.0648
   36MOL   C14412114   0.584   0.195   7.029 -1.3057  0.2868  0.5720
   36MOL   O14512115   0.517   0.142   6.943 -0.7908  0.2233  0.1189
   36MOL   H14612116   0.948   0.356   6.913  0.0595 -0.4361  0.6668
   36MOL   H14712117   0.894   0.195   6.899 -2.2291  0.4144  1.2449
   36MOL   H14812118   0.669   0.298   6.810 -0.0251  0.6065 -0.4705
   36MOL   H14912119   0.828   0.286   7.162  0.8228  1.3293  0.4701
   36MOL   H15012120   0.738   0.440   7.144  0.6197 -0.5817  0.8935
   36MOL   H15112121   0.689   0.265   7.331 -2.0623 -3.5595 -0.0998
   36MOL   H15212122   0.571   0.378   7.276 -2.7871 -0.9035 -1.7424
   36MOL   H15312123   0.446   0.200   7.194  0.0012  0.5480 -0.7714
   36MOL   H15412124   0.583   0.086   7.218  1.2540 -0.6215 -0.7949
   36MOL   C15512125   0.722   0.487   6.882  0.2791  0.0371  0.0599
   36MOL   C15612126   0.584   0.554   6.921 -0.2895 -0.4516  0.1709
   36MOL   N15712127   0.605   0.688   6.974 -0.0201 -0.8042  0.6510
   36MOL   C15812128   0.543   0.720   7.098  0.2884  0.2705 -0.1147
   36MOL   C15912129   0.604   0.854   7.133 -0.0264 -0.1351  0.2970
   36MOL   C16012130   0.657   0.920   7.004  0.5762  0.3322 -0.6165
   36MOL   C16112131   0.661   0.793   6.918  0.0878 -0.1981 -0.0789
   36MOL   O16212132   0.706   0.790   6.799  0.6885 -0.3925 -0.0623
   36MOL   H16312133   0.752   0.512   6.781 -0.2540 -1.7848 -0.5615
   36MOL   H16412134   0.804   0.534   6.936 -0.8935  0.2842  1.6663
   36MOL   H16512135   0.535   0.490   6.995  0.9823 -2.0744 -0.3648
   36MOL   H16612136   0.434   0.718   7.097  0.2588  1.5977  0.1713
   36MOL   H16712137   0.587   0.647   7.166  0.1578 -0.2937 -0.6339
   36MOL   H16812138   0.529   0.924   7.171 -0.8405 -1.1126  0.5270
   36MOL   H16912139   0.668   0.840   7.220  0.7401  1.6596  0.0550
   36MOL   H17012140   0.582   0.985   6.958 -0.3053  0.7306  1.3576
   36MOL   H17112141   0.759   0.956   7.012  0.7676 -0.1163 -0.9702
   36MOL   C17212142   0.487   0.578   6.798  0.1476 -0.5857 -0.0807
   36MOL   C17312143   0.375   0.477   6.784  0.2721  0.1842  0.6868
   36MOL   N17412144   0.286   0.484   6.898 -0.4459  0.2210 -0.7437
   36MOL   C17512145   0.277   0.387   7.008 -0.6446 -0.1513 -0.2279
   36MOL   C17612146   0.189   0.442   7.115  0.2300 -0.2129 -0.0214
   36MOL   C17712147   0.134   0.567   7.055 -0.1434 -0.8084  0.7776
   36MOL   C17812148   0.211   0.593   6.930  0.5692 -0.1160  0.0585
   36MOL   O17912149   0.194   0.688   6.852  0.5442  0.5189 -0.1727
   36MOL   H18012150   0.537   0.590   6.702 -1.4315 -0.7139 -0.9442
   36MOL   H18112151   0.444   0.679   6.798 -0.8670 -0.9902 -1.6805
   36MOL   H18212152   0.423   0.379   6.784 -0.6783 -0.2990 -0.9857
   36MOL   H18312153   0.233   0.294   6.974 -1.3319 -1.0956  3.0682
   36MOL   H18412154   0.370   0.351   7.053 -0.4950  0.7904  0.2296
   36MOL   H18512155   0.248   0.477   7.200  2.6196 -2.1320 -0.8358
   36MOL   H18612156   0.116   0.372   7.155 -0.4925 -0.1472 -1.2108
   36MOL   H18712157   0.025   0.567   7.042 -0.4145  3.0060  2.6097
   36MOL   H18812158   0.145   0.647   7.127 -0.9950 -0.1910  0.2354
   36MOL   C18912159   0.306   0.476   6.645  0.0681  0.3351 -0.2782
   36MOL   C19012160   0.206   0.369   6.616 -0.3801  0.0938  0.2104
   36MOL   N19112161   0.104   0.416   6.521 -0.4240 -0.5423 -0.5812
   36MOL   C19212162   7.876   0.464   6.576  0.2986 -0.1221 -0.2953
   36MOL   C19312163   7.788   0.481   6.452  0.4898  0.4847 -0.9705
   36MOL   C19412164   7.887   0.511   6.335 -0.2189 -0.0615  0.1503
   36MOL   C19512165   0.112   0.450   6.389  0.4063 -1.1616  0.2033
   36MOL   O19612166   0.206   0.429   6.315 -0.1402 -0.8836 -0.0159
   36MOL   H19712167   0.379   0.471   6.564  0.6199  0.9039  0.1751
   36MOL   H19812168   0.256   0.572   6.629 -1.3394 -0.4777 -0.7980
   36MOL   H19912169   0.146   0.359   6.707  0.4655 -0.5044  0.7066
   36MOL   H20012170   7.826   0.398   6.646 -1.3198  0.8224 -0.5458
   36MOL   H20112171   7.898   0.562   6.620 -0.8756 -0.5924  1.3656
   36MOL   H20212172   7.722   0.396   6.432  1.6558  0.0031 -2.9175
   36MOL   H20312173   7.725   0.562   6.488  0.2864  0.7164 -1.8368
   36MOL   H20412174   7.854   0.467   6.241  2.1776 -0.3613 -0.6056
   36MOL   H20512175   7.900   0.619   6.331 -1.3791  0.0689 -0.2070
   36MOL   C20612176   0.271   0.241   6.572  0.0957  0.5896 -0.1080
   36MOL   C20712177   0.175   0.124   6.578  0.1709 -0.6685  0.6164
   36MOL   N20812178   0.123   0.083   6.449 -0.0811 -0.0324  0.2373
   36MOL   C20912179   7.895   0.100   6.414  0.8508  0.1589 -0.6747
   36MOL   C21012180   7.889   0.109   6.261 -0.1089  0.7391 -0.2123
   36MOL   C21112181   0.124   0.059   6.214 -0.2697 -0.4539 -0.4847
   36MOL   C21212182   0.199   0.041   6.344 -0.5033  0.6051  0.0338
   36MOL   O21312183   0.318   0.015   6.347  0.1178 -0.1467 -0.1887
   36MOL   H21412184   0.353   0.232   6.643 -1.3356  1.6267  1.7143
   36MOL   H21512185   0.318   0.250   6.474  0.5405 -4.1294 -0.4716
   36MOL   H21612186   0.097   0.152   6.650  0.8165 -1.0266  1.4546
   36MOL   H21712187   7.838   0.008   6.429  0.0508  0.7442 -0.0658
   36MOL   H21812188   7.852   0.180   6.474  0.7974 -0.7124  0.4572
   36MOL   H21912189   7.807   0.045   6.228  1.1137 -0.7099 -0.4826
   36MOL   H22012190   7.863   0.207   6.220 -0.6071  0.4832 -0.5126
   36MOL   H22112191   0.116   7.870   6.162  0.0495 -0.0718 -1.2407
   36MOL   H22212192   0.178   0.135   6.157  0.0556 -1.7514 -1.9474
   36MOL   C22312193   0.250   0.010   6.645 -0.3519  0.3980 -0.2879
   36MOL   C22412194   0.196   7.772   6.651 -0.1672 -0.2375  0.2672
   36MOL   N22512195   0.293   7.683   6.714 -0.5384 -0.6574 -0.2891
   36MOL   C22612196   0.396   7.608   6.629 -0.3005  0.5396 -0.1597
   36MOL   C22712197   0.505   7.558   6.729 -0.1509 -0.3365 -0.5698
   36MOL   C22812198   0.433   7.573   6.867 -0.2358 -0.0594  0.3448
   36MOL   C22912199   0.322   7.678   6.841  0.4302  0.1710 -0.7243
   36MOL   O23012200   0.260   7.729   6.934  0.3207  0.0049  1.3036
   36MOL   H23112201   0.262   0.043   6.748 -1.6708 -1.9722  0.6682
   36MOL   H23212202   0.349   0.014   6.599  0.1848 -0.4712  0.7634
   36MOL   H23312203   0.197   7.744   6.546 -0.8065 -1.6173  0.6223
   36MOL   H23412204   0.341   7.526   6.584 -0.5903  1.3466 -1.3105
   36MOL   H23512205   0.440   7.670   6.551  1.4041  0.8264  0.9884
   36MOL   H23612206   0.530   7.453   6.713  0.6301 -0.1547 -0.5547
   36MOL   H23712207   0.590   7.626   6.728 -0.4189  0.0039 -0.4292
   36MOL   H23812208   0.388   7.477   6.892  0.2291 -0.6431 -1.0712
   36MOL   H23912209   0.500   7.597   6.950  1.9836 -1.7695 -0.9161
   36MOL   C24012210   0.042   7.758   6.700  0.4292 -0.4038  0.3676
   36MOL   C24112211   7.904   7.608   6.721  0.4391  0.7583  0.0643
   36MOL   N24212212   7.766   7.608   6.780  0.4398  0.0311  1.0001
   36MOL   C24312213   7.751   7.593   6.924  0.4229 -0.1045  0.2052
   36MOL   C24412214   7.599   7.576   6.949 -0.5404  0.6389 -0.3439
   36MOL   C24512215   7.531   7.577   6.808 -0.7127 -0.4830  0.0324
   36MOL   C24612216   7.651   7.599   6.713  0.6983 -0.4141  0.4957
   36MOL   O24712217   7.628   7.609   6.594  0.0605  0.0125 -0.3383
   36MOL   H24812218   7.873   7.824   6.655 -0.1780 -0.3677  1.4037
   36MOL   H24912219   0.057   7.805   6.797 -0.4487  1.4929 -0.3821
   36MOL   H25012220   0.063   7.577   6.803  0.5811  2.5528  0.6446
   36MOL   H25112221   7.803   7.504   6.959  1.2946  0.5356  0.5425
   36MOL   H25212222   7.789   7.681   6.975 -0.9167  1.0129 -0.6840
   36MOL   H25312223   7.569   7.495   7.015 -0.9189 -0.7001 -2.1204
   36MOL   H25412224   7.577   7.667   7.005  1.0865  2.2565 -2.2376
   36MOL   H25512225   7.476   7.486   6.786  0.8813 -1.8145  1.4644
   36MOL   H25612226   7.453   7.653   6.796 -0.8078 -0.8108 -1.6413
   36MOL   C25712227   0.011   7.515   6.598 -0.7363  0.4461  0.1557
   36MOL   C25812228   7.904   7.359   6.625  0.1691  0.0074  0.4636
   36MOL   N25912229   7.870   7.279   6.501  0.1620 -0.4985 -0.2703
   36MOL   C26012230   7.735   7.226   6.485 -0.6447 -0.3776 -0.3280
   36MOL   C26112231   7.744   7.125   6.360  0.0244 -0.2239  0.5405
   36MOL   C26212232   7.875   7.164   6.292  0.7780  0.1921  0.2759
   36MOL   C26312233   0.036   7.260   6.388  0.5209 -0.1514 -0.7185
   36MOL   O26412234   0.138   7.308   6.356 -0.1451  0.4512  0.2314
   36MOL   H26512235   0.114   7.536   6.568 -1.2820  2.1825 -0.5610
   36MOL   H26612236   7.860   7.560   6.518 -1.4863 -0.9730 -0.1305
   36MOL   H26712237   7.820   7.342   6.692  0.4630 -0.4043  0.7286
   36MOL   H26812238   7.700   7.174   6.575 -2.0585 -0.5639 -0.9697
   36MOL   H26912239   7.671   7.313   6.473  0.5352  0.4974 -0.3130
   36MOL   H27012240   7.743   7.022   6.394  2.7875 -0.7206 -0.7822
   36MOL   H27112241   7.658   7.142   6.295 -0.1237  0.2088  0.8422
   36MOL   H27212242   0.015   7.066   6.291 -1.7802 -1.0439 -1.7289
   36MOL   H27312243   7.859   7.209   6.194  1.0013 -1.9681 -0.7742
   36MOL   C27412244   0.129   7.305   6.708  0.1493 -0.0182 -0.4198
   36MOL   C27512245   0.114   7.161   6.755 -0.4034 -0.5036  0.3257
   36MOL   N27612246   0.148   7.064   6.652 -0.1939 -0.0800  0.5408
   36MOL   C27712247   0.057   6.951   6.635  1.0818  0.2266 -0.5722
   36MOL   C27812248   0.132   6.852   6.542 -0.1069 -0.1963  0.5257
   36MOL   C27912249   0.262   6.923   6.501 -0.5179  0.1401 -0.4436
   36MOL   C28012250   0.276   7.041   6.594 -0.2378  0.4315 -0.5612
   36MOL   O28112251   0.380   7.099   6.613 -0.3346 -0.1300 -0.3005
   36MOL   H28212252   0.149   7.380   6.784 -1.8933  0.2878 -0.1391
   36MOL   H28312253   0.221   7.316   6.652  0.2744 -0.2873 -0.2684
   36MOL   H28412254   0.013   7.150   6.794 -1.0572  1.2678 -0.7934
   36MOL   H28512255   0.038   6.914   6.735  1.8334 -2.2552 -1.3022
   36MOL   H28612256   7.875   6.987   6.582  0.0597 -0.0054  0.9492
   36MOL   H28712257   0.151   6.766   6.606 -2.1151 -0.2123  1.1465
   36MOL   H28812258   0.068   6.826   6.458  0.7596 -0.0407 -0.1871
   36MOL   H28912259   0.346   6.855   6.513 -2.0605 -2.0759 -1.7934
   36MOL   H29012260   0.260   6.966   6.401 -1.8527 -0.3882 -0.6525
   36MOL   C29112261   0.196   7.142   6.885  0.0837 -0.2227  0.3269
   36MOL   C29212262   0.152   7.223   7.014 -0.1571 -0.4861  0.5702
   36MOL   N29312263   0.045   7.153   7.089 -0.4292  0.1103  0.4655
   36MOL   C29412264   7.815   7.199   7.075 -0.5419  0.0270  0.7218
   36MOL   C29512265   7.726   7.106   7.172  0.0711  0.1536  0.7970
   36MOL   C29612266   7.822   6.996   7.208  0.2587 -0.1356 -0.5271
   36MOL   C29712267   0.047   7.040   7.153 -0.0602  1.0940 -0.1640
   36MOL   O29812268   0.146   6.967   7.160  0.4179 -0.2280 -0.7240
   36MOL   H29912269   0.293   7.183   6.861  0.0325 -0.0267  0.4555
   36MOL   H30012270   0.216   7.037   6.907  0.8406  0.0213  0.7876
   36MOL   H30112271   0.121   7.320   6.975  1.7053 -0.9723 -2.2768
   36MOL   H30212272   7.813   7.307   7.084 -0.2033  0.1997 -1.0036
   36MOL   H30312273   7.784   7.176   6.972 -1.0384  0.1519  0.8419
   36MOL   H30412274   7.691   7.168   7.255  0.4793 -0.9615  1.8166
   36MOL   H30512275   7.646   7.067   7.109 -0.2398  0.0890  1.2300
   36MOL   H30612276   7.837   7.002   7.316 -1.4018  0.5592 -0.3295
   36MOL   H30712277   7.802   6.894   7.176 -1.0354  0.0158 -0.2001
   36MOL   C30812278   0.276   7.242   7.106 -0.0040  0.3028 -0.1514
   36MOL   C30912279   0.263   7.333   7.231  0.6953  0.3902  0.4120
   36MOL   N31012280   0.384   7.318   7.320 -0.1819 -0.0090 -0.0962
   36MOL   C31112281   0.356   7.281   7.452  0.4356 -0.2448 -0.6252
   36MOL   C31212282   0.494   7.235   7.504  0.4519 -0.2972  0.4699
   36MOL   C31312283   0.600   7.282   7.399 -0.0273  0.3648  0.7908
   36MOL   C31412284   0.511   7.334   7.284 -0.1053  0.1735  0.3227
   36MOL   O31512285   0.556   7.380   7.183 -0.5642 -0.5622  0.1676
   36MOL   H31612286   0.348   7.294   7.042 -0.1346  0.2293 -0.3579
   36MOL   H31712287   0.316   7.144   7.134 -1.3466  0.4168  2.2010
   36MOL   H31812288   0.167   7.302   7.272  1.2059 -1.3277  0.3514
   36MOL   H31912289   0.333   7.369   7.513 -0.0251 -0.5687 -0.3332
   36MOL   H32012290   0.275   7.212   7.473 -0.1709  0.4681 -0.6261
   36MOL   H32112291   0.513   7.272   7.605 -2.9211 -0.5288  1.2486
   36MOL   H32212292   0.494   7.126   7.497  1.3440 -0.1129 -4.1592
   36MOL   H32312293   0.665   7.352   7.452  0.9898 -2.3092  3.1997
   36MOL   H32412294   0.662   7.200   7.362 -2.1572 -0.7630 -0.3757
   36MOL   C32512295   0.246   7.485   7.197 -0.7756 -0.3318 -0.1269
   36MOL   C32612296   0.250   7.585   7.310 -0.4781  0.1829  0.2437
   36MOL   N32712297   0.184   7.715   7.277 -0.2378  0.6605 -0.1601
   36MOL   C32812298   0.251   7.838   7.295 -0.3668  0.3513 -0.2749
   36MOL   C32912299   0.143   0.039   7.263 -0.2002  0.2696  0.0356
   36MOL   C33012300   0.010   7.874   7.241 -0.6945 -0.5050 -0.1304
   36MOL   C33112301   0.051   7.729   7.253 -0.3905 -0.5131  0.1064
   36MOL   O33212302   7.882   7.637   7.236 -0.3980  0.1640 -0.1494
   36MOL   H33312303   0.160   7.511   7.136 -0.5128  1.1685  0.1257
   36MOL   H33412304   0.330   7.504   7.130  0.5573 -1.3611  1.2032
   36MOL   H33512305   0.347   7.601   7.359 -0.0957  0.7150 -0.6789
   36MOL   H33612306   0.291   7.846   7.396  1.7096  0.7799 -1.1134
   36MOL   H33712307   0.334   7.839   7.225 -0.9258  1.9910 -0.9508
   36MOL   H33812308   0.147   0.100   7.353 -2.7679 -0.6412  0.7870
   36MOL   H33912309   0.168   0.109   7.183 -1.6529 -0.1277 -0.7762
   36MOL   H34012310   7.841   0.003   7.312 -1.5492  0.0330 -1.2920
   36MOL   H34112311   7.877   7.902   7.143 -1.0674  1.6574  0.6117
   36MOL   H34212312   0.189   7.546   7.391  1.6251  0.4945  2.0351
   37MOL     C112313   1.916   7.278   0.823 -0.1726 -0.4392 -0.5384
   37MOL     C212314   1.990   7.178   0.909  0.4473  0.4308 -0.3925
   37MOL     N312315   1.904   7.145   1.028 -0.7091 -0.7614 -0.6588
   37MOL     C412316   1.962   7.149   1.155  0.0310  0.4295 -0.0157
   37MOL     C512317   1.864   7.079   1.248  0.1411  0.3439 -0.8431
   37MOL     C612318   1.743   7.045   1.157  1.0836 -0.4824 -0.6525
   37MOL     C712319   1.784   7.090   1.019 -0.0276  0.6047 -0.6940
   37MOL     O812320   1.724   7.065   0.913 -0.4461 -0.5231  0.0658
   37MOL     H912321   1.977   7.321   0.742  0.2771 -0.1747 -0.0641
   37MOL    H1012322   1.822   7.239   0.784 -1.3206  1.2781  0.4822
   37MOL    H1112323   2.076   7.229   0.954  0.2306  0.4005  0.0573
   37MOL    H1212324   2.051   7.087   1.152  1.7368  2.8497 -1.7243
   37MOL    H1312325   1.993   7.252   1.175 -1.2413  0.6625  0.8283
   37MOL    H1412326   1.899   6.986   1.293  1.8494  1.8586  1.0461
   37MOL    H1512327   1.836   7.151   1.325 -0.0749 -1.0046  0.3397
   37MOL    H1612328   1.711   6.941   1.165 -0.1653 -0.0041  0.8804
   37MOL    H1712329   1.657   7.104   1.187 -0.4001 -2.8485 -0.1123
   37MOL    H1812330   1.880   7.356   0.890 -0.1523  0.7965 -1.9208
   37MOL    C1912331   2.052   7.068   0.821  0.1368  0.3996 -0.4175
   37MOL    C2012332   2.124   6.947   0.896 -0.0437 -0.5296 -0.2138
   37MOL    N2112333   2.031   6.838   0.939 -0.4641 -0.4286 -0.5531
   37MOL    C2212334   1.952   6.760   0.849  0.5584  0.4347  0.1342
   37MOL    C2312335   1.912   6.639   0.931  0.5661 -0.1406  0.4872
   37MOL    C2412336   1.935   6.670   1.074 -0.6654  0.3740 -0.2237
   37MOL    C2512337   2.022   6.794   1.070  0.2049 -0.4381  0.0092
   37MOL    O2612338   2.081   6.829   1.171 -0.4860  0.4850  0.1665
   37MOL    H2712339   2.118   7.127   0.756 -1.0975  1.6796 -0.5237
   37MOL    H2812340   1.974   7.041   0.750  0.0553  1.8965 -0.9209
   37MOL    H2912341   2.167   6.999   0.982  2.0399  0.3133 -1.6990
   37MOL    H3012342   1.876   6.828   0.812  1.5543  1.9800  0.9066
   37MOL    H3112343   2.005   6.717   0.763  1.4474 -1.6664  1.6760
   37MOL    H3212344   1.805   6.620   0.916  0.8373 -0.2565 -1.5020
   37MOL    H3312345   1.975   6.555   0.901 -0.1763 -0.8899  1.0106
   37MOL    H3412346   1.838   6.700   1.113 -0.3823  0.1803  0.6599
   37MOL    H3512347   1.981   6.593   1.136 -1.3380 -1.0108 -1.4360
   37MOL    C3612348   2.240   6.871   0.820 -0.5825 -0.0358  0.7365
   37MOL    C3712349   2.369   6.956   0.803 -0.0530 -0.4215  0.6817
   37MOL    N3812350   2.431   7.003   0.928 -0.1023 -0.0822 -0.3367
   37MOL    C3912351   2.451   7.145   0.958 -0.0733  0.0380 -0.4182
   37MOL    C4012352   2.516   7.154   1.098  0.4665  0.1978 -0.1266
   37MOL    C4112353   2.524   7.011   1.148  0.5967  0.2861  0.9316
   37MOL    C4212354   2.484   6.927   1.023 -0.5462  0.4504 -0.1338
   37MOL    O4312355   2.508   6.808   1.010 -0.5263  0.1934  0.0475
   37MOL    H4412356   2.211   6.839   0.720 -0.2588  2.1582 -0.0915
   37MOL    H4512357   2.264   6.780   0.874  0.8845 -1.0471 -1.5522
   37MOL    H4612358   2.333   7.044   0.749  1.1838 -0.0961  0.3778
   37MOL    H4712359   2.517   7.184   0.880  0.5148 -0.6611 -0.2717
   37MOL    H4812360   2.352   7.191   0.949  0.8167  1.9544 -0.8510
   37MOL    H4912361   2.615   7.199   1.097  0.6105 -0.0584  1.6409
   37MOL    H5012362   2.471   7.221   1.171 -1.0471 -0.4555 -0.4297
   37MOL    H5112363   2.624   6.999   1.189  0.9032  0.6427  0.3006
   37MOL    H5212364   2.451   6.981   1.224 -0.4401 -1.9754 -0.9149
   37MOL    C5312365   2.476   6.899   0.706 -0.2330 -0.4763 -0.1757
   37MOL    C5412366   2.450   6.893   0.551  0.0210 -0.6641 -0.1108
   37MOL    N5512367   2.448   7.036   0.483 -0.1532  0.1851  0.4660
   37MOL    C5612368   2.319   7.083   0.432 -0.2749  0.2301 -0.8994
   37MOL    C5712369   2.351   7.220   0.364 -0.6084 -0.4385  0.1885
   37MOL    C5812370   2.504   7.237   0.381 -0.9461  0.0370  0.2097
   37MOL    C5912371   2.549   7.113   0.450 -0.2487 -0.1726 -1.0866
   37MOL    O6012372   2.667   7.094   0.470  0.5046 -0.4111 -0.1324
   37MOL    H6112373   2.503   6.799   0.741 -0.8837 -0.3384  0.7442
   37MOL    H6212374   2.572   6.949   0.720 -2.0629  2.7154  1.5555
   37MOL    H6312375   2.347   6.862   0.536 -1.1703  2.9656 -0.1433
   37MOL    H6412376   2.275   7.003   0.372  0.0560  1.3687 -2.6979
   37MOL    H6512377   2.262   7.101   0.523  1.1715 -0.2675  0.1150
   37MOL    H6612378   2.321   7.222   0.260  1.5112 -1.4204 -0.4738
   37MOL    H6712379   2.301   7.296   0.423  2.1427  1.9752 -0.4928
   37MOL    H6812380   2.554   7.229   0.284  0.0773 -0.9250  0.7989
   37MOL    H6912381   2.534   7.327   0.433 -1.6512  0.7336 -0.5693
   37MOL    C7012382   2.542   6.787   0.487  0.3623 -0.5270 -0.1639
   37MOL    C7112383   2.476   6.674   0.400 -0.3627 -0.5095 -0.0498
   37MOL    N7212384   2.349   6.618   0.443 -0.3158  0.0392  0.0437
   37MOL    C7312385   2.338   6.559   0.575  0.5038 -0.0444  0.4962
   37MOL    C7412386   2.196   6.517   0.593  0.3706  0.9802 -0.8278
   37MOL    C7512387   2.120   6.603   0.493 -0.5600  0.3207 -0.1694
   37MOL    C7612388   2.229   6.664   0.401 -0.1400  0.5877 -0.5588
   37MOL    O7712389   2.200   6.746   0.314 -0.4637 -0.7486 -0.4969
   37MOL    H7812390   2.595   6.734   0.565 -2.7660 -4.5631 -0.5689
   37MOL    H7912391   2.628   6.831   0.436 -0.8880  1.9443 -0.2253
   37MOL    H8012392   2.527   6.578   0.415  1.2505  0.0980 -1.4967
   37MOL    H8112393   2.402   6.472   0.589  0.4753 -0.2059 -0.3731
   37MOL    H8212394   2.368   6.623   0.659 -0.2574  1.7586 -0.5730
   37MOL    H8312395   2.172   6.416   0.562  1.0589  0.3681  0.5862
   37MOL    H8412396   2.156   6.521   0.694  0.5555 -1.2033 -0.6562
   37MOL    H8512397   2.048   6.544   0.435 -0.1137 -0.8458  0.4536
   37MOL    H8612398   2.066   6.688   0.536 -2.0505  0.4592 -2.2150
   37MOL    C8712399   2.472   6.705   0.250 -0.1379 -0.3314  0.3209
   37MOL    C8812400   2.594   6.686   0.165 -0.8336  0.2677 -0.4113
   37MOL    N8912401   2.652   6.550   0.199 -0.0268  0.1979 -0.0301
   37MOL    C9012402   2.794   6.553   0.242 -0.5392  0.5893  0.3074
   37MOL    C9112403   2.827   6.404   0.288 -0.3465 -0.2516  0.6228
   37MOL    C9212404   2.707   6.326   0.237 -0.1400 -0.0700 -0.1143
   37MOL    C9312405   2.606   6.429   0.183  0.0787  0.0539 -0.1847
   37MOL    O9412406   2.498   6.404   0.130  1.0374  0.7896 -0.9596
   37MOL    H9512407   2.438   6.807   0.232  0.7051  0.1541  1.4426
   37MOL    H9612408   2.395   6.648   0.197 -0.1411 -0.8698  0.8997
   37MOL    H9712409   2.666   6.761   0.200 -0.0177 -0.6919 -0.0069
   37MOL    H9812410   2.848   6.580   0.151  0.4525 -0.5251  0.5458
   37MOL    H9912411   2.801   6.631   0.317 -0.4504 -0.9626  1.9444
   37MOL   H10012412   2.916   6.364   0.242 -0.8924  1.8596 -2.4089
   37MOL   H10112413   2.833   6.408   0.397  0.4203  0.3087  0.5664
   37MOL   H10212414   2.742   6.250   0.168  1.5753  1.1065 -0.5749
   37MOL   H10312415   2.670   6.263   0.318  0.9440 -0.7749 -0.1635
   37MOL   C10412416   2.571   6.708   0.012  0.4427  0.5513 -0.3807
   37MOL   C10512417   2.576   6.859   7.884  0.2828 -0.2534 -0.2433
   37MOL   N10612418   2.705   6.922   7.901  0.0339  0.3368 -0.0083
   37MOL   C10712419   2.726   7.031   0.096  0.6749 -0.1525 -0.9456
   37MOL   C10812420   2.875   7.068   0.100 -0.0007  0.3473 -0.3941
   37MOL   C10912421   2.937   6.982   7.898  0.0418  0.1228  0.2122
   37MOL   C11012422   2.821   6.896   7.837 -0.1603 -0.3037  0.7727
   37MOL   O11112423   2.839   6.817   7.741  0.1064 -0.1973 -0.3575
   37MOL   H11212424   2.479   6.659   7.887  1.2513  0.1894 -2.2902
   37MOL   H11312425   2.651   6.658   7.863  0.7715  0.9273 -0.2481
   37MOL   H11412426   2.500   6.905   0.041 -0.2761  0.2076 -1.2474
   37MOL   H11512427   2.666   7.115   0.062  1.3464 -0.2789 -2.4919
   37MOL   H11612428   2.701   7.007   0.199  0.4078 -0.0539 -0.9889
   37MOL   H11712429   2.887   7.176   0.088 -0.0115  0.4155  0.2126
   37MOL   H11812430   2.927   7.034   0.189 -0.2836  1.7074  0.3104
   37MOL   H11912431   2.997   6.912   0.051  1.6950  1.8352  0.6293
   37MOL   H12012432   3.007   7.025   7.826 -0.2430 -0.8914 -0.6830
   37MOL   C12112433   2.532   6.872   7.740  0.2741  0.2309 -0.1124
   37MOL   C12212434   2.375   6.847   7.713 -0.3517 -0.1905 -0.1191
   37MOL   N12312435   2.290   6.943   7.786 -0.0510 -0.5752 -0.0816
   37MOL   C12412436   2.164   6.900   7.839  0.3106 -0.4459 -0.6805
   37MOL   C12512437   2.100   7.029   7.887  0.3240 -0.3360 -0.6129
   37MOL   C12612438   2.171   7.137   7.816  0.3500  0.4586 -0.5413
   37MOL   C12712439   2.301   7.078   7.783 -0.1279  0.4193 -0.3453
   37MOL   O12812440   2.395   7.142   7.749 -0.1277 -0.3905 -0.2648
   37MOL   H12912441   2.580   6.790   7.687  0.2937  1.3041 -1.7838
   37MOL   H13012442   2.564   6.965   7.693  0.3585  0.6028  0.6673
   37MOL   H13112443   2.357   6.741   7.733 -1.6640 -0.4821 -2.6262
   37MOL   H13212444   2.183   6.829   0.014 -2.1714 -0.9480 -0.4931
   37MOL   H13312445   2.113   6.847   7.759 -1.9269  3.1615 -1.7632
   37MOL   H13412446   1.993   7.013   7.871  0.5740 -2.8138  0.1054
   37MOL   H13512447   2.113   7.045   0.089  2.2508 -3.1035 -0.3876
   37MOL   H13612448   2.115   7.156   7.724 -0.7445 -3.3725 -0.7780
   37MOL   H13712449   2.195   7.226   7.874 -0.5475  0.4970 -0.2029
   37MOL   C13812450   2.350   6.863   7.562 -0.0785  0.2224 -0.4330
   37MOL   C13912451   2.390   6.743   7.472 -0.9976 -0.2660  0.8860
   37MOL   N14012452   2.340   6.607   7.515  0.5770 -0.2976 -0.3972
   37MOL   C14112453   2.435   6.500   7.513 -0.6421 -0.0671 -0.6357
   37MOL   C14212454   2.361   6.373   7.549  0.1899  0.0581 -0.1019
   37MOL   C14312455   2.215   6.425   7.583 -0.5520  0.3447 -0.4457
   37MOL   C14412456   2.221   6.577   7.569 -0.7717  0.1811  0.4053
   37MOL   O14512457   2.128   6.657   7.586  0.3732 -0.4642 -0.3595
   37MOL   H14612458   2.389   6.958   7.528 -0.1071  0.3899 -0.0024
   37MOL   H14712459   2.242   6.880   7.551 -0.4982 -1.1992  1.2794
   37MOL   H14812460   2.498   6.738   7.471 -0.9934 -0.1163  0.5768
   37MOL   H14912461   2.494   6.504   7.422 -0.7471  1.0734 -0.6552
   37MOL   H15012462   2.510   6.528   7.587 -0.9861 -0.6358 -0.0694
   37MOL   H15112463   2.364   6.303   7.466  0.3189 -1.7609  1.3995
   37MOL   H15212464   2.404   6.326   7.637  0.1444 -0.3475 -0.2981
   37MOL   H15312465   2.195   6.391   7.685  1.2091 -0.6061 -0.3988
   37MOL   H15412466   2.147   6.376   7.514 -1.0974 -0.7957  0.8747
   37MOL   C15512467   2.331   6.772   7.331 -0.5756  0.1922 -0.8523
   37MOL   C15612468   2.423   6.877   7.266 -0.6507 -0.0791  0.1272
   37MOL   N15712469   2.564   6.839   7.256  0.6671 -0.1394  0.4407
   37MOL   C15812470   2.651   6.920   7.340  0.2830  0.0026  0.1266
   37MOL   C15912471   2.786   6.836   7.334  0.1277  0.2491 -0.4521
   37MOL   C16012472   2.772   6.729   7.224  0.2323 -0.2846  0.5318
   37MOL   C16112473   2.624   6.741   7.186 -0.4214 -0.5741  0.3490
   37MOL   O16212474   2.563   6.662   7.115  0.0910  0.0347 -0.0151
   37MOL   H16312475   2.228   6.807   7.345 -0.8825 -1.5335  1.5189
   37MOL   H16412476   2.326   6.683   7.269  1.8801 -2.1679  2.1332
   37MOL   H16512477   2.417   6.976   7.312 -0.1553  0.9516 -1.9591
   37MOL   H16612478   2.673   7.011   7.284 -0.9478 -1.4076 -2.7520
   37MOL   H16712479   2.629   6.952   7.442 -1.7520  1.1189 -0.6426
   37MOL   H16812480   2.875   6.897   7.321 -1.3974  2.5427 -0.3285
   37MOL   H16912481   2.796   6.775   7.424 -2.0376  1.1339  0.4263
   37MOL   H17012482   2.818   6.745   7.126  0.6463 -1.5631  0.5077
   37MOL   H17112483   2.798   6.627   7.250 -0.0432 -0.3674  0.4821
   37MOL   C17212484   2.373   6.907   7.119 -0.4397  0.6323 -0.4411
   37MOL   C17312485   2.260   7.015   7.092  0.1251 -0.4756  0.2702
   37MOL   N17412486   2.176   7.040   7.214 -0.4504 -0.2850 -0.4051
   37MOL   C17512487   2.041   6.984   7.209 -0.6296 -0.6316 -0.2349
   37MOL   C17612488   1.984   7.021   7.350  0.5870  0.4193 -0.2003
   37MOL   C17712489   2.076   7.125   7.411  0.1050  0.0457 -0.0919
   37MOL   C17812490   2.195   7.125   7.313  0.0682 -0.2282  0.5978
   37MOL   O17912491   2.297   7.198   7.330 -0.3216  0.2612 -0.2824
   37MOL   H18012492   2.351   6.813   7.069 -0.1778  0.9496 -1.1599
   37MOL   H18112493   2.458   6.941   7.060  1.1066 -0.3549  1.1706
   37MOL   H18212494   2.196   6.968   7.017  0.9939  1.7658 -1.9478
   37MOL   H18312495   1.989   7.038   7.129  1.4773  2.1187  0.1639
   37MOL   H18412496   2.040   6.876   7.198  1.1994 -0.8360  1.3783
   37MOL   H18512497   1.973   6.937   7.419  0.7167  0.3905 -0.2159
   37MOL   H18612498   1.885   7.064   7.335 -0.7077 -2.4603 -0.3424
   37MOL   H18712499   2.034   7.223   7.390  0.6138  0.4226  0.6384
   37MOL   H18812500   2.107   7.106   7.514 -0.0847  0.5147  0.0550
   37MOL   C18912501   2.297   7.155   7.027 -0.0278  0.5960 -0.0921
   37MOL   C19012502   2.175   7.249   7.002  0.1267 -0.5876  0.2374
   37MOL   N19112503   2.225   7.384   7.005  0.0411  0.0606 -0.4169
   37MOL   C19212504   2.303   7.445   6.895 -0.5071  0.5667 -0.2301
   37MOL   C19312505   2.365   7.571   6.949  0.2434 -0.9141 -0.2763
   37MOL   C19412506   2.291   7.597   7.078 -0.0287  0.3447  0.2498
   37MOL   C19512507   2.219   7.471   7.108 -0.4108 -0.6643 -0.5819
   37MOL   O19612508   2.147   7.450   7.210  0.0653  0.2890  0.3683
   37MOL   H19712509   2.352   7.137   6.934 -3.5546 -2.0604 -1.7648
   37MOL   H19812510   2.368   7.204   7.093 -0.3420  2.5418 -1.1594
   37MOL   H19912511   2.109   7.237   7.088 -1.1208  1.5819 -0.3887
   37MOL   H20012512   2.373   7.378   6.845 -1.3672 -0.9440  0.5710
   37MOL   H20112513   2.232   7.467   6.816 -0.8345  0.1494 -0.0503
   37MOL   H20212514   2.470   7.554   6.972  0.1702  1.0773  1.6634
   37MOL   H20312515   2.360   7.660   6.886 -1.9838 -1.5626 -1.0268
   37MOL   H20412516   2.363   7.609   7.160 -0.5085  0.2647  0.6835
   37MOL   H20512517   2.223   7.679   7.057 -0.0292  0.4433  0.6303
   37MOL   C20612518   2.087   7.224   6.874  0.2890 -0.3160  0.3706
   37MOL   C20712519   1.937   7.244   6.896 -0.6542 -0.2354  0.2364
   37MOL   N20812520   1.899   7.368   6.959 -0.1803  0.7811 -0.3275
   37MOL   C20912521   1.826   7.367   7.087 -0.2434 -0.2050  0.1147
   37MOL   C21012522   1.779   7.510   7.106 -0.8681 -0.2785 -0.2027
   37MOL   C21112523   1.843   7.597   6.999 -0.3233  0.4463 -0.1480
   37MOL   C21212524   1.904   7.495   6.906  0.2688 -0.5278  0.0515
   37MOL   O21312525   1.965   7.528   6.808 -0.4512  0.4172 -0.4785
   37MOL   H21412526   2.094   7.124   6.830 -2.7150  0.0637 -1.1321
   37MOL   H21512527   2.122   7.277   6.786 -0.0623 -0.3607  0.2022
   37MOL   H21612528   1.904   7.160   6.957  0.6268  0.8416  2.4772
   37MOL   H21712529   1.735   7.308   7.077 -0.5250  0.0385  1.2482
   37MOL   H21812530   1.881   7.339   7.176 -0.4922 -0.2396  0.2579
   37MOL   H21912531   1.671   7.522   7.097 -0.7841 -0.4827 -1.5358
   37MOL   H22012532   1.802   7.552   7.204  0.8471 -2.6216  0.4407
   37MOL   H22112533   1.774   7.647   6.930 -0.6310  0.9104  0.4850
   37MOL   H22212534   1.922   7.658   7.042 -0.4451 -0.4259  1.3404
   37MOL   C22312535   1.866   7.222   6.757 -0.3168  0.7135 -0.3011
   37MOL   C22412536   1.844   7.077   6.705  0.2474 -1.0198 -0.1308
   37MOL   N22512537   1.777   6.996   6.803  0.0629  0.2853 -0.5114
   37MOL   C22612538   1.635   7.010   6.837  0.6018 -0.1529 -0.2784
   37MOL   C22712539   1.613   6.922   6.963  0.1570  0.2313 -0.3349
   37MOL   C22812540   1.746   6.863   6.996 -0.4065 -0.3017  0.3987
   37MOL   C22912541   1.831   6.902   6.880 -0.6029  0.1266  0.3306
   37MOL   O23012542   1.949   6.870   6.876  0.5417  0.2264 -0.2914
   37MOL   H23112543   1.904   7.285   6.676  1.1262  0.3094  0.0620
   37MOL   H23212544   1.767   7.263   6.777  0.2098  1.6130  0.4981
   37MOL   H23312545   1.948   7.045   6.699  0.6150 -0.4783  2.4298
   37MOL   H23412546   1.611   7.114   6.859  0.4601  0.0470 -1.3233
   37MOL   H23512547   1.573   6.984   6.751 -1.3212  1.3577  0.6219
   37MOL   H23612548   1.585   6.988   7.045  3.0738  1.0162  0.0783
   37MOL   H23712549   1.542   6.842   6.941  1.4427 -0.4907 -1.9406
   37MOL   H23812550   1.783   6.919   7.082  0.0966  0.3251 -0.2247
   37MOL   H23912551   1.745   6.760   7.033 -0.0878 -0.4529  0.0007
   37MOL   C24012552   1.772   7.075   6.572  0.9651  0.2352  0.5529
   37MOL   C24112553   1.856   7.110   6.451 -0.4133  0.1348 -0.3678
   37MOL   N24212554   1.976   7.032   6.442  0.0627  0.1657 -1.0371
   37MOL   C24312555   1.967   6.888   6.447  0.8205 -1.2165 -0.4426
   37MOL   C24412556   2.108   6.832   6.450 -0.1791 -0.2611  1.2753
   37MOL   C24512557   2.200   6.951   6.437 -0.1876 -0.3804  0.5316
   37MOL   C24612558   2.101   7.068   6.428 -1.0419  0.1376 -0.1787
   37MOL   O24712559   2.137   7.185   6.406  0.2076 -0.5439 -0.1471
   37MOL   H24812560   1.677   7.128   6.572  0.5539 -0.4852  0.4271
   37MOL   H24912561   1.739   6.973   6.550 -0.4087  1.1766 -1.9092
   37MOL   H25012562   1.886   7.214   6.462 -1.4563  0.3281  0.8467
   37MOL   H25112563   1.923   6.867   6.544 -1.3389  0.6701 -0.9647
   37MOL   H25212564   1.903   6.844   6.370  1.8487 -1.5412 -1.1171
   37MOL   H25312565   2.122   6.778   6.543 -0.9811 -3.9844 -0.6410
   37MOL   H25412566   2.125   6.758   6.372 -1.1423  0.8084  0.0146
   37MOL   H25512567   2.258   6.965   6.528  0.2347 -0.2320  0.2422
   37MOL   H25612568   2.276   6.942   6.359 -0.7302  3.1970 -0.4969
   37MOL   C25712569   1.782   7.113   6.313 -0.1223 -0.0120  0.0967
   37MOL   C25812570   1.685   7.233   6.297 -0.2123  0.1528 -0.0203
   37MOL   N25912571   1.752   7.368   6.304  0.5196 -0.2281 -0.5652
   37MOL   C26012572   1.731   7.450   6.425 -0.3110 -0.0100  0.5650
   37MOL   C26112573   1.788   7.585   6.391  0.4255  0.3025 -0.7503
   37MOL   C26212574   1.891   7.547   6.274 -0.3585 -0.0458 -0.0180
   37MOL   C26312575   1.844   7.416   6.225  0.2119  0.2725  0.1292
   37MOL   O26412576   1.878   7.361   6.122 -0.4257 -0.5232  0.0829
   37MOL   H26512577   1.741   7.013   6.302 -1.4795  0.5572 -0.1356
   37MOL   H26612578   1.851   7.112   6.228  1.4812  0.6525  1.3487
   37MOL   H26712579   1.622   7.221   6.386  1.3318 -0.5951  1.0060
   37MOL   H26812580   1.627   7.460   6.455 -0.3220 -0.1612  0.5799
   37MOL   H26912581   1.786   7.410   6.510  2.8935  0.3966 -1.2224
   37MOL   H27012582   1.715   7.656   6.354  0.2952  0.8677  0.5699
   37MOL   H27112583   1.832   7.629   6.481  1.4199  0.3198 -1.2296
   37MOL   H27212584   1.897   7.615   6.189  1.8553  0.8018  0.7864
   37MOL   H27312585   1.995   7.531   6.302  0.5450  1.6837 -2.2651
   37MOL   C27412586   1.606   7.216   6.163 -0.5181  0.3160  0.0909
   37MOL   C27512587   1.520   7.088   6.164 -0.2639  0.3966  0.1700
   37MOL   N27612588   1.376   7.119   6.138 -0.0166  0.4727 -0.1118
   37MOL   C27712589   1.290   7.141   6.253  0.5556 -0.0604  0.0450
   37MOL   C27812590   1.147   7.146   6.203  0.6314  0.4311 -0.5657
   37MOL   C27912591   1.157   7.143   6.054  0.6885  0.5600  0.2355
   37MOL   C28012592   1.304   7.115   6.026 -0.6160  0.5123  0.5201
   37MOL   O28112593   1.351   7.094   5.907  0.3293 -0.3360  0.2012
   37MOL   H28212594   1.675   7.220   6.078 -0.4251 -0.7866  0.1024
   37MOL   H28312595   1.533   7.297   6.159 -1.5019 -0.4973  1.3697
   37MOL   H28412596   1.529   7.051   6.267 -1.2997  0.4644  0.2957
   37MOL   H28512597   1.301   7.070   6.334 -1.1045  0.8573  1.0910
   37MOL   H28612598   1.317   7.237   6.297 -1.9582  0.1458  1.2083
   37MOL   H28712599   1.087   7.065   6.245  0.5274  1.0933  0.5830
   37MOL   H28812600   1.095   7.236   6.236 -1.2634 -0.2745 -1.5880
   37MOL   H28912601   1.115   7.054   6.009 -0.5534  1.8797 -1.2949
   37MOL   H29012602   1.114   7.226   5.998 -1.0428 -0.8446 -0.5644
   37MOL   C29112603   1.579   6.978   6.078 -0.2605  0.8732  0.5830
   37MOL   C29212604   1.522   6.843   6.107  0.7747  0.4339  0.5494
   37MOL   N29312605   1.541   6.767   5.983 -0.6476  0.4627 -0.3694
   37MOL   C29412606   1.432   6.756   5.890 -0.1828 -0.8528 -0.7194
   37MOL   C29512607   1.484   6.707   5.758  0.5978 -0.0033 -0.3908
   37MOL   C29612608   1.621   6.639   5.792  0.4798  0.1417 -0.1330
   37MOL   C29712609   1.644   6.695   5.931 -0.0257 -0.6282  0.0097
   37MOL   O29812610   1.756   6.690   5.978 -0.3264  0.5382 -0.2870
   37MOL   H29912611   1.687   6.968   6.088 -0.4691 -0.5061  1.4731
   37MOL   H30012612   1.576   7.005   5.972  1.0367  2.0084  0.8230
   37MOL   H30112613   1.417   6.829   6.134  0.2031  3.3048 -0.0568
   37MOL   H30212614   1.353   6.693   5.931  0.0187 -1.9446 -1.9397
   37MOL   H30312615   1.380   6.850   5.874  2.5886  0.6154 -1.4623
   37MOL   H30412616   1.409   6.631   5.735  1.9673 -1.2018 -0.9142
   37MOL   H30512617   1.488   6.792   5.690  0.4761 -0.3361 -0.8211
   37MOL   H30612618   1.601   6.532   5.790 -0.3878  0.3125 -0.7762
   37MOL   H30712619   1.696   6.662   5.717  0.5879 -1.5223 -0.5543
   37MOL   C30812620   1.598   6.777   6.230  0.0106  0.4813  0.1391
   37MOL   C30912621   1.565   6.632   6.263 -0.1051  0.0714  0.1611
   37MOL   N31012622   1.680   6.569   6.328  0.8293  0.3310 -0.7248
   37MOL   C31112623   1.740   6.445   6.274 -0.2976  0.5403 -0.1053
   37MOL   C31212624   1.858   6.413   6.376  0.3597 -0.0077  0.0176
   37MOL   C31312625   1.843   6.514   6.487 -0.0855  0.0173  0.8816
   37MOL   C31412626   1.730   6.604   6.451  0.2698 -0.2246  0.2315
   37MOL   O31512627   1.681   6.689   6.523 -0.0149 -0.4434 -0.2299
   37MOL   H31612628   1.586   6.847   6.313 -1.3641  0.9444 -0.4358
   37MOL   H31712629   1.701   6.779   6.194 -0.5529 -0.7425 -1.6240
   37MOL   H31812630   1.547   6.588   6.165 -0.0188 -0.8944  0.5706
   37MOL   H31912631   1.674   6.359   6.264  0.5713  0.1601 -3.0127
   37MOL   H32012632   1.783   6.475   6.179  0.6486  0.6904  0.3620
   37MOL   H32112633   1.837   6.318   6.426  2.1019 -0.1305  0.5337
   37MOL   H32212634   1.959   6.406   6.336  1.3188 -2.3787  2.7148
   37MOL   H32312635   1.824   6.470   6.585  0.7701 -0.2987  0.9122
   37MOL   H32412636   1.934   6.572   6.506  1.2395 -2.7472  3.3472
   37MOL   C32512637   1.428   6.615   6.331 -0.1940 -0.1133  0.1305
   37MOL   C32612638   1.396   6.468   6.367 -0.6554 -0.0374  0.5732
   37MOL   N32712639   1.259   6.450   6.424  0.6635  0.3028  0.0106
   37MOL   C32812640   1.243   6.390   6.560  0.3475  0.1526  0.0464
   37MOL   C32912641   1.100   6.330   6.562 -1.0310 -0.3108  0.3041
   37MOL   C33012642   1.035   6.381   6.435 -0.1052  0.5002 -0.4476
   37MOL   C33112643   1.147   6.436   6.353 -0.3390 -0.4471  0.1179
   37MOL   O33212644   1.140   6.458   6.237 -0.2450 -0.5106  0.3323
   37MOL   H33312645   1.347   6.657   6.273 -1.0750 -2.2182 -0.2212
   37MOL   H33412646   1.433   6.668   6.426 -1.4692  0.1980  0.0313
   37MOL   H33512647   1.465   6.435   6.445 -0.5586 -2.3077 -0.4053
   37MOL   H33612648   1.328   6.331   6.595  0.6127 -0.8632 -2.2438
   37MOL   H33712649   1.239   6.478   6.625  0.3993 -0.1139  0.4146
   37MOL   H33812650   1.092   6.221   6.560  0.1619 -0.4420  1.3564
   37MOL   H33912651   1.037   6.344   6.650 -1.4783  0.2668 -0.1093
   37MOL   H34012652   1.003   6.290   6.384 -0.2973 -0.0334  0.6225
   37MOL   H34112653   0.952   6.450   6.449  0.7150  1.1054  1.5993
   37MOL   H34212654   1.426   6.384   6.303 -1.1632 -0.4005  0.8096
   38MOL     C112655   7.218   2.046   5.723 -0.2100  0.4783  1.3032
   38MOL     C212656   7.184   1.896   5.752  0.3445 -0.2343 -0.1516
   38MOL     N312657   7.205   1.867   5.893  0.4016  1.2861  0.3615
   38MOL     C412658   7.294   1.756   5.932 -0.0196  0.2064 -0.4114
   38MOL     C512659   7.281   1.744   6.090  0.5590  0.1993  0.2490
   38MOL     C612660   7.168   1.845   6.125 -0.3112  0.0751  0.0261
   38MOL     C712661   7.143   1.918   5.998  0.5574 -0.1635 -0.4710
   38MOL     O812662   7.059   2.009   5.997 -0.0237 -0.1727  0.1015
   38MOL     H912663   7.162   2.118   5.782 -1.3378  0.0020  0.8235
   38MOL    H1012664   7.324   2.064   5.739  0.5119 -1.6077 -0.8143
   38MOL    H1112665   7.247   1.826   5.696  2.6669  1.5072  0.2298
   38MOL    H1212666   7.261   1.663   5.885 -0.1135  1.0288 -2.0371
   38MOL    H1312667   7.398   1.765   5.898  0.2101 -1.7937 -0.3077
   38MOL    H1412668   7.266   1.642   6.127  1.4730 -1.6125 -4.1008
   38MOL    H1512669   7.367   1.773   6.151  0.8149  1.3428 -0.6553
   38MOL    H1612670   7.069   1.798   6.133 -0.1141 -0.0130  2.2709
   38MOL    H1712671   7.200   1.912   6.205  0.7864 -1.4932  0.9401
   38MOL    H1812672   7.197   2.073   5.620  0.8482 -0.5996  0.7854
   38MOL    C1912673   7.038   1.868   5.706 -0.0250 -0.1842  0.1916
   38MOL    C2012674   6.981   1.727   5.714 -0.1391 -0.3120  0.3574
   38MOL    N2112675   6.875   1.708   5.814 -0.1733  0.0830  0.3531
   38MOL    C2212676   6.903   1.612   5.920  0.7248 -0.2267  0.3032
   38MOL    C2312677   6.771   1.606   6.005 -0.1274  0.5004 -0.1343
   38MOL    C2412678   6.663   1.689   5.920 -0.1170  0.1705  0.0846
   38MOL    C2512679   6.745   1.742   5.797  0.2695 -0.1166  0.7952
   38MOL    O2612680   6.687   1.810   5.712  0.6560  0.0148 -0.6689
   38MOL    H2712681   7.031   1.898   5.602 -1.3189 -2.7570 -0.4918
   38MOL    H2812682   6.975   1.929   5.771 -0.1366 -0.0966 -0.0016
   38MOL    H2912683   7.067   1.667   5.746  0.5728 -0.1405 -1.2017
   38MOL    H3012684   6.919   1.521   5.862  0.5942  1.2413 -2.0652
   38MOL    H3112685   6.990   1.643   5.979  0.8599 -0.5348  0.2672
   38MOL    H3212686   6.747   1.500   6.012  0.7280  0.4004  1.6540
   38MOL    H3312687   6.777   1.650   6.105 -1.6302 -0.5687  0.4333
   38MOL    H3412688   6.579   1.631   5.884  0.7983 -1.7449  0.9827
   38MOL    H3512689   6.625   1.779   5.968 -3.6494 -0.2912 -1.7414
   38MOL    C3612690   6.942   1.665   5.576 -0.4292 -0.4729  0.0614
   38MOL    C3712691   7.065   1.627   5.490  0.4517 -0.0179 -0.1155
   38MOL    N3812692   7.135   1.508   5.541  0.2480 -0.8688  0.0416
   38MOL    C3912693   7.269   1.537   5.586  0.2113 -0.5750 -0.6855
   38MOL    C4012694   7.306   1.411   5.660  0.7553  0.1497  0.1746
   38MOL    C4112695   7.207   1.304   5.630 -0.1219 -0.0790  0.2511
   38MOL    C4212696   7.096   1.380   5.563 -0.9403  0.0466  0.2567
   38MOL    O4312697   6.989   1.332   5.535  0.8756 -0.5351 -0.3368
   38MOL    H4412698   6.890   1.737   5.513 -0.5900 -1.0921 -0.5239
   38MOL    H4512699   6.878   1.579   5.595  0.4718 -0.6758  2.3231
   38MOL    H4612700   7.136   1.709   5.479  2.4051 -1.8928 -1.9089
   38MOL    H4712701   7.342   1.562   5.509 -1.3419  2.3307 -1.3232
   38MOL    H4812702   7.279   1.625   5.650  3.5955  0.2705 -2.2725
   38MOL    H4912703   7.411   1.387   5.641  0.9026  0.3004  0.7993
   38MOL    H5012704   7.308   1.432   5.767  2.1437 -0.6465  0.3186
   38MOL    H5112705   7.246   1.230   5.560 -1.5028 -1.2627  0.7085
   38MOL    H5212706   7.170   1.253   5.719 -0.9630 -0.0401 -0.0745
   38MOL    C5312707   7.011   1.602   5.346  0.1353 -0.4962  0.0271
   38MOL    C5412708   7.116   1.608   5.230  0.5609  0.2141  0.1221
   38MOL    N5512709   7.066   1.539   5.111 -0.3679  0.4020 -0.3511
   38MOL    C5612710   7.136   1.416   5.072  0.1671  0.1455 -0.2412
   38MOL    C5712711   7.091   1.381   4.932  0.9202 -0.0988  0.5242
   38MOL    C5812712   6.957   1.456   4.922  0.0226  0.0049  0.6679
   38MOL    C5912713   6.954   1.553   5.043 -0.0929 -0.6604  0.0669
   38MOL    O6012714   6.851   1.610   5.069 -0.3218 -0.3531 -0.2837
   38MOL    H6112715   6.926   1.663   5.317  0.5003  0.7560  1.5334
   38MOL    H6212716   6.968   1.502   5.349  0.6538 -0.7422 -0.6158
   38MOL    H6312717   7.205   1.564   5.275  0.0146 -0.9742  0.0793
   38MOL    H6412718   7.244   1.427   5.072  0.6057 -3.6323 -0.2334
   38MOL    H6512719   7.115   1.339   5.146 -0.0237  0.2844 -0.1479
   38MOL    H6612720   7.168   1.420   4.865  0.4071  2.2170  1.2388
   38MOL    H6712721   7.072   1.275   4.916  1.3584 -0.0834 -0.1461
   38MOL    H6812722   6.936   1.499   4.824 -0.9626 -0.6162  0.6037
   38MOL    H6912723   6.882   1.381   4.945 -1.0298  1.4749  2.0991
   38MOL    C7012724   7.145   1.752   5.194 -0.0597 -0.3371 -0.2065
   38MOL    C7112725   7.272   1.778   5.112 -0.0574  0.0765 -0.5303
   38MOL    N7212726   7.283   1.736   4.965  0.7798  0.0747  0.0034
   38MOL    C7312727   7.406   1.671   4.928 -0.2762  0.1388  0.6397
   38MOL    C7412728   7.390   1.648   4.776 -0.1511  0.2510  0.0168
   38MOL    C7512729   7.255   1.702   4.736 -1.0331 -0.1189  0.3195
   38MOL    C7612730   7.206   1.771   4.861  0.1453  0.3614 -0.5279
   38MOL    O7712731   7.102   1.842   4.855 -0.5109 -0.5066  0.1841
   38MOL    H7812732   7.140   1.814   5.284 -1.6267  1.8644 -1.7658
   38MOL    H7912733   7.061   1.795   5.139 -0.1789  1.4599  1.3110
   38MOL    H8012734   7.354   1.724   5.160  0.8145  1.0663 -0.8836
   38MOL    H8112735   7.486   1.740   4.952  0.0776 -0.9775  2.8062
   38MOL    H8212736   7.405   1.584   4.994 -1.9567  0.6447  1.3259
   38MOL    H8312737   7.464   1.708   4.723  0.7828  1.3012  2.4334
   38MOL    H8412738   7.391   1.542   4.749  0.8072 -0.0496  1.2050
   38MOL    H8512739   7.253   1.762   4.645  1.2980 -1.9450 -1.0050
   38MOL    H8612740   7.189   1.619   4.710 -0.8076  0.1111 -1.0670
   38MOL    C8712741   7.328   1.924   5.132  0.0824  0.8228 -0.1291
   38MOL    C8812742   7.243   2.046   5.079 -0.3456 -0.1737  0.1660
   38MOL    N8912743   7.116   2.078   5.154  0.4704 -0.1575 -0.5343
   38MOL    C9012744   6.993   2.091   5.073  0.4613  0.1830  0.3800
   38MOL    C9112745   6.886   2.094   5.173  0.4169  0.0341  0.5228
   38MOL    C9212746   6.944   2.115   5.311 -0.1596  0.6809  0.5451
   38MOL    C9312747   7.092   2.097   5.283  0.7635 -0.1321  0.4053
   38MOL    O9412748   7.171   2.094   5.380  0.1535  0.1004  0.4852
   38MOL    H9512749   7.430   1.929   5.094 -1.0241  1.0926 -3.2121
   38MOL    H9612750   7.345   1.927   5.240  2.5967  0.6879 -0.4830
   38MOL    H9712751   7.221   2.043   4.972 -2.8130  0.3124  0.6403
   38MOL    H9812752   7.001   2.177   5.007 -2.7883  0.4182  0.2488
   38MOL    H9912753   6.975   2.006   5.008 -1.8715  1.1117 -0.2340
   38MOL   H10012754   6.807   2.167   5.156  0.7191 -0.0303 -1.3039
   38MOL   H10112755   6.835   1.998   5.166  1.9021 -0.6642 -1.3582
   38MOL   H10212756   6.932   2.220   5.338 -1.7622  1.1943 -2.0067
   38MOL   H10312757   6.905   2.051   5.390 -0.6888 -1.5315 -1.4369
   38MOL   C10412758   7.335   2.171   5.108  0.0674  0.3725 -0.2624
   38MOL   C10512759   7.419   2.234   4.992 -0.1357  0.2130 -0.8323
   38MOL   N10612760   7.325   2.261   4.883  0.0927  0.5015 -0.3781
   38MOL   C10712761   7.357   2.214   4.746 -0.3038 -0.0208  0.1231
   38MOL   C10812762   7.254   2.278   4.652  0.2540 -0.0773 -0.1114
   38MOL   C10912763   7.153   2.356   4.746 -0.3688  0.1069  0.1417
   38MOL   C11012764   7.213   2.346   4.882 -0.2371 -0.0789  0.4844
   38MOL   O11112765   7.164   2.403   4.977  0.0842 -0.1646 -0.0505
   38MOL   H11212766   7.406   2.135   5.182 -1.4716  1.6742  1.8948
   38MOL   H11312767   7.270   2.249   5.146 -1.3847 -0.0778 -1.7343
   38MOL   H11412768   7.495   2.166   4.955 -1.1432 -2.4848  1.8936
   38MOL   H11512769   7.453   2.262   4.726 -0.5928 -0.5620 -2.7620
   38MOL   H11612770   7.361   2.106   4.753  0.3518  0.1276  2.6505
   38MOL   H11712771   7.304   2.355   4.593 -1.9232  0.0932 -1.8138
   38MOL   H11812772   7.210   2.216   4.574  2.7015 -2.5379  0.4192
   38MOL   H11912773   7.059   2.302   4.742 -2.0082  2.7857  0.8545
   38MOL   H12012774   7.127   2.453   4.704  2.2181  0.1790 -1.4357
   38MOL   C12112775   7.501   2.356   5.030  0.2911  0.4059  0.4258
   38MOL   C12212776   7.604   2.337   5.138 -0.6323 -0.0135 -0.3599
   38MOL   N12312777   7.704   2.233   5.112 -0.4697 -0.3252  0.1514
   38MOL   C12412778   7.727   2.127   5.205 -0.1762  0.1714 -1.0255
   38MOL   C12512779   7.848   2.042   5.158 -1.4339  0.7615  0.3177
   38MOL   C12612780   7.873   2.101   5.019  0.3473 -0.2688 -0.3894
   38MOL   C12712781   7.791   2.230   5.010 -0.1853 -0.1285  0.1338
   38MOL   O12812782   7.792   2.309   4.914  0.2083  0.3055  0.4127
   38MOL   H12912783   7.434   2.439   5.054 -0.1389  0.4982 -1.0231
   38MOL   H13012784   7.558   2.405   4.951  1.2434  1.6193  1.8527
   38MOL   H13112785   7.558   2.302   5.230 -1.1254  0.8325 -0.2779
   38MOL   H13212786   7.646   2.057   5.227 -0.1329  0.4285 -0.0298
   38MOL   H13312787   7.761   2.162   5.303 -1.9773 -1.1878  0.1041
   38MOL   H13412788   0.037   2.061   5.209  0.0793  0.3721 -2.2306
   38MOL   H13512789   7.819   1.938   5.171 -1.1036  0.6757  0.3875
   38MOL   H13612790   0.072   2.128   5.009  0.3018  0.7646  1.6399
   38MOL   H13712791   7.854   2.019   4.950  0.3955 -1.0860  0.5594
   38MOL   C13812792   7.669   2.469   5.184  0.1840  0.4295  0.0517
   38MOL   C13912793   7.576   2.558   5.261  0.2860  0.1085  0.5180
   38MOL   N14012794   7.474   2.492   5.350 -0.0461 -0.2969  0.0138
   38MOL   C14112795   7.335   2.506   5.321 -0.0428  0.2205 -0.9726
   38MOL   C14212796   7.259   2.428   5.430  0.7159 -0.1104  0.3384
   38MOL   C14312797   7.363   2.365   5.515 -0.1286  0.0982 -0.7003
   38MOL   C14412798   7.494   2.418   5.466 -0.4086  0.0846  0.9321
   38MOL   O14512799   7.597   2.407   5.530 -0.4443  0.2327  0.0242
   38MOL   H14612800   7.727   2.533   5.117  1.6467 -0.1476  0.7609
   38MOL   H14712801   7.743   2.427   5.252  0.9420 -1.5514 -1.9171
   38MOL   H14812802   7.517   2.611   5.186 -2.4527 -1.6415  1.3225
   38MOL   H14912803   7.299   2.608   5.333  0.5244  0.2636  0.3298
   38MOL   H15012804   7.302   2.469   5.223  2.4550 -1.4769 -1.2108
   38MOL   H15112805   7.201   2.496   5.492  2.3886  0.9732  0.7517
   38MOL   H15212806   7.177   2.363   5.401  0.7763 -0.0018 -0.0760
   38MOL   H15312807   7.349   2.258   5.501  0.7664 -0.0667 -0.3249
   38MOL   H15412808   7.361   2.377   5.623 -2.8057  0.8653 -0.8022
   38MOL   C15512809   7.667   2.651   5.350  0.9850 -0.3892 -0.0142
   38MOL   C15612810   7.661   2.806   5.327  1.0922 -0.3482 -0.0109
   38MOL   N15712811   7.519   2.845   5.354  0.6493 -0.2389  0.0809
   38MOL   C15812812   7.428   2.882   5.250  0.4977  0.2781  0.1947
   38MOL   C15912813   7.295   2.924   5.313 -0.0878  0.2359  0.0483
   38MOL   C16012814   7.320   2.906   5.459  0.1707 -0.3059  0.3717
   38MOL   C16112815   7.461   2.855   5.471  0.3054 -0.0935  0.3063
   38MOL   O16212816   7.519   2.833   5.576  0.1543 -0.2513  0.6958
   38MOL   H16312817   7.770   2.624   5.326  1.3553  2.0145 -1.2857
   38MOL   H16412818   7.665   2.626   5.456  0.6043 -0.1102  0.0427
   38MOL   H16512819   7.681   2.805   5.220 -0.7758 -1.5795 -0.3860
   38MOL   H16612820   7.464   2.958   5.181 -0.6377  0.3833 -0.2848
   38MOL   H16712821   7.413   2.798   5.182 -0.9831 -1.0484  2.1098
   38MOL   H16812822   7.281   3.030   5.295  0.8394  0.8273  2.5545
   38MOL   H16912823   7.213   2.857   5.288  1.4905 -1.9681  0.5442
   38MOL   H17012824   7.306   2.998   5.515  0.3636 -1.1388  1.8054
   38MOL   H17112825   7.261   2.828   5.506 -0.0321  0.1456  0.8685
   38MOL   C17212826   7.773   2.883   5.406  0.3648  0.7490 -0.3949
   38MOL   C17312827   7.768   3.038   5.391 -0.4707  0.1398  0.1189
   38MOL   N17412828   7.808   3.115   5.506  0.2992 -0.0186 -0.4532
   38MOL   C17512829   7.712   3.165   5.602  0.2135 -0.3216  0.0496
   38MOL   C17612830   7.785   3.241   5.714 -0.2817  0.2632 -0.1643
   38MOL   C17712831   0.019   3.181   5.698 -0.0163 -0.1593  1.3130
   38MOL   C17812832   0.028   3.117   5.559  0.9797 -0.2195  0.0249
   38MOL   O17912833   0.132   3.073   5.510  0.2125 -0.1735  0.5051
   38MOL   H18012834   7.872   2.851   5.375 -0.4866  0.1106 -2.6000
   38MOL   H18112835   7.763   2.869   5.513  0.0566 -0.7089 -0.6092
   38MOL   H18212836   7.664   3.057   5.368 -0.0920  1.9572 -0.1907
   38MOL   H18312837   7.637   3.228   5.554  1.8720  1.3523 -0.3972
   38MOL   H18412838   7.656   3.084   5.650 -1.9437  2.1443  1.8564
   38MOL   H18512839   7.748   3.220   5.815  0.2023 -3.1602 -0.6195
   38MOL   H18612840   7.790   3.346   5.687  1.0516  0.1396 -0.4446
   38MOL   H18712841   0.095   3.259   5.689 -1.2820  1.1011  1.1910
   38MOL   H18812842   0.053   3.106   5.768 -1.0239 -0.6370  1.2953
   38MOL   C18912843   7.842   3.087   5.268 -0.2402  0.6571 -0.3724
   38MOL   C19012844   7.752   3.127   5.155  0.9336  0.4030 -0.3364
   38MOL   N19112845   7.671   3.243   5.198  0.3738  0.3538  0.0219
   38MOL   C19212846   7.526   3.238   5.191 -0.3468  0.3752 -0.3247
   38MOL   C19312847   7.476   3.381   5.218 -0.0824  0.0574 -0.0768
   38MOL   C19412848   7.594   3.453   5.265  0.0821  0.0702  0.3797
   38MOL   C19512849   7.715   3.366   5.237 -0.1355 -0.4598 -0.1872
   38MOL   O19612850   7.832   3.408   5.237 -0.2762  0.5461  0.0275
   38MOL   H19712851   0.015   3.017   5.241  0.5902  1.5808 -0.4032
   38MOL   H19812852   0.001   3.174   5.284  0.0880  0.2526  0.5272
   38MOL   H19912853   7.681   3.052   5.120  1.3962  0.6381 -1.8235
   38MOL   H20012854   7.491   3.201   5.094 -0.1712 -1.1241  0.1791
   38MOL   H20112855   7.489   3.167   5.264  2.1493 -1.8990 -1.1895
   38MOL   H20212856   7.447   3.437   5.129 -1.1164 -1.0715 -0.4661
   38MOL   H20312857   7.395   3.389   5.290  0.5088 -0.4736  0.6531
   38MOL   H20412858   7.610   3.553   5.224 -0.2232  0.8359  2.0701
   38MOL   H20512859   7.588   3.470   5.372  1.9673  0.9002  0.3899
   38MOL   C20612860   7.841   3.146   5.029  0.5737 -0.6255 -0.1723
   38MOL   C20712861   7.769   3.131   4.889 -0.2427  0.8043 -0.2548
   38MOL   N20812862   7.836   3.214   4.785  0.0888 -0.3734  0.1255
   38MOL   C20912863   7.744   3.286   4.693  0.2733 -0.6156 -0.2356
   38MOL   C21012864   7.842   3.346   4.590  0.1494 -0.0996  0.2497
   38MOL   C21112865   0.077   3.296   4.614 -0.3233 -0.1006 -0.2004
   38MOL   C21212866   0.052   3.212   4.735 -0.1038 -0.3565  0.5031
   38MOL   O21312867   0.146   3.160   4.791  0.3023 -0.0465  0.0904
   38MOL   H21412868   0.022   3.081   5.022  1.6530  0.8047 -0.2757
   38MOL   H21512869   7.884   3.246   5.038 -2.3629  0.5081  1.9856
   38MOL   H21612870   7.678   3.190   4.901  1.1112  3.2896 -1.6040
   38MOL   H21712871   7.672   3.217   4.648  0.4789  0.5823 -2.5117
   38MOL   H21812872   7.694   3.357   4.759  1.2939  0.7836 -0.9344
   38MOL   H21912873   7.819   3.303   4.493  0.9799  1.8568 -0.8388
   38MOL   H22012874   7.831   3.454   4.580  0.6110 -0.2099 -1.5597
   38MOL   H22112875   0.131   3.236   4.541  1.4368  1.7955 -0.4995
   38MOL   H22212876   0.145   3.376   4.644  1.7554 -1.7529 -0.4111
   38MOL   C22312877   7.753   2.980   4.848  0.3796  0.3529  0.4525
   38MOL   C22412878   7.626   2.935   4.773 -0.1948 -0.2096  0.5557
   38MOL   N22512879   7.634   2.795   4.716  0.6786  0.1447  0.0488
   38MOL   C22612880   7.616   2.766   4.578  0.4119 -0.0959  0.5597
   38MOL   C22712881   7.590   2.617   4.552  0.4747 -0.7764 -0.1923
   38MOL   C22812882   7.619   2.554   4.692 -0.4535 -0.2262 -0.0820
   38MOL   C22912883   7.625   2.678   4.784  0.4222 -0.4545 -0.0013
   38MOL   O23012884   7.613   2.673   4.909 -0.4147  0.0998 -0.2694
   38MOL   H23112885   7.745   2.918   4.938 -2.7051 -1.8644 -1.2562
   38MOL   H23212886   7.846   2.944   4.804 -0.7543 -1.9808 -0.1379
   38MOL   H23312887   7.615   3.001   4.687  0.3404  0.9942  1.3969
   38MOL   H23412888   7.521   2.812   4.551  0.4125 -1.8976 -2.6852
   38MOL   H23512889   7.691   2.814   4.516  0.1650  3.1888  2.6803
   38MOL   H23612890   7.487   2.603   4.520  0.3651  2.2344 -1.3410
   38MOL   H23712891   7.667   2.589   4.480  2.6690 -0.6319  2.0142
   38MOL   H23812892   7.536   2.486   4.711 -0.8180 -0.2978 -1.8402
   38MOL   H23912893   7.714   2.501   4.685  1.6306  3.2455  0.6316
   38MOL   C24012894   7.498   2.968   4.856 -0.5038 -0.1475 -0.7904
   38MOL   C24112895   7.361   2.929   4.787 -0.7189  0.3721  0.8666
   38MOL   N24212896   7.253   2.927   4.882  0.1682 -0.5406 -0.1606
   38MOL   C24312897   7.181   2.809   4.900  0.1232  0.3511  0.3306
   38MOL   C24412898   7.062   2.841   4.984  0.5666 -0.0135 -0.3245
   38MOL   C24512899   7.079   2.985   5.020 -0.4145  0.4238  0.1527
   38MOL   C24612900   7.203   3.028   4.957  0.4437 -0.4922 -0.1124
   38MOL   O24712901   7.251   3.140   4.976 -0.1272 -0.4715 -0.8319
   38MOL   H24812902   7.492   3.076   4.863 -3.8011 -0.2148 -1.4337
   38MOL   H24912903   7.511   2.914   4.950 -0.6422  0.6288 -0.3241
   38MOL   H25012904   7.373   2.828   4.748  0.6547  0.6406  0.5773
   38MOL   H25112905   7.153   2.763   4.806  2.8549 -0.3762 -0.1447
   38MOL   H25212906   7.239   2.734   4.953  1.2498  0.5878 -0.5549
   38MOL   H25312907   6.970   2.822   4.928  1.5528 -0.5607 -1.7934
   38MOL   H25412908   7.061   2.767   5.064 -1.9399  0.5177  0.1672
   38MOL   H25512909   6.992   3.042   4.986 -1.8005 -0.7233  1.6678
   38MOL   H25612910   7.095   2.990   5.128 -0.6138 -0.7650  0.2518
   38MOL   C25712911   7.332   3.029   4.670 -0.3407 -0.1890 -0.2185
   38MOL   C25812912   7.199   2.998   4.596  0.2768  0.4567 -0.0859
   38MOL   N25912913   7.170   3.115   4.516 -0.1204  0.4967 -0.7955
   38MOL   C26012914   7.072   3.203   4.563 -0.1627 -0.3237 -0.2996
   38MOL   C26112915   7.026   3.289   4.446 -0.2968  0.1315 -0.2628
   38MOL   C26212916   7.149   3.285   4.352 -0.1199  0.6172 -0.2642
   38MOL   C26312917   7.221   3.163   4.403  0.3934 -0.6537 -0.5607
   38MOL   O26412918   7.308   3.111   4.344  0.2964  0.8511  0.0071
   38MOL   H26512919   7.416   3.016   4.601 -0.0479  1.0173 -0.1018
   38MOL   H26612920   7.339   3.134   4.697 -3.4117 -0.2368  0.8981
   38MOL   H26712921   7.119   2.986   4.669  0.6552 -0.0420  0.2428
   38MOL   H26812922   6.987   3.159   4.615 -0.3734  0.9495  0.4358
   38MOL   H26912923   7.120   3.261   4.641 -1.7648  1.7441 -0.8264
   38MOL   H27012924   6.954   3.234   4.385  0.0938 -2.7947  1.7812
   38MOL   H27112925   6.984   3.388   4.462 -0.4368 -0.6796  5.1636
   38MOL   H27212926   7.137   3.274   4.244  0.2254 -1.7951 -0.0928
   38MOL   H27312927   7.224   3.360   4.378  2.4048 -0.5550 -3.6498
   38MOL   C27412928   7.217   2.868   4.511  0.0232  0.5361 -0.1719
   38MOL   C27512929   7.099   2.821   4.427 -0.0645  0.1619 -0.5591
   38MOL   N27612930   7.133   2.760   4.299 -0.4476 -0.2873 -0.8036
   38MOL   C27712931   7.107   2.837   4.180 -0.2538  0.2563  0.3827
   38MOL   C27812932   7.186   2.765   4.066  0.5983  0.3516  0.1216
   38MOL   C27912933   7.207   2.627   4.116 -0.3651  0.2702 -0.1007
   38MOL   C28012934   7.189   2.640   4.268 -0.5016  0.2598 -0.1157
   38MOL   O28112935   7.221   2.548   4.344  0.1346  0.3456  0.1817
   38MOL   H28212936   7.257   2.786   4.570 -1.1215 -0.2515 -0.4645
   38MOL   H28312937   7.302   2.884   4.444 -0.4527  0.5529 -0.7819
   38MOL   H28412938   7.043   2.909   4.395  0.8869  0.6638 -0.8652
   38MOL   H28512939   7.002   2.820   4.155  0.0573 -1.0783 -0.0673
   38MOL   H28612940   7.123   2.944   4.190 -0.3413  0.1427  1.8323
   38MOL   H28712941   7.133   2.759   3.971 -0.4609 -0.2093  0.7434
   38MOL   H28812942   7.280   2.819   4.056  0.1387  1.5021  1.7587
   38MOL   H28912943   7.121   2.571   4.078 -0.2403  1.6336 -2.4279
   38MOL   H29012944   7.305   2.596   4.081 -0.3925 -0.0970  0.1422
   38MOL   C29112945   7.015   2.728   4.517 -0.1665 -0.5170  0.1346
   38MOL   C29212946   6.864   2.727   4.470  0.1865 -0.7194 -0.5933
   38MOL   N29312947   6.799   2.600   4.526 -0.3586 -0.2934  0.2012
   38MOL   C29412948   6.699   2.530   4.443 -0.0210 -0.4543 -0.1149
   38MOL   C29512949   6.619   2.443   4.542 -0.3750  0.1942 -0.7167
   38MOL   C29612950   6.708   2.427   4.664 -0.0735 -0.2679  0.1444
   38MOL   C29712951   6.815   2.534   4.641 -0.5257  0.2878 -0.2724
   38MOL   O29812952   6.892   2.567   4.729 -0.3985 -0.4192 -0.4338
   38MOL   H29912953   7.017   2.757   4.623  1.8284 -0.8966  0.2054
   38MOL   H30012954   7.049   2.625   4.523 -0.0239 -0.4714  0.1133
   38MOL   H30112955   6.861   2.720   4.361 -2.4845 -1.0210 -0.5336
   38MOL   H30212956   6.643   2.603   4.386  1.2938  0.3623 -0.3764
   38MOL   H30312957   6.764   2.467   4.383  0.5526  1.1508 -1.2171
   38MOL   H30412958   6.523   2.483   4.576 -0.0771  0.2884 -0.0040
   38MOL   H30512959   6.608   2.342   4.500  0.6175 -0.6227  0.9610
   38MOL   H30612960   6.649   2.444   4.755  0.3677  1.3202  0.1473
   38MOL   H30712961   6.750   2.328   4.684  0.4656 -0.5479 -2.2135
   38MOL   C30812962   6.782   2.859   4.498  0.3886  0.1689  0.1940
   38MOL   C30912963   6.711   2.868   4.633 -0.2398  0.4036 -0.8579
   38MOL   N31012964   6.720   3.004   4.684  0.0928 -0.3496  0.7278
   38MOL   C31112965   6.794   3.026   4.804  0.3607  0.1497  0.2054
   38MOL   C31212966   6.783   3.176   4.836 -0.0453 -0.2615 -1.0100
   38MOL   C31312967   6.668   3.231   4.747  0.2088 -0.0468 -0.2242
   38MOL   C31412968   6.657   3.117   4.645  0.7088  0.2852 -0.4846
   38MOL   O31512969   6.585   3.135   4.542  0.3517  0.2089  0.1418
   38MOL   H31612970   6.708   2.860   4.418  1.1913  0.9818 -0.5386
   38MOL   H31712971   6.841   2.948   4.476 -0.1031  0.8839  1.7428
   38MOL   H31812972   6.758   2.806   4.711 -2.2397 -1.5602 -1.1555
   38MOL   H31912973   6.754   2.966   4.885 -0.1998  0.5033  0.1974
   38MOL   H32012974   6.897   3.004   4.779  1.0770  1.2268  2.0743
   38MOL   H32112975   6.779   3.194   4.943  1.1619 -2.3627 -0.5700
   38MOL   H32212976   6.876   3.227   4.809  0.9946  0.3212  3.2608
   38MOL   H32312977   6.576   3.240   4.805 -0.0262  2.2856 -0.9130
   38MOL   H32412978   6.700   3.330   4.713  0.7777 -0.0624  0.2739
   38MOL   C32512979   6.564   2.825   4.625  0.0667  0.2666  0.0023
   38MOL   C32612980   6.485   2.830   4.757  0.2969 -0.0837  0.3887
   38MOL   N32712981   6.344   2.795   4.737  0.5704  0.4010 -0.1362
   38MOL   C32812982   6.291   2.657   4.757  0.2734 -0.7701  0.1660
   38MOL   C32912983   6.144   2.663   4.718 -0.0287 -0.0083  0.0154
   38MOL   C33012984   6.117   2.807   4.665 -0.5702  0.4269 -0.0782
   38MOL   C33112985   6.248   2.885   4.693 -0.4385  0.2976  0.0142
   38MOL   O33212986   6.265   3.005   4.665  0.0375  0.5667  0.3892
   38MOL   H33312987   6.556   2.728   4.576 -0.0393  0.0567  0.4304
   38MOL   H33412988   6.509   2.878   4.547  1.1091 -2.0636 -2.3657
   38MOL   H33512989   6.482   2.925   4.810  0.1506  0.8483 -1.2593
   38MOL   H33612990   6.336   2.587   4.686 -0.0051  0.1234 -0.8894
   38MOL   H33712991   6.308   2.618   4.858  1.1299 -0.9593 -0.0392
   38MOL   H33812992   6.119   2.595   4.637 -1.6101  1.0312 -0.3978
   38MOL   H33912993   6.070   2.643   4.795 -1.1830 -0.8224 -1.2984
   38MOL   H34012994   6.099   2.815   4.558  0.9699 -1.9620 -0.5516
   38MOL   H34112995   6.038   2.854   4.724 -1.9676 -2.0278  0.0926
   38MOL   H34212996   6.531   2.765   4.831  0.9764  2.3093  2.1209
   39MOL     C112997   7.168   4.256   4.770  0.1245  0.1765 -0.2805
   39MOL     C212998   7.240   4.389   4.806 -0.5189  0.4730 -0.1039
   39MOL     N312999   7.234   4.483   4.698  0.3530  0.9585 -0.1312
   39MOL     C413000   7.336   4.471   4.588 -0.0750 -0.0316 -0.0420
   39MOL     C513001   7.322   4.597   4.510 -0.1554 -0.0255  0.3039
   39MOL     C613002   7.198   4.677   4.566 -0.6698  0.1650  0.3093
   39MOL     C713003   7.154   4.592   4.677 -0.2562 -0.3227 -0.8094
   39MOL     O813004   7.063   4.629   4.752  0.0951 -0.2366 -1.0789
   39MOL     H913005   7.060   4.269   4.759 -0.6441 -2.3461  3.1444
   39MOL    H1013006   7.199   4.208   4.677  0.8214 -0.4163  0.2422
   39MOL    H1113007   7.347   4.367   4.811 -0.5198 -1.1244 -4.8863
   39MOL    H1213008   7.434   4.473   4.635 -0.1647 -1.4490  0.2055
   39MOL    H1313009   7.332   4.383   4.524  0.9261  0.2432 -0.4971
   39MOL    H1413010   7.413   4.654   4.525  1.1779 -1.8938 -0.4682
   39MOL    H1513011   7.309   4.579   4.403 -0.1438 -0.9723  0.4573
   39MOL    H1613012   7.235   4.772   4.603  0.6511  1.2466 -3.5075
   39MOL    H1713013   7.117   4.680   4.493 -1.3717  1.3131  1.1262
   39MOL    H1813014   7.179   4.182   4.851  0.5513  1.1014  0.5132
   39MOL    C1913015   7.191   4.457   4.941 -0.2114 -0.2834  0.5464
   39MOL    C2013016   7.217   4.373   5.066 -0.2259  0.2586  0.2429
   39MOL    N2113017   7.363   4.372   5.094  0.3407  0.2640 -0.6918
   39MOL    C2213018   7.434   4.244   5.078  0.1342 -0.1729 -0.1752
   39MOL    C2313019   7.560   4.259   5.167  0.3441  0.1450  0.1862
   39MOL    C2413020   7.577   4.412   5.193 -0.0373 -0.4966 -0.0091
   39MOL    C2513021   7.441   4.466   5.155 -0.3426  0.2388  0.0732
   39MOL    O2613022   7.408   4.582   5.172 -0.1523  0.1923  0.2616
   39MOL    H2713023   7.089   4.495   4.939 -0.4049 -0.4580  4.0565
   39MOL    H2813024   7.241   4.551   4.965  0.4972 -0.6863  0.6595
   39MOL    H2913025   7.174   4.274   5.050  2.2926 -0.6277 -1.2522
   39MOL    H3013026   7.368   4.158   5.090 -0.4182  0.3566  0.6587
   39MOL    H3113027   7.465   4.249   4.974  2.1433  3.3587  0.4922
   39MOL    H3213028   7.546   4.207   5.261  0.1369 -0.5242 -0.2125
   39MOL    H3313029   7.636   4.218   5.100  3.2424  1.0079  2.8423
   39MOL    H3413030   7.591   4.424   5.300  0.7517  3.4523 -0.5037
   39MOL    H3513031   7.661   4.459   5.143 -2.0483  3.7744  0.3976
   39MOL    C3613032   7.149   4.429   5.193 -0.1981  0.6798  0.1608
   39MOL    C3713033   6.995   4.424   5.195 -0.6320 -0.8380  0.4302
   39MOL    N3813034   6.942   4.288   5.173 -0.9880 -0.2128 -0.1431
   39MOL    C3913035   6.869   4.253   5.051 -0.0884 -0.2399  0.0160
   39MOL    C4013036   6.852   4.101   5.054  0.3024  0.4193  0.1897
   39MOL    C4113037   6.929   4.055   5.175 -0.1619 -0.7743 -0.5557
   39MOL    C4213038   6.976   4.181   5.244 -1.1759  0.0866 -0.4987
   39MOL    O4313039   7.043   4.183   5.345 -0.7374  0.2131 -0.3219
   39MOL    H4413040   7.184   4.532   5.205  0.5686  0.2721  1.4746
   39MOL    H4513041   7.187   4.370   5.276  1.3733  1.7852  0.2410
   39MOL    H4613042   6.956   4.483   5.112 -1.3769 -1.0739  0.6098
   39MOL    H4713043   6.780   4.313   5.033 -0.4964 -0.6107  0.7826
   39MOL    H4813044   6.939   4.297   4.980 -0.5171  1.7402  0.7845
   39MOL    H4913045   6.746   4.078   5.064  0.1927  1.1278  0.6844
   39MOL    H5013046   6.883   4.049   4.963 -0.9831 -0.9536  0.5116
   39MOL    H5113047   6.863   3.995   5.238  1.2674 -0.9205  0.8523
   39MOL    H5213048   7.009   3.986   5.147  2.3168  2.7858 -2.7200
   39MOL    C5313049   6.934   4.492   5.321  0.3132 -0.1912 -0.2131
   39MOL    C5413050   6.978   4.639   5.357  0.2388  0.0660  0.2450
   39MOL    N5513051   6.926   4.731   5.259 -0.2014  0.3800  0.7273
   39MOL    C5613052   7.020   4.785   5.163  0.0824 -0.0465  0.0893
   39MOL    C5713053   6.944   4.891   5.080 -0.2068 -0.0754  0.5216
   39MOL    C5813054   6.816   4.917   5.157  0.2394 -0.0907 -0.2942
   39MOL    C5913055   6.808   4.798   5.252  0.2500 -0.3471  0.0271
   39MOL    O6013056   6.709   4.773   5.319 -0.6085 -0.1127  0.4382
   39MOL    H6113057   6.963   4.423   5.400 -1.2889 -1.2774 -0.5618
   39MOL    H6213058   6.828   4.468   5.310  0.4066 -1.0551  0.7043
   39MOL    H6313059   7.086   4.650   5.345  0.4823  0.2701  2.4150
   39MOL    H6413060   7.099   4.841   5.212 -0.0879 -0.2411  0.5972
   39MOL    H6513061   7.063   4.716   5.090  1.0708  1.5614 -0.8681
   39MOL    H6613062   6.998   4.984   5.060 -0.9609 -0.0271 -1.3801
   39MOL    H6713063   6.913   4.855   4.981 -0.4979  0.8333  0.2818
   39MOL    H6813064   6.820   5.011   5.211 -1.3770  1.1931 -2.3212
   39MOL    H6913065   6.726   4.938   5.099 -1.4418 -2.3118  1.4123
   39MOL    C7013066   6.932   4.670   5.505 -0.2996  0.8031  0.8062
   39MOL    C7113067   7.015   4.610   5.622 -0.0842  0.2349 -0.4019
   39MOL    N7213068   7.159   4.603   5.589  0.1220 -0.4579  0.3054
   39MOL    C7313069   7.217   4.472   5.568 -0.0614 -0.1103 -0.2315
   39MOL    C7413070   7.355   4.503   5.513 -0.5315 -0.2169  0.4573
   39MOL    C7513071   7.389   4.648   5.542 -0.0597 -0.4615  0.4711
   39MOL    C7613072   7.251   4.700   5.585 -0.4140 -0.1951  0.2298
   39MOL    O7713073   7.238   4.822   5.603 -0.0906 -0.1021 -0.1725
   39MOL    H7813074   6.827   4.640   5.510 -0.8907  2.6611  0.0878
   39MOL    H7913075   6.934   4.777   5.526  0.6068  0.7452  1.0531
   39MOL    H8013076   6.980   4.508   5.638  0.0083  0.4349  1.2067
   39MOL    H8113077   7.217   4.416   5.662  2.1267  0.9489  0.4421
   39MOL    H8213078   7.170   4.410   5.492 -0.1866  0.0001 -0.2444
   39MOL    H8313079   7.433   4.430   5.535 -0.9513 -0.5355  0.8959
   39MOL    H8413080   7.345   4.499   5.405 -1.0483  0.4973  0.4698
   39MOL    H8513081   7.473   4.652   5.611  0.5639 -0.4475 -0.2859
   39MOL    H8613082   7.427   4.699   5.454  1.7457  0.4858  1.7627
   39MOL    C8713083   7.000   4.685   5.755 -0.2913 -0.1011 -0.9462
   39MOL    C8813084   6.854   4.669   5.816  0.4408 -0.1053  0.7923
   39MOL    N8913085   6.855   4.535   5.886  0.4440 -0.4007  0.0966
   39MOL    C9013086   6.753   4.439   5.844 -0.6457 -0.4149 -0.1745
   39MOL    C9113087   6.770   4.325   5.948 -0.5623  0.3616 -0.1492
   39MOL    C9213088   6.852   4.382   6.061 -0.0458 -0.1880 -0.0210
   39MOL    C9313089   6.911   4.502   6.001 -0.8184 -0.0889 -0.3092
   39MOL    O9413090   7.000   4.561   6.062 -0.0304 -0.1629 -0.0592
   39MOL    H9513091   7.013   4.793   5.746 -1.2927  0.7840  5.6106
   39MOL    H9613092   7.072   4.643   5.825 -1.7415  0.5809  0.9982
   39MOL    H9713093   6.769   4.663   5.749  0.2131  0.0355  1.0696
   39MOL    H9813094   6.660   4.497   5.848 -1.8418 -2.3832  1.2518
   39MOL    H9913095   6.778   4.415   5.741  0.5817  1.3148 -0.2964
   39MOL   H10013096   6.676   4.291   5.990  0.4058  0.7973  2.4206
   39MOL   H10113097   6.824   4.239   5.909 -1.2979 -0.4865  0.6814
   39MOL   H10213098   6.791   4.398   6.150  0.4810  0.5612  0.2067
   39MOL   H10313099   6.939   4.317   6.073  1.4749  1.3331 -2.5212
   39MOL   C10413100   6.810   4.787   5.904  0.0998 -0.5378 -0.2106
   39MOL   C10513101   6.799   4.932   5.842 -0.4813 -0.5063  0.2722
   39MOL   N10613102   6.722   4.946   5.719 -0.2815  0.3451  0.4665
   39MOL   C10713103   6.786   5.020   5.619 -0.6736 -0.4536  0.2945
   39MOL   C10813104   6.681   5.049   5.507 -0.6354 -0.3150  0.1132
   39MOL   C10913105   6.558   4.994   5.564  0.2134 -0.3026 -0.2756
   39MOL   C11013106   6.594   4.924   5.692  0.1724  0.0835 -0.3764
   39MOL   O11113107   6.516   4.854   5.751  0.2880  0.2128  0.5157
   39MOL   H11213108   6.869   4.778   5.996  0.4475 -2.5410 -0.6029
   39MOL   H11313109   6.714   4.759   5.946 -0.0632 -1.7203 -1.3507
   39MOL   H11413110   6.896   4.978   5.821 -0.5241 -1.3579 -1.9789
   39MOL   H11513111   6.835   5.112   5.651 -1.9995  0.1426  0.6193
   39MOL   H11613112   6.869   4.963   5.578  0.3909  2.1047 -1.2482
   39MOL   H11713113   6.676   5.156   5.488  0.1073  0.4796  3.9242
   39MOL   H11813114   6.709   5.008   5.410 -1.2749  2.9357 -1.5206
   39MOL   H11913115   6.510   4.921   5.499 -0.2312  1.0361 -1.4869
   39MOL   H12013116   6.495   5.082   5.578  2.7304  1.6714 -0.9450
   39MOL   C12113117   6.738   5.029   5.947  0.3094 -0.5078  0.1420
   39MOL   C12213118   6.825   5.080   6.061  0.3798  0.5370 -0.8886
   39MOL   N12313119   6.945   5.142   6.012 -0.4617  0.6446  0.4237
   39MOL   C12413120   7.073   5.074   6.030 -0.1475 -0.3381  0.1796
   39MOL   C12513121   7.175   5.159   5.953 -0.5489  0.7427 -0.2652
   39MOL   C12613122   7.100   5.295   5.935 -0.8515  0.2144  0.5959
   39MOL   C12713123   6.955   5.259   5.948 -0.2509 -0.2456 -0.5589
   39MOL   O12813124   6.864   5.340   5.927 -0.3111  0.4672 -0.4031
   39MOL   H12913125   6.656   4.970   5.989 -0.8343  0.0255 -1.3106
   39MOL   H13013126   6.704   5.118   5.894 -0.1705  0.7208  2.4596
   39MOL   H13113127   6.858   4.993   6.119 -0.2666 -0.5953 -2.1940
   39MOL   H13213128   7.064   4.968   6.004 -1.6661 -0.6812  1.9736
   39MOL   H13313129   7.092   5.069   6.137 -1.2472  0.8380  0.4495
   39MOL   H13413130   7.264   5.158   6.016 -0.8969  0.7660  0.2358
   39MOL   H13513131   7.206   5.125   5.854 -2.9815 -1.5234 -0.3090
   39MOL   H13613132   7.123   5.383   5.995  1.2415  0.1754 -0.1105
   39MOL   H13713133   7.127   5.325   5.833  0.2835  0.3760  0.9352
   39MOL   C13813134   6.737   5.178   6.142  0.2362  0.6929 -0.1549
   39MOL   C13913135   6.647   5.106   6.251 -0.1823  0.8388 -0.0139
   39MOL   N14013136   6.724   5.005   6.324 -0.2620  0.1254  0.1486
   39MOL   C14113137   6.675   4.864   6.318  0.3340 -0.2089  0.3664
   39MOL   C14213138   6.765   4.779   6.403  0.0347 -0.5023  0.5119
   39MOL   C14313139   6.873   4.881   6.458  0.2247 -0.3550  0.2915
   39MOL   C14413140   6.836   5.016   6.398 -0.2500  0.2259  0.9464
   39MOL   O14513141   6.898   5.123   6.422 -0.3217  0.4320 -0.3554
   39MOL   H14613142   6.684   5.251   6.081 -1.7296  0.4493  1.2064
   39MOL   H14713143   6.804   5.246   6.194  1.8193 -0.3767 -0.7409
   39MOL   H14813144   6.563   5.059   6.200  1.1158 -2.8016  0.9889
   39MOL   H14913145   6.572   4.863   6.353  0.1163  1.9738 -0.1519
   39MOL   H15013146   6.682   4.829   6.215 -0.9107  0.4168  0.0644
   39MOL   H15113147   6.718   4.747   6.496 -1.0968  1.4062  0.6346
   39MOL   H15213148   6.814   4.692   6.360  0.7247 -0.0416  0.3555
   39MOL   H15313149   6.974   4.868   6.420  0.4965  3.2340 -0.3975
   39MOL   H15413150   6.874   4.890   6.566  1.7195  0.1208  0.2520
   39MOL   C15513151   6.576   5.201   6.353  0.0156 -0.5612  0.4619
   39MOL   C15613152   6.428   5.241   6.320  0.5946 -0.1886 -0.3224
   39MOL   N15713153   6.414   5.327   6.203  0.0002  0.3469 -0.6624
   39MOL   C15813154   6.483   5.454   6.202 -0.1050 -0.0931  0.4895
   39MOL   C15913155   6.468   5.504   6.056 -0.1022 -0.2682  0.0272
   39MOL   C16013156   6.369   5.413   5.996 -0.4798  0.1069  0.0525
   39MOL   C16113157   6.359   5.297   6.082  0.4137  0.2501 -0.5906
   39MOL   O16213158   6.316   5.183   6.042  0.2557  0.1129  0.1175
   39MOL   H16313159   6.651   5.272   6.387  1.1491 -1.2544 -0.5710
   39MOL   H16413160   6.564   5.144   6.446  0.7119 -1.4713 -0.0042
   39MOL   H16513161   6.397   5.302   6.405  1.5472 -0.3167  0.1256
   39MOL   H16613162   6.448   5.526   6.276  0.2696  1.3632 -0.7140
   39MOL   H16713163   6.585   5.429   6.231 -0.7959 -1.9242  1.3895
   39MOL   H16813164   6.431   5.606   6.063 -3.6425 -1.5593  2.0537
   39MOL   H16913165   6.555   5.512   5.992 -1.0284 -1.4917 -1.4000
   39MOL   H17013166   6.276   5.470   5.990 -0.5037 -0.1176 -2.1791
   39MOL   H17113167   6.395   5.387   5.893 -0.6650 -0.3214  0.1130
   39MOL   C17213168   6.336   5.112   6.326 -0.3511 -0.3571 -0.3165
   39MOL   C17313169   6.184   5.146   6.336 -0.2399  0.0039 -0.0051
   39MOL   N17413170   6.104   5.026   6.285  0.1575  0.3906 -0.2361
   39MOL   C17513171   6.044   5.039   6.152  0.5770  0.1518  0.7926
   39MOL   C17613172   5.957   4.918   6.136  0.0724 -0.3688  0.3160
   39MOL   C17713173   5.999   4.820   6.249 -0.0028 -0.7117  0.3629
   39MOL   C17813174   6.099   4.902   6.330 -0.3566 -0.4234 -0.1525
   39MOL   O17913175   6.157   4.854   6.427 -0.2444 -0.2751 -0.5829
   39MOL   H18013176   6.354   5.060   6.419 -0.1843  0.8703  0.3505
   39MOL   H18113177   6.351   5.043   6.243 -0.4478 -2.0869  1.0839
   39MOL   H18213178   6.163   5.225   6.263 -1.4563 -1.1863 -0.9749
   39MOL   H18313179   6.010   5.142   6.150  0.2118  0.0123 -1.0567
   39MOL   H18413180   6.118   5.025   6.073 -1.4805 -2.6332 -0.7337
   39MOL   H18513181   5.964   4.866   6.041  1.9961 -0.1585  0.3349
   39MOL   H18613182   5.857   4.955   6.160  0.1531 -0.7549  1.2707
   39MOL   H18713183   5.922   4.781   6.315  0.9572 -0.7029  1.5070
   39MOL   H18813184   6.063   4.739   6.212  0.9104  0.7189 -1.2332
   39MOL   C18913185   6.155   5.197   6.481 -0.0763  0.1818  0.6144
   39MOL   C19013186   6.010   5.226   6.523 -0.0525  0.4429 -0.2943
   39MOL   N19113187   5.996   5.248   6.672 -0.5213  0.6238 -0.5066
   39MOL   C19213188   5.911   5.166   6.755 -0.2382  0.1794 -0.0532
   39MOL   C19313189   5.934   5.220   6.898  0.2114  0.2577  0.4144
   39MOL   C19413190   6.026   5.337   6.897  0.5119 -0.5982  0.6453
   39MOL   C19513191   6.047   5.348   6.748 -0.5634 -0.1083 -0.1376
   39MOL   O19613192   6.111   5.439   6.695  0.3230 -0.0498 -0.1304
   39MOL   H19713193   6.203   5.294   6.493  2.1588 -0.7959 -0.1819
   39MOL   H19813194   6.192   5.117   6.546  0.4755  0.1178  0.2267
   39MOL   H19913195   5.947   5.142   6.492 -0.6958  0.7394  0.1950
   39MOL   H20013196   5.810   5.182   6.715 -1.1016 -1.6876  1.3104
   39MOL   H20113197   5.943   5.062   6.744  2.0217  0.8873 -0.3314
   39MOL   H20213198   5.837   5.255   6.933  0.3657  0.7152  0.3797
   39MOL   H20313199   5.970   5.142   6.966  1.8114  0.0067 -0.6997
   39MOL   H20413200   5.983   5.426   6.941 -1.3582 -1.4698  0.6386
   39MOL   H20513201   6.119   5.309   6.948  0.2089 -0.3583  1.3362
   39MOL   C20613202   5.954   5.346   6.442  1.1994 -0.2556  0.3757
   39MOL   C20713203   5.800   5.349   6.414 -0.1388 -0.5138  0.4023
   39MOL   N20813204   5.758   5.480   6.363 -0.5255 -0.3016  0.7276
   39MOL   C20913205   5.835   5.551   6.259 -0.5399 -0.4549  0.0384
   39MOL   C21013206   5.741   5.653   6.196 -0.2425  0.2895 -0.4103
   39MOL   C21113207   5.638   5.681   6.315  0.0638 -0.1651  0.2765
   39MOL   C21213208   5.655   5.559   6.408  0.0070 -0.3898  0.2900
   39MOL   O21313209   5.595   5.549   6.514  0.0573 -0.8693  0.4681
   39MOL   H21413210   6.004   5.352   6.345  0.2776 -2.9673 -0.2977
   39MOL   H21513211   5.983   5.442   6.484 -2.6959  0.1720  2.2465
   39MOL   H21613212   5.762   5.330   6.514  0.8154 -2.5345  0.4174
   39MOL   H21713213   5.926   5.593   6.301  0.2908 -0.1054 -2.0477
   39MOL   H21813214   5.874   5.477   6.189 -1.9668  0.1594 -1.4306
   39MOL   H21913215   5.799   5.737   6.158 -0.4282 -1.1449 -4.0522
   39MOL   H22013216   5.687   5.598   6.119 -1.0491  0.8633 -0.2652
   39MOL   H22113217   5.668   5.770   6.370  0.0268 -0.1488  0.2707
   39MOL   H22213218   5.536   5.677   6.277 -0.0216 -0.1766  0.5028
   39MOL   C22313219   5.746   5.236   6.319 -0.4833  0.5356 -0.6527
   39MOL   C22413220   5.589   5.211   6.311 -0.1783 -0.2285  0.2533
   39MOL   N22513221   5.565   5.119   6.201 -0.1118  0.1269  0.4748
   39MOL   C22613222   5.525   5.158   6.070  0.4754  0.3353 -0.2848
   39MOL   C22713223   5.545   5.043   5.978 -0.2429 -0.1327  0.8131
   39MOL   C22813224   5.537   4.924   6.080 -0.2237 -0.1786  1.1765
   39MOL   C22913225   5.574   4.991   6.207 -0.0881 -0.3035  0.2207
   39MOL   O23013226   5.632   4.927   6.294  0.2462  0.0002  0.5433
   39MOL   H23113227   5.791   5.143   6.355  1.0065  1.3208 -0.4434
   39MOL   H23213228   5.785   5.252   6.218  0.7781 -0.3777 -0.3175
   39MOL   H23313229   5.549   5.309   6.287  2.8664  0.8587 -0.5968
   39MOL   H23413230   5.419   5.183   6.062  0.8719  2.7368  1.3633
   39MOL   H23513231   5.584   5.243   6.037  1.4491 -0.3846 -0.4102
   39MOL   H23613232   5.462   5.028   5.909 -0.5320  0.1845  1.0864
   39MOL   H23713233   5.636   5.071   5.927 -1.5042  1.3865 -0.6663
   39MOL   H23813234   5.432   4.895   6.085 -0.3013 -0.5623 -2.1306
   39MOL   H23913235   5.601   4.839   6.057 -0.9116  0.1860 -2.3076
   39MOL   C24013236   5.514   5.179   6.444 -0.0135 -0.1540 -0.6711
   39MOL   C24113237   5.358   5.153   6.426 -0.9088  0.9834 -0.3617
   39MOL   N24213238   5.319   5.060   6.535 -0.0212  0.0897  0.5624
   39MOL   C24313239   5.252   4.936   6.489 -0.4761  0.2477 -0.6537
   39MOL   C24413240   5.212   4.859   6.624 -0.6498  0.7092  0.2778
   39MOL   C24513241   5.279   4.950   6.729  0.8015  1.3071 -0.1720
   39MOL   C24613242   5.341   5.067   6.664 -0.0153 -0.3278  0.2583
   39MOL   O24713243   5.384   5.162   6.733 -0.1983 -0.1741 -0.0414
   39MOL   H24813244   5.536   5.250   6.524 -0.4724  0.3397 -0.9814
   39MOL   H24913245   5.551   5.086   6.488 -2.0874 -0.1413  1.1787
   39MOL   H25013246   5.350   5.111   6.326 -0.9582  0.0641  0.0211
   39MOL   H25113247   5.179   4.962   6.413 -0.8332 -0.9589 -0.7330
   39MOL   H25213248   5.319   4.871   6.433 -0.9384 -0.3272 -0.5509
   39MOL   H25313249   5.104   4.870   6.631 -1.1092 -1.2846 -2.7675
   39MOL   H25413250   5.245   4.756   6.636 -0.4572  0.4431 -2.2471
   39MOL   H25513251   5.214   4.981   6.811 -1.1683 -0.8749 -0.8549
   39MOL   H25613252   5.368   4.898   6.765 -0.9224 -0.6548  1.3876
   39MOL   C25713253   5.287   5.286   6.435 -0.1219 -0.1911 -0.5697
   39MOL   C25813254   5.143   5.315   6.369  0.6702  0.8893  0.4170
   39MOL   N25913255   5.090   5.443   6.424  0.4208  0.9458 -0.6165
   39MOL   C26013256   4.954   5.444   6.483 -0.5682  0.8234  0.2423
   39MOL   C26113257   4.922   5.590   6.500  0.2518  0.1685  0.6416
   39MOL   C26213258   5.048   5.664   6.485  0.1431 -0.2575 -0.1891
   39MOL   C26313259   5.135   5.565   6.410  0.0936 -0.7286 -0.1761
   39MOL   O26413260   5.240   5.599   6.352  0.6051  0.0923  0.1355
   39MOL   H26513261   5.348   5.349   6.371 -0.2198  0.3822 -0.1025
   39MOL   H26613262   5.290   5.316   6.540  1.5786 -0.9966 -0.3648
   39MOL   H26713263   5.073   5.240   6.405 -1.2863  3.6688  2.5355
   39MOL   H26813264   4.882   5.393   6.419 -0.4377  1.3195 -0.2913
   39MOL   H26913265   4.956   5.390   6.578 -0.0146 -0.1615 -0.3163
   39MOL   H27013266   4.850   5.615   6.422  0.2688  1.2358  0.9712
   39MOL   H27113267   4.876   5.617   6.595 -0.6244 -0.2293  0.3405
   39MOL   H27213268   5.043   5.756   6.427 -0.1323 -1.6331 -2.3570
   39MOL   H27313269   5.094   5.684   6.582 -1.1584 -1.8380  0.7941
   39MOL   C27413270   5.143   5.325   6.216 -0.6862  0.3212  0.0987
   39MOL   C27513271   5.094   5.194   6.144  0.3247 -0.0659  0.2496
   39MOL   N27613272   4.957   5.160   6.188 -0.0641 -0.5382 -0.3678
   39MOL   C27713273   4.937   5.024   6.210  0.5164 -0.0700 -0.3759
   39MOL   C27813274   4.784   5.002   6.222  0.3958 -0.1114  0.1891
   39MOL   C27913275   4.723   5.147   6.228 -0.4538 -0.2230 -1.0074
   39MOL   C28013276   4.839   5.228   6.185 -0.3961  0.6326  0.4334
   39MOL   O28113277   4.830   5.350   6.156 -0.5327  0.5214 -0.3436
   39MOL   H28213278   5.239   5.360   6.177 -1.1891  1.6324  0.0279
   39MOL   H28313279   5.072   5.400   6.183 -1.8769 -1.1081 -0.6349
   39MOL   H28413280   5.161   5.120   6.188  0.4516  0.4893  1.0128
   39MOL   H28513281   4.988   4.960   6.137 -1.1374  0.2851 -1.8756
   39MOL   H28613282   4.981   4.996   6.306 -0.5643 -1.8457 -0.3752
   39MOL   H28713283   4.749   4.953   6.131  0.2461 -0.9795  0.7147
   39MOL   H28813284   4.762   4.941   6.310  0.3935 -2.4389 -1.3889
   39MOL   H28913285   4.636   5.151   6.163 -0.6818  2.7800 -0.6037
   39MOL   H29013286   4.690   5.165   6.331 -0.6756  1.2553 -1.3289
   39MOL   C29113287   5.101   5.225   5.995 -0.3037  0.3622  0.1894
   39MOL   C29213288   5.061   5.113   5.888  0.5101  0.1350  0.2681
   39MOL   N29313289   5.015   5.171   5.756  0.7593 -1.4912 -0.6827
   39MOL   C29413290   4.870   5.156   5.737  0.0350 -0.1799 -0.4821
   39MOL   C29513291   4.846   5.230   5.602  0.3237 -0.7118  0.0899
   39MOL   C29613292   4.977   5.297   5.562 -0.1001 -0.2255 -0.3595
   39MOL   C29713293   5.076   5.252   5.670 -0.3018 -0.2916 -0.0312
   39MOL   O29813294   5.195   5.283   5.671 -0.5358  0.6330 -0.3490
   39MOL   H29913295   5.197   5.268   5.965 -0.5871  0.7479 -0.1714
   39MOL   H30013296   5.031   5.309   5.993 -0.9098 -0.1453 -0.3229
   39MOL   H30113297   4.977   5.054   5.923  0.8491 -0.9754 -0.7528
   39MOL   H30213298   4.835   5.053   5.728 -1.7890  0.1409  2.3824
   39MOL   H30313299   4.803   5.202   5.809 -1.3135 -2.2710 -0.3598
   39MOL   H30413300   4.806   5.154   5.535  1.0865  0.5231 -1.8430
   39MOL   H30513301   4.764   5.300   5.618 -1.9785 -3.3221  0.1824
   39MOL   H30613302   5.007   5.267   5.461 -1.9737 -0.5624 -0.8262
   39MOL   H30713303   4.976   5.404   5.581  2.4771 -0.6188  2.3896
   39MOL   C30813304   5.178   5.009   5.863  0.0515  0.0207 -0.0339
   39MOL   C30913305   5.114   4.883   5.804  0.8949 -0.1353 -0.5941
   39MOL   N31013306   5.205   4.807   5.716 -0.1417  0.5563  0.1869
   39MOL   C31113307   5.150   4.768   5.586  0.8160  0.0147 -0.2608
   39MOL   C31213308   5.255   4.681   5.520 -0.5569  0.0397  1.0197
   39MOL   C31313309   5.371   4.672   5.620  0.1731 -0.5499  0.1673
   39MOL   C31413310   5.326   4.762   5.738 -0.5738  0.1672  0.4375
   39MOL   O31513311   5.397   4.784   5.837 -0.7288  0.1127 -0.7728
   39MOL   H31613312   5.231   4.985   5.955  0.7797 -2.1090 -0.9754
   39MOL   H31713313   5.240   5.057   5.788 -0.9163 -1.7379 -1.9916
   39MOL   H31813314   5.028   4.913   5.745 -0.6243  1.7297  2.4497
   39MOL   H31913315   5.058   4.710   5.598  1.6663 -1.2173  0.4262
   39MOL   H32013316   5.125   4.852   5.522 -1.1490  0.3104  0.8400
   39MOL   H32113317   5.215   4.581   5.504 -1.4643  0.5352  0.1675
   39MOL   H32213318   5.283   4.724   5.424  1.2069  1.9917  2.3703
   39MOL   H32313319   5.378   4.568   5.654  0.0767  0.3639  3.1071
   39MOL   H32413320   5.456   4.723   5.574  0.5711 -1.1742  0.1912
   39MOL   C32513321   5.049   4.784   5.906 -0.7405  0.0588  0.4603
   39MOL   C32613322   5.140   4.713   6.002  0.1017 -0.1278 -0.6422
   39MOL   N32713323   5.068   4.646   6.111 -0.1039 -0.1748 -0.2244
   39MOL   C32813324   4.959   4.559   6.089 -0.6060 -0.2885  0.3556
   39MOL   C32913325   4.927   4.508   6.227 -0.2386 -0.0094  0.1270
   39MOL   C33013326   5.014   4.579   6.324  0.4388  0.0336  0.0828
   39MOL   C33113327   5.087   4.672   6.239 -0.3362  0.3838 -0.4200
   39MOL   O33213328   5.167   4.753   6.279 -0.5964 -0.3615  0.3952
   39MOL   H33313329   4.996   4.710   5.846 -1.6724  0.9919  0.1051
   39MOL   H33413330   4.969   4.836   5.960 -0.6492  0.8752 -0.1921
   39MOL   H33513331   5.213   4.782   6.041  2.3404 -0.7355 -3.5711
   39MOL   H33613332   4.875   4.610   6.043  0.6939 -0.5283 -2.3672
   39MOL   H33713333   5.006   4.485   6.024 -1.8913 -2.9337  2.3479
   39MOL   H33813334   4.823   4.536   6.244  0.1704  1.0815  0.8823
   39MOL   H33913335   4.934   4.399   6.237 -0.1999  0.1532  2.0074
   39MOL   H34013336   4.957   4.621   6.408  2.4621  0.3396  1.3266
   39MOL   H34113337   5.086   4.517   6.377  1.7651 -1.4305 -3.2863
   39MOL   H34213338   5.200   4.642   5.944  1.8570  0.7378  0.0918
   40MOL     C113339   2.392   0.395   1.571 -0.3406  0.0552 -0.6239
   40MOL     C213340   2.370   0.541   1.531 -0.5624 -0.4788  0.3103
   40MOL     N313341   2.323   0.616   1.645  0.3094  0.5975 -0.1257
   40MOL     C413342   2.206   0.703   1.638  0.3586  0.1189  0.4725
   40MOL     C513343   2.227   0.814   1.737  0.6178  0.7974 -0.3138
   40MOL     C613344   2.313   0.746   1.844  0.8939  0.2419  0.6431
   40MOL     C713345   2.389   0.642   1.761 -0.4992  0.0532  0.1839
   40MOL     O813346   2.498   0.600   1.797 -0.4232  0.4046 -0.2743
   40MOL     H913347   2.301   0.351   1.612 -0.5011  1.0727  0.1514
   40MOL    H1013348   2.432   0.331   1.493  1.1764  1.1066 -0.7182
   40MOL    H1113349   2.298   0.536   1.449 -1.4534  3.1734  0.7585
   40MOL    H1213350   2.194   0.745   1.538  0.5778  0.0225  0.4051
   40MOL    H1313351   2.116   0.646   1.662  0.9247 -0.5143  1.0990
   40MOL    H1413352   2.273   0.899   1.687  0.4348  2.5681  2.4103
   40MOL    H1513353   2.137   0.860   1.779 -0.2447  0.3348 -1.6372
   40MOL    H1613354   2.382   0.819   1.886  1.2973  0.3628 -0.2142
   40MOL    H1713355   2.246   0.694   1.913 -0.6969  0.7887 -0.4692
   40MOL    H1813356   2.475   0.384   1.641 -0.0070  2.6942 -0.5513
   40MOL    C1913357   2.495   0.592   1.465  0.5066  0.3589  0.0706
   40MOL    C2013358   2.488   0.745   1.421 -0.1765  0.7088 -0.1742
   40MOL    N2113359   2.628   0.807   1.426 -0.1990 -0.7488 -0.2475
   40MOL    C2213360   2.664   0.871   1.548  0.2451  0.3316 -1.0145
   40MOL    C2313361   2.796   0.940   1.517 -0.1083 -0.4022  0.7716
   40MOL    C2413362   2.806   0.940   1.359  0.2495 -0.2227  0.4214
   40MOL    C2513363   2.705   0.835   1.327 -0.6585  0.1285  0.8195
   40MOL    O2613364   2.697   0.781   1.213 -0.1052  0.0813  0.1168
   40MOL    H2713365   2.523   0.535   1.376 -2.3397  0.1704 -0.7286
   40MOL    H2813366   2.576   0.579   1.537 -0.2872  0.1848  0.9432
   40MOL    H2913367   2.437   0.809   1.493  1.5833  0.6933  1.1204
   40MOL    H3013368   2.578   0.931   1.578 -0.8461 -2.0046  0.7314
   40MOL    H3113369   2.676   0.791   1.622  1.5672  1.3314 -0.1397
   40MOL    H3213370   2.801   1.042   1.555 -0.7127 -0.0991  0.0397
   40MOL    H3313371   2.876   0.874   1.553  0.5516  1.0419  2.0038
   40MOL    H3413372   2.797   1.038   1.313  1.0342 -0.8517 -1.1390
   40MOL    H3513373   2.908   0.912   1.330 -0.0101 -2.6337  1.6841
   40MOL    C3613374   2.392   0.765   1.298 -0.1469 -0.0680 -0.5910
   40MOL    C3713375   2.361   0.908   1.247 -0.0629 -0.3196 -0.8897
   40MOL    N3813376   2.295   0.911   1.114  0.4300 -0.3736 -0.1120
   40MOL    C3913377   2.369   0.955   0.995  0.2850  0.2986  0.1734
   40MOL    C4013378   2.285   0.925   0.875 -0.6564  0.1883 -0.2842
   40MOL    C4113379   2.141   0.904   0.932 -0.2942 -0.0163  0.8285
   40MOL    C4213380   2.170   0.885   1.078 -0.2615 -0.1940  0.3082
   40MOL    O4313381   2.077   0.853   1.157  0.0658 -0.1924 -0.5942
   40MOL    H4413382   2.294   0.724   1.323 -0.0559 -0.9996 -1.7415
   40MOL    H4513383   2.430   0.706   1.215 -0.6413  2.4335 -2.6652
   40MOL    H4613384   2.460   0.946   1.221  0.4510  0.6199  2.1471
   40MOL    H4713385   2.386   1.062   1.007  0.2487  0.3396 -0.1493
   40MOL    H4813386   2.468   0.908   0.989 -0.3298 -0.9155 -0.7431
   40MOL    H4913387   2.286   0.995   0.791  0.1576 -1.4042 -1.6382
   40MOL    H5013388   2.312   0.829   0.831  2.7889  0.6183  0.7134
   40MOL    H5113389   2.077   0.991   0.916  0.3172  0.4353  0.8242
   40MOL    H5213390   2.095   0.819   0.882  0.9758 -0.1242 -0.1999
   40MOL    C5313391   2.298   1.008   1.344  0.6774 -0.3932 -0.5264
   40MOL    C5413392   2.342   1.155   1.327  0.1338 -0.0123 -0.3716
   40MOL    N5513393   2.238   1.248   1.375 -0.0455 -0.2737  0.4705
   40MOL    C5613394   2.159   1.304   1.267  0.2522 -0.1294  0.6633
   40MOL    C5713395   2.036   1.354   1.333  0.3720  0.2877  0.3422
   40MOL    C5813396   2.062   1.357   1.481  0.1936  0.1302  0.2625
   40MOL    C5913397   2.179   1.261   1.496  0.2258  0.3229 -0.2736
   40MOL    O6013398   2.205   1.208   1.603  0.5597 -0.4616 -0.3890
   40MOL    H6113399   2.331   0.991   1.446  1.8919  0.7301 -0.7136
   40MOL    H6213400   2.189   1.010   1.348  0.7452  1.4272  1.8617
   40MOL    H6313401   2.360   1.172   1.220  0.3978 -2.2582 -0.7118
   40MOL    H6413402   2.218   1.392   1.238 -0.2773  0.2544  0.7443
   40MOL    H6513403   2.147   1.222   1.197 -2.5356  0.0691  0.8737
   40MOL    H6613404   2.016   1.453   1.294  1.2086  0.2840 -0.1066
   40MOL    H6713405   1.949   1.292   1.309  1.0892  0.3506 -2.6289
   40MOL    H6813406   2.094   1.458   1.504 -0.8057  0.6500 -0.5652
   40MOL    H6913407   1.974   1.333   1.541  0.4208 -2.2554 -0.3183
   40MOL    C7013408   2.476   1.204   1.399 -0.0912 -0.8943  0.1713
   40MOL    C7113409   2.500   1.362   1.405 -0.2555  0.1528  0.2214
   40MOL    N7213410   2.603   1.390   1.503 -0.8107  0.0929  0.5275
   40MOL    C7313411   2.568   1.458   1.626  0.4164 -0.3319  0.1761
   40MOL    C7413412   2.692   1.493   1.704 -0.4579 -0.3566  0.9857
   40MOL    C7513413   2.799   1.418   1.622 -0.0808  0.2620 -0.4938
   40MOL    C7613414   2.728   1.351   1.512 -0.3449 -0.7626 -0.3745
   40MOL    O7713415   2.790   1.266   1.442  0.7441 -0.5088  0.0572
   40MOL    H7813416   2.560   1.157   1.348 -0.3361 -0.4697 -0.6166
   40MOL    H7913417   2.480   1.162   1.500  0.4107 -2.2365 -0.3897
   40MOL    H8013418   2.408   1.407   1.442 -0.5686  0.0089 -0.3798
   40MOL    H8113419   2.506   1.546   1.610 -1.8938 -1.6528  1.6869
   40MOL    H8213420   2.499   1.398   1.684 -1.5873  0.0566 -1.7458
   40MOL    H8313421   2.712   1.600   1.698  2.7168 -0.9515  0.4134
   40MOL    H8413422   2.688   1.450   1.804  1.2594 -0.1401  1.1580
   40MOL    H8513423   2.870   1.488   1.578  1.2794  2.3007  4.6207
   40MOL    H8613424   2.858   1.344   1.677  0.2854  2.4451  2.1402
   40MOL    C8713425   2.526   1.409   1.257  0.8256  0.3915 -0.5733
   40MOL    C8813426   2.526   1.563   1.235  0.1587 -0.7431 -0.0705
   40MOL    N8913427   2.658   1.613   1.295  0.2029  0.2207  0.4543
   40MOL    C9013428   2.650   1.713   1.400  0.2131 -0.0279  0.1052
   40MOL    C9113429   2.794   1.766   1.421  0.0583  0.2169 -0.2332
   40MOL    C9213430   2.877   1.689   1.322 -0.4798  0.5749  0.0639
   40MOL    C9313431   2.780   1.594   1.251  0.4010  0.2940  0.3759
   40MOL    O9413432   2.814   1.517   1.159  0.6176  0.3029 -0.2131
   40MOL    H9513433   2.450   1.375   1.187  0.2150  1.0317 -0.2329
   40MOL    H9613434   2.614   1.356   1.220  0.7699  1.4972 -2.3443
   40MOL    H9713435   2.448   1.606   1.298  1.1016  0.5890  0.2115
   40MOL    H9813436   2.594   1.793   1.351  1.4319  0.3465 -0.6872
   40MOL    H9913437   2.589   1.680   1.484 -1.0660  0.4097 -0.6321
   40MOL   H10013438   2.808   1.872   1.402  0.6091  0.0003 -1.0303
   40MOL   H10113439   2.829   1.753   1.523 -1.0123 -1.0935 -0.0128
   40MOL   H10213440   2.930   1.765   1.264  2.9996  0.3872  2.7757
   40MOL   H10313441   2.952   1.620   1.362  0.8810  0.4839 -2.4947
   40MOL   C10413442   2.506   1.585   1.085 -0.9657 -0.0586  0.2373
   40MOL   C10513443   2.482   1.731   1.046  0.0964 -0.1277  0.4633
   40MOL   N10613444   2.567   1.774   0.929 -0.1095  0.3371  0.1774
   40MOL   C10713445   2.667   1.874   0.949 -0.9617 -0.1523  0.4620
   40MOL   C10813446   2.726   1.907   0.808 -0.6097  0.0146 -0.1269
   40MOL   C10913447   2.659   1.805   0.714  0.0878  0.6742 -1.0678
   40MOL   C11013448   2.559   1.732   0.802 -0.3097 -0.0730  0.1456
   40MOL   O11113449   2.481   1.652   0.752  0.8112  0.3922 -0.1928
   40MOL   H11213450   2.418   1.533   1.048  0.0211  0.9421 -3.7500
   40MOL   H11313451   2.581   1.535   1.023  0.2562 -0.0467  1.6695
   40MOL   H11413452   2.503   1.791   1.135  1.9002  0.4710 -0.3540
   40MOL   H11513453   2.630   1.965   0.997  0.6703  0.2342  1.0284
   40MOL   H11613454   2.742   1.833   1.017  0.2317  2.0056  0.4990
   40MOL   H11713455   2.709   2.008   0.770  0.1808  0.3247  0.3291
   40MOL   H11813456   2.833   1.885   0.799 -0.4459  0.4738  0.6282
   40MOL   H11913457   2.719   1.724   0.671 -0.5471  1.2665 -3.1105
   40MOL   H12013458   2.595   1.849   0.638 -2.9410  2.6389  2.4518
   40MOL   C12113459   2.332   1.753   1.007 -0.3367 -0.8148 -1.1242
   40MOL   C12213460   2.282   1.894   0.961 -0.4080 -0.3310 -0.8727
   40MOL   N12313461   2.159   1.893   0.879  0.1407  0.0272 -0.0493
   40MOL   C12413462   2.164   1.939   0.741  0.0189 -0.9812  0.1453
   40MOL   C12513463   2.038   1.901   0.672 -0.3673  0.2996  0.6406
   40MOL   C12613464   1.946   1.842   0.781 -0.5966 -0.0786 -0.7303
   40MOL   C12713465   2.039   1.839   0.899 -0.2545 -0.1573 -0.2338
   40MOL   O12813466   1.996   1.804   1.013 -0.1920 -0.0045 -0.1815
   40MOL   H12913467   2.278   1.720   1.096  1.3756 -0.3310  0.1303
   40MOL   H13013468   2.299   1.700   0.918 -0.3392 -0.0322 -1.5952
   40MOL   H13113469   2.363   1.916   0.891 -0.7173 -0.8193 -1.3938
   40MOL   H13213470   2.249   1.907   0.682  0.4989 -0.3066  0.4669
   40MOL   H13313471   2.166   2.048   0.752 -1.0343 -1.0299  0.8926
   40MOL   H13413472   1.993   1.990   0.628  1.6055  1.4458  0.8974
   40MOL   H13513473   2.064   1.830   0.594 -1.7673  0.1815  0.2690
   40MOL   H13613474   1.858   1.904   0.790  0.6619  1.3725  2.0746
   40MOL   H13713475   1.906   1.742   0.765  1.4365 -1.2348  1.1653
   40MOL   C13813476   2.263   1.991   1.088  0.5804  0.0313  0.0305
   40MOL   C13913477   2.244   2.145   1.059  0.7452 -0.4937 -0.1419
   40MOL   N14013478   2.182   2.217   1.169  0.7948  0.2387 -0.0795
   40MOL   C14113479   2.045   2.267   1.157  0.2794 -0.1124  0.0788
   40MOL   C14213480   1.990   2.293   1.301 -0.1789  0.4636 -0.6727
   40MOL   C14313481   2.124   2.297   1.381  1.3184  0.7607  0.0933
   40MOL   C14413482   2.225   2.226   1.292 -0.8486  0.3093 -0.5292
   40MOL   O14513483   2.327   2.183   1.340  0.8568 -0.1827  0.2821
   40MOL   H14613484   2.336   1.990   1.169 -0.6453  1.2654  1.1787
   40MOL   H14713485   2.180   1.956   1.150  0.4542 -0.9801 -0.7017
   40MOL   H14813486   2.179   2.164   0.973  0.7379  1.4964  0.2886
   40MOL   H14913487   2.039   2.362   1.103  1.9727 -1.4549 -2.6428
   40MOL   H15013488   1.989   2.183   1.115  1.7492  0.1046 -2.4530
   40MOL   H15113489   1.925   2.380   1.313 -3.2023 -1.9091  1.0270
   40MOL   H15213490   1.939   2.202   1.332 -0.9878  1.4790  1.1123
   40MOL   H15313491   2.105   2.242   1.473  2.6508 -2.0232 -1.2287
   40MOL   H15413492   2.133   2.403   1.403  1.1819  0.5198  1.3477
   40MOL   C15513493   2.374   2.211   1.018  0.3220  0.1895  0.9064
   40MOL   C15613494   2.366   2.362   0.993  0.7630 -0.1128 -0.2102
   40MOL   N15713495   2.491   2.423   1.041 -0.1709 -0.0743  0.2486
   40MOL   C15813496   2.476   2.508   1.156  0.0447 -0.0890  0.3636
   40MOL   C15913497   2.624   2.548   1.189  0.1093  0.0087 -1.2833
   40MOL   C16013498   2.717   2.469   1.097 -0.2466  0.3393  0.1160
   40MOL   C16113499   2.622   2.395   1.006  0.2532 -0.5378  0.2782
   40MOL   O16213500   2.669   2.324   0.919 -0.2717  0.2757 -0.3084
   40MOL   H16313501   2.416   2.158   0.932 -0.7493  2.1747 -0.8935
   40MOL   H16413502   2.451   2.195   1.093  0.6871 -2.2507  0.0592
   40MOL   H16513503   2.289   2.413   1.051 -1.6282 -2.1784 -1.4571
   40MOL   H16613504   2.427   2.604   1.140  1.6197  0.8150  0.8445
   40MOL   H16713505   2.433   2.459   1.244  0.6418  0.0611  0.7380
   40MOL   H16813506   2.636   2.654   1.168  0.8814 -0.3132 -2.5118
   40MOL   H16913507   2.652   2.528   1.292 -3.5265  1.6064  0.1072
   40MOL   H17013508   2.783   2.531   1.036 -0.3383  0.7203  0.4026
   40MOL   H17113509   2.780   2.386   1.128 -2.7875 -1.6087  0.1990
   40MOL   C17213510   2.356   2.412   0.847  0.8915  0.0181 -0.3316
   40MOL   C17313511   2.232   2.376   0.762  0.5828 -0.2105 -0.5338
   40MOL   N17413512   2.105   2.423   0.817 -0.4403 -0.0459  0.5867
   40MOL   C17513513   1.984   2.338   0.815 -1.1295 -1.0408  0.9678
   40MOL   C17613514   1.869   2.418   0.881 -0.7451 -0.0540 -0.3517
   40MOL   C17713515   1.930   2.553   0.912  0.6054 -0.0377 -0.6754
   40MOL   C17813516   2.072   2.547   0.872  0.3468  0.1166 -0.3020
   40MOL   O17913517   2.147   2.647   0.888 -0.4142 -0.0184 -0.2791
   40MOL   H18013518   2.447   2.379   0.797  1.3153  1.3921 -0.4727
   40MOL   H18113519   2.362   2.520   0.839 -2.3153  0.1900 -0.9753
   40MOL   H18213520   2.224   2.267   0.757  0.3238 -0.2281  0.2338
   40MOL   H18313521   1.970   2.337   0.707  2.1426  0.7327  0.4823
   40MOL   H18413522   1.990   2.243   0.868  0.0232 -1.2626  0.4468
   40MOL   H18513523   1.848   2.379   0.980 -1.0837  0.8789 -0.0537
   40MOL   H18613524   1.776   2.424   0.824 -0.4403  0.5046 -0.8044
   40MOL   H18713525   1.867   2.631   0.869 -0.2532  1.3148  2.8622
   40MOL   H18813526   1.938   2.573   1.019  0.0286 -1.8117 -0.2852
   40MOL   C18913527   2.249   2.450   0.625  0.5232 -0.2211 -0.1710
   40MOL   C19013528   2.383   2.432   0.552  0.1563 -0.5824  0.6569
   40MOL   N19113529   2.434   2.301   0.551 -0.8271  1.2776  0.0454
   40MOL   C19213530   2.577   2.283   0.571  0.1743 -0.3138 -0.4053
   40MOL   C19313531   2.614   2.154   0.511  0.8051  0.3971  0.4051
   40MOL   C19413532   2.483   2.078   0.473 -0.1047  0.0438 -0.0866
   40MOL   C19513533   2.376   2.190   0.502  0.5351  0.2965  0.3583
   40MOL   O19613534   2.254   2.176   0.483 -0.1466  0.1618  0.4149
   40MOL   H19713535   2.234   2.557   0.642  1.7561  0.0158 -0.5012
   40MOL   H19813536   2.162   2.422   0.566 -0.3069 -0.5285  1.1686
   40MOL   H19913537   2.461   2.497   0.593  0.9620 -0.6397 -0.7545
   40MOL   H20013538   2.622   2.363   0.513  0.0421 -0.0098 -0.0963
   40MOL   H20113539   2.609   2.283   0.676  1.6028 -0.6775 -0.8289
   40MOL   H20213540   2.671   2.173   0.420  0.8140 -1.5272 -0.0213
   40MOL   H20313541   2.674   2.096   0.581  0.6216  0.3407  0.5143
   40MOL   H20413542   2.488   2.052   0.367  0.2979 -0.2418  0.0029
   40MOL   H20513543   2.461   1.993   0.538 -2.7619  1.0442  0.4068
   40MOL   C20613544   2.363   2.483   0.409 -0.5396 -0.4845 -0.2005
   40MOL   C20713545   2.331   2.629   0.382 -0.5315  0.1626  0.4907
   40MOL   N20813546   2.423   2.728   0.445  0.2641  0.5053 -0.1798
   40MOL   C20913547   2.375   2.845   0.514  0.7346  0.2619  0.3929
   40MOL   C21013548   2.502   2.912   0.574 -0.1749 -0.6650  0.1084
   40MOL   C21113549   2.619   2.848   0.499 -0.4335 -0.2245  0.3854
   40MOL   C21213550   2.552   2.733   0.430  0.4756  1.5305 -0.5146
   40MOL   O21313551   2.617   2.651   0.369 -0.1768  0.4033  0.5134
   40MOL   H21413552   2.278   2.431   0.366 -0.5932 -0.9237  0.4227
   40MOL   H21513553   2.453   2.457   0.353 -0.2730 -1.2949  0.5876
   40MOL   H21613554   2.229   2.648   0.415 -0.6239  1.8684 -0.6797
   40MOL   H21713555   2.312   2.897   0.442  1.5701 -1.1758 -1.4168
   40MOL   H21813556   2.312   2.811   0.596 -0.7052  0.7804 -0.4896
   40MOL   H21913557   2.487   3.019   0.566  1.0511 -0.4608  0.5200
   40MOL   H22013558   2.511   2.897   0.681  2.0918 -0.4767 -0.0244
   40MOL   H22113559   2.653   2.929   0.434 -1.5744 -0.6240 -0.7332
   40MOL   H22213560   2.693   2.824   0.574 -1.3198 -1.4041  0.8875
   40MOL   C22313561   2.329   2.659   0.238  0.1433 -0.4846  0.5508
   40MOL   C22413562   2.224   2.572   0.159 -0.0698 -0.5330  0.4072
   40MOL   N22513563   2.087   2.603   0.214 -0.2232 -0.0938  0.0543
   40MOL   C22613564   2.008   2.495   0.262  0.5607 -0.0781  0.1414
   40MOL   C22713565   1.895   2.563   0.346 -0.6133 -0.7383 -0.1840
   40MOL   C22813566   1.903   2.710   0.320  0.1755 -0.0821 -0.7716
   40MOL   C22913567   2.032   2.726   0.239 -0.1956 -0.4071 -0.0994
   40MOL   O23013568   2.077   2.835   0.209 -0.6843 -0.0651  0.3771
   40MOL   H23113569   2.422   2.632   0.189 -0.9655 -1.9822 -0.7448
   40MOL   H23213570   2.315   2.766   0.219  1.1093 -0.9083 -2.8473
   40MOL   H23313571   2.252   2.468   0.173  0.7060 -0.1954  1.5325
   40MOL   H23413572   1.958   2.463   0.171  0.0029 -0.3552  0.5426
   40MOL   H23513573   2.046   2.406   0.314 -2.8602 -2.3286 -1.0825
   40MOL   H23613574   1.792   2.528   0.348 -0.4163 -1.3270  2.3664
   40MOL   H23713575   1.932   2.539   0.446 -0.4346  0.2205 -0.0076
   40MOL   H23813576   1.822   2.738   0.253 -0.2774  0.4089 -0.0127
   40MOL   H23913577   1.924   2.767   0.410  3.2027 -1.6580 -0.3854
   40MOL   C24013578   2.239   2.600   0.000  0.1209  0.0149  0.3693
   40MOL   C24113579   2.353   2.529   7.828 -0.1603  0.4264 -0.2982
   40MOL   N24213580   2.358   2.388   7.867 -0.2405 -0.2813 -0.0343
   40MOL   C24313581   2.473   2.341   0.032  0.1105 -0.6831  0.8712
   40MOL   C24413582   2.452   2.195   0.065  0.1861  0.4021  0.6114
   40MOL   C24513583   2.325   2.158   7.897 -0.7000 -0.0674  0.6718
   40MOL   C24613584   2.282   2.287   7.829 -0.4475  0.3219 -0.6301
   40MOL   O24713585   2.186   2.286   7.755 -0.5123  0.2426  0.4348
   40MOL   H24813586   2.238   2.707   7.886 -0.1385 -0.2094 -0.9026
   40MOL   H24913587   2.145   2.569   7.860 -0.6141  3.9019 -0.9403
   40MOL   H25013588   2.443   2.588   7.844  1.1300 -1.4651 -0.3728
   40MOL   H25113589   2.556   2.340   7.868  1.2766 -0.7883  2.2335
   40MOL   H25213590   2.476   2.407   0.119 -1.6633  2.7764 -1.5341
   40MOL   H25313591   2.539   2.142   0.028 -0.2705 -1.9118  2.7349
   40MOL   H25413592   2.442   2.188   0.173  0.5336 -0.2174  0.6000
   40MOL   H25513593   2.333   2.077   7.825 -2.1141 -1.1701  1.6996
   40MOL   H25613594   2.238   2.150   0.057 -0.0004  2.4156  1.9708
   40MOL   C25713595   2.331   2.554   7.684  0.1506 -0.4133  0.0946
   40MOL   C25813596   2.357   2.699   7.633  0.9032 -0.4133 -0.0864
   40MOL   N25913597   2.498   2.729   7.635  0.4403  0.5814  0.6798
   40MOL   C26013598   2.545   2.848   7.699  0.3306  0.1718  0.5090
   40MOL   C26113599   2.684   2.871   7.641 -0.0649 -0.5481 -0.3582
   40MOL   C26213600   2.729   2.740   7.580  0.0344 -0.4775  0.2243
   40MOL   C26313601   2.598   2.664   7.573 -0.8295  0.6149 -0.3038
   40MOL   O26413602   2.592   2.556   7.511  0.4663  0.3682 -0.7952
   40MOL   H26513603   2.233   2.518   7.652  0.3063 -0.2429 -0.5688
   40MOL   H26613604   2.398   2.484   7.634 -1.4681 -0.5686 -1.8894
   40MOL   H26713605   2.299   2.766   7.696  0.7774 -0.3492 -0.2699
   40MOL   H26813606   2.491   2.941   7.684  1.9375  0.9984 -0.2639
   40MOL   H26913607   2.552   2.812   7.801  0.4583 -1.9092 -0.1922
   40MOL   H27013608   2.678   2.953   7.569 -2.0008  1.6015  2.1328
   40MOL   H27113609   2.756   2.908   7.715 -0.8273 -0.3103  0.2697
   40MOL   H27213610   2.767   2.744   7.478  2.4992  2.2415  1.1886
   40MOL   H27313611   2.809   2.695   7.638  2.1606 -0.3679 -2.5349
   40MOL   C27413612   2.307   2.720   7.482 -0.1527  0.0720  0.6938
   40MOL   C27513613   2.315   2.863   7.428 -0.0174 -0.2342  0.2360
   40MOL   N27613614   2.284   2.848   7.286 -0.4601  0.8611  0.1086
   40MOL   C27713615   2.149   2.871   7.246 -0.4113  0.3450  0.0992
   40MOL   C27813616   2.142   2.818   7.098 -0.0515  0.6900  0.0482
   40MOL   C27913617   2.292   2.797   7.061  0.6342 -0.3268 -0.3842
   40MOL   C28013618   2.364   2.810   7.189 -0.2501 -0.5357 -0.5929
   40MOL   O28113619   2.488   2.797   7.196  1.2809  0.0641  0.0249
   40MOL   H28213620   2.202   2.690   7.479  0.4785 -2.1693 -0.7087
   40MOL   H28313621   2.362   2.653   7.415 -1.0936 -0.4485  0.4157
   40MOL   H28413622   2.422   2.886   7.431  0.5852 -2.9740  1.1203
   40MOL   H28513623   2.072   2.826   7.309  1.7135 -0.4009  2.2342
   40MOL   H28613624   2.138   2.979   7.236 -0.2232  0.2688 -0.9808
   40MOL   H28713625   2.076   2.732   7.096  0.4566  0.2602  1.1138
   40MOL   H28813626   2.086   2.874   7.024  0.9227 -0.4574 -1.5750
   40MOL   H28913627   2.299   2.694   7.024 -0.7387 -1.0400  1.2632
   40MOL   H29013628   2.321   2.865   6.982 -1.6820  3.4745  1.8988
   40MOL   C29113629   2.231   2.969   7.507 -0.1382 -0.3621  0.3614
   40MOL   C29213630   2.257   3.117   7.460 -0.2765 -1.3275  0.3180
   40MOL   N29313631   2.141   3.203   7.473  0.3869  0.1598  0.5140
   40MOL   C29413632   2.089   3.278   7.359 -0.4458  0.7363  0.2873
   40MOL   C29513633   1.948   3.329   7.396  0.0822 -0.2060  0.4192
   40MOL   C29613634   1.923   3.273   7.535  0.6019 -0.5388  0.1087
   40MOL   C29713635   2.056   3.215   7.577 -0.2774 -0.0464 -0.1878
   40MOL   O29813636   2.083   3.178   7.690 -0.5923  0.1129  0.1038
   40MOL   H29913637   2.246   2.965   7.615 -0.9255 -0.7399  0.4554
   40MOL   H30013638   2.125   2.944   7.505 -0.4436  0.8954 -3.2035
   40MOL   H30113639   2.277   3.115   7.353 -0.0051  1.4901  0.2693
   40MOL   H30213640   2.155   3.362   7.335  0.4065 -0.0733 -0.2327
   40MOL   H30313641   2.088   3.212   7.272 -2.4131  0.4170  0.5398
   40MOL   H30413642   1.940   3.438   7.395  1.1760 -0.1125  1.0825
   40MOL   H30513643   1.872   3.303   7.322  0.5582  0.6473 -0.3807
   40MOL   H30613644   1.887   3.341   7.613  0.1347 -1.4298  0.6816
   40MOL   H30713645   1.845   3.197   7.532  0.0935 -0.0733  1.2117
   40MOL   C30813646   2.373   3.198   7.520  0.5765 -0.5319 -0.3150
   40MOL   C30913647   2.466   3.267   7.418  0.3059  0.2031 -0.1080
   40MOL   N31013648   2.545   3.376   7.473 -0.2112  0.0619  0.6066
   40MOL   C31113649   2.512   3.507   7.438 -0.2329  0.1675  0.4137
   40MOL   C31213650   2.618   3.590   7.514  0.1751  0.1158 -0.6577
   40MOL   C31313651   2.660   3.502   7.627 -0.0404 -0.1697 -0.7247
   40MOL   C31413652   2.616   3.365   7.590 -0.2321  0.3993  1.8866
   40MOL   O31513653   2.657   3.263   7.645  0.1959  0.3704 -0.5179
   40MOL   H31613654   2.433   3.129   7.579  0.7948 -1.2957 -1.4102
   40MOL   H31713655   2.334   3.265   7.597 -0.2436 -0.3825 -0.8544
   40MOL   H31813656   2.382   3.306   7.360  0.3782 -0.8606 -0.9349
   40MOL   H31913657   2.507   3.522   7.330  1.7529 -0.1394  0.2592
   40MOL   H32013658   2.413   3.520   7.481 -0.1205  2.2347  0.1239
   40MOL   H32113659   2.703   3.607   7.448  0.5919 -0.4791 -0.2829
   40MOL   H32213660   2.580   3.690   7.533  2.4768  0.9261 -0.1732
   40MOL   H32313661   2.766   3.511   7.649  0.1736 -1.9620 -0.9791
   40MOL   H32413662   2.597   3.509   7.716 -1.0519  0.4232 -1.4793
   40MOL   C32513663   2.550   3.167   7.337  0.3636  0.9025 -0.6024
   40MOL   C32613664   2.611   3.226   7.210  0.0274 -0.0385  0.3871
   40MOL   N32713665   2.517   3.276   7.106  0.1976 -0.8779 -0.1326
   40MOL   C32813666   2.425   3.179   7.045 -0.7618 -0.0231  0.2940
   40MOL   C32913667   2.338   3.269   6.958  0.3004  0.5618  0.0736
   40MOL   C33013668   2.405   3.410   6.944 -0.7852  0.5455  0.2715
   40MOL   C33113669   2.516   3.398   7.050  0.3723  0.1563 -0.4547
   40MOL   O33213670   2.598   3.487   7.060  0.4771 -0.3721  0.1248
   40MOL   H33313671   2.491   3.082   7.300 -0.6183  1.4372 -0.2840
   40MOL   H33413672   2.622   3.116   7.400  0.0490  0.5260 -0.5412
   40MOL   H33513673   2.682   3.156   7.167  0.0875  0.1450  0.1879
   40MOL   H33613674   2.486   3.112   6.985  1.9563  1.2741  1.5370
   40MOL   H33713675   2.366   3.114   7.110 -0.5187 -0.3535  0.1873
   40MOL   H33813676   2.347   3.239   6.853  2.5056 -1.4225  0.7872
   40MOL   H33913677   2.232   3.269   6.981 -0.0366 -1.6005 -1.3334
   40MOL   H34013678   2.456   3.428   6.850 -0.4929 -1.1331  0.0820
   40MOL   H34113679   2.337   3.491   6.970  0.0922  1.5716 -0.5634
   40MOL   H34213680   2.664   3.317   7.237  1.0215 -0.0897 -1.2944
   41MOL     C113681   3.488   3.451   7.611  0.2913 -0.1538  0.5261
   41MOL     C213682   3.424   3.434   7.472  0.4701 -0.1982  0.1558
   41MOL     N313683   3.270   3.445   7.477  0.1504 -0.5252 -0.0699
   41MOL     C413684   3.193   3.338   7.429 -0.4719  0.6674  0.1229
   41MOL     C513685   3.042   3.358   7.468  0.0109 -0.3212 -1.0121
   41MOL     C613686   3.058   3.477   7.562 -1.2106  0.2415 -0.2653
   41MOL     C713687   3.196   3.524   7.553  0.1981 -0.1424 -0.3397
   41MOL     O813688   3.232   3.617   7.622  0.3636 -0.5984 -0.1920
   41MOL     H913689   3.596   3.456   7.601  0.2241  0.0722 -0.0688
   41MOL    H1013690   3.461   3.544   7.662 -0.0558  1.0443 -1.7664
   41MOL    H1113691   3.453   3.337   7.431  1.2054 -0.3426  1.0362
   41MOL    H1213692   3.203   3.324   7.321  1.2391  0.2972  0.3270
   41MOL    H1313693   3.229   3.251   7.483 -0.8967  1.0062  0.9584
   41MOL    H1413694   2.982   3.382   7.380 -0.2865 -2.2998 -1.3789
   41MOL    H1513695   2.994   3.272   7.514 -2.6010  1.5485 -0.1356
   41MOL    H1613696   2.985   3.555   7.540 -1.5468 -0.5058 -1.9004
   41MOL    H1713697   3.035   3.451   7.665 -1.9235  1.3310 -0.1358
   41MOL    H1813698   3.456   3.364   7.669 -3.0985  0.7642  0.1134
   41MOL    C1913699   3.461   3.539   7.368 -0.3156 -0.5231 -0.1588
   41MOL    C2013700   3.607   3.539   7.326 -0.7881  0.0054  0.1051
   41MOL    N2113701   3.650   3.409   7.267 -0.0085 -0.4023  0.3586
   41MOL    C2213702   3.785   3.366   7.286  0.5956 -0.0137 -0.6761
   41MOL    C2313703   3.823   3.292   7.164 -0.0697  0.0013 -0.6532
   41MOL    C2413704   3.693   3.252   7.095  0.4351 -0.5565 -0.1010
   41MOL    C2513705   3.593   3.344   7.163 -0.0004 -0.0090 -0.1917
   41MOL    O2613706   3.476   3.363   7.114  0.0569  0.3730 -0.3355
   41MOL    H2713707   3.434   3.637   7.408  2.8477  0.6309 -0.7085
   41MOL    H2813708   3.388   3.528   7.288 -2.0719  0.7532  1.2328
   41MOL    H2913709   3.665   3.552   7.418 -1.7349 -1.3029  0.8967
   41MOL    H3013710   3.859   3.444   7.304  1.4845 -0.7737 -1.0400
   41MOL    H3113711   3.780   3.300   7.373 -0.9611  1.9752  0.7972
   41MOL    H3213712   3.887   3.342   7.092 -2.1078 -0.0882 -2.5620
   41MOL    H3313713   3.879   3.204   7.198 -1.7686 -0.2321  1.6723
   41MOL    H3413714   3.709   3.274   6.990  1.1515 -1.5108 -0.1992
   41MOL    H3513715   3.664   3.149   7.115 -0.8169  0.4840  3.9178
   41MOL    C3613716   3.641   3.661   7.242  0.0396  0.2481  0.2847
   41MOL    C3713717   3.780   3.692   7.180 -0.3119  0.5682 -0.3466
   41MOL    N3813718   3.759   3.790   7.072  1.0030  0.1548  0.5144
   41MOL    C3913719   3.809   3.751   6.939 -0.4889 -0.0958 -0.2882
   41MOL    C4013720   3.792   3.874   6.851  0.0636  0.2506 -0.1516
   41MOL    C4113721   3.686   3.957   6.923  0.2627  0.2505  0.5331
   41MOL    C4213722   3.682   3.895   7.059  0.1799  0.3488 -0.8831
   41MOL    O4313723   3.636   3.957   7.154  0.2566 -0.3313  0.0642
   41MOL    H4413724   3.613   3.744   7.308  0.5451  1.8171 -1.4466
   41MOL    H4513725   3.573   3.663   7.157  0.6494 -3.4228 -0.3567
   41MOL    H4613726   3.822   3.599   7.143  1.7787  1.3275  0.0242
   41MOL    H4713727   3.915   3.724   6.942 -0.3269  0.5512 -0.1468
   41MOL    H4813728   3.750   3.671   6.894 -1.7552  1.7219 -1.9503
   41MOL    H4913729   3.890   3.921   6.853  0.1696  0.0112  0.3738
   41MOL    H5013730   3.758   3.850   6.750 -1.2021  1.9774 -0.1543
   41MOL    H5113731   3.710   4.063   6.920 -0.7268  0.4945  1.0966
   41MOL    H5213732   3.588   3.944   6.876 -0.2045  1.8902  1.0328
   41MOL    C5313733   3.869   3.740   7.291 -0.5678 -0.4583 -0.2968
   41MOL    C5413734   4.022   3.751   7.261  0.5601  0.3392 -0.1193
   41MOL    N5513735   4.074   3.866   7.329  0.2180 -0.9379 -0.4098
   41MOL    C5613736   4.092   3.990   7.256 -0.6262 -1.0336  0.2569
   41MOL    C5713737   4.136   4.092   7.364 -0.2038 -0.2080  0.1496
   41MOL    C5813738   4.134   4.011   7.494  0.0932  0.1249  0.0533
   41MOL    C5913739   4.090   3.869   7.456  0.2133 -0.6939 -0.1444
   41MOL    O6013740   4.071   3.783   7.535  0.0276 -0.0892 -0.6539
   41MOL    H6113741   3.856   3.669   7.373  0.0840 -1.1331 -0.7636
   41MOL    H6213742   3.826   3.832   7.331  2.2483  0.7944 -0.0254
   41MOL    H6313743   4.033   3.782   7.157 -1.7056 -3.3290 -1.5382
   41MOL    H6413744   4.172   3.984   7.182  0.0934  1.5325  0.7600
   41MOL    H6513745   4.001   4.026   7.208 -0.8523 -1.7322  0.1638
   41MOL    H6613746   4.233   4.132   7.336  0.7423 -0.6366  2.6381
   41MOL    H6713747   4.067   4.177   7.369  0.6917  0.5491 -0.2610
   41MOL    H6813748   4.229   4.002   7.546 -0.6187  0.5498  1.4794
   41MOL    H6913749   4.075   4.053   7.576  0.1001  0.5237 -0.1423
   41MOL    C7013750   4.102   3.617   7.281  1.0711 -0.7990 -0.6775
   41MOL    C7113751   4.257   3.619   7.263  0.1875 -0.0089 -0.5374
   41MOL    N7213752   4.318   3.655   7.398 -0.0542 -0.0692  0.3921
   41MOL    C7313753   4.418   3.770   7.402 -0.3672 -0.3263  0.2620
   41MOL    C7413754   4.482   3.764   7.537  0.3089 -0.4858 -0.5310
   41MOL    C7513755   4.423   3.642   7.605  0.7356  1.5487 -0.4179
   41MOL    C7613756   4.318   3.583   7.511 -0.3211 -0.9216  0.3370
   41MOL    O7713757   4.263   3.473   7.539 -0.1546 -0.2241  0.5156
   41MOL    H7813758   4.051   3.561   7.203 -1.1743 -1.0300  0.9100
   41MOL    H7913759   4.072   3.565   7.373  0.7088  1.6962  0.6540
   41MOL    H8013760   4.269   3.701   7.193  0.1077  0.9499  0.5657
   41MOL    H8113761   4.499   3.773   7.328 -0.6282 -0.3790 -0.0257
   41MOL    H8213762   4.357   3.857   7.380  0.1925 -0.1346 -0.5375
   41MOL    H8313763   4.590   3.751   7.544  0.4822  1.5182  1.0968
   41MOL    H8413764   4.456   3.853   7.594 -1.4540 -2.0058  1.1383
   41MOL    H8513765   4.490   3.556   7.609 -0.0520  0.8695 -1.9931
   41MOL    H8613766   4.375   3.669   7.699 -0.8790 -3.1008  0.2094
   41MOL    C8713767   4.326   3.490   7.211 -0.2124 -0.1418 -0.4885
   41MOL    C8813768   4.345   3.482   7.062 -0.7719  0.1766 -0.0067
   41MOL    N8913769   4.450   3.386   7.024  0.0279 -0.0077  0.0482
   41MOL    C9013770   4.559   3.432   6.940  0.2581 -0.1389  0.4477
   41MOL    C9113771   4.650   3.313   6.918 -0.3318  0.2847  0.2254
   41MOL    C9213772   4.589   3.204   7.006  0.1665 -0.0315  0.3491
   41MOL    C9313773   4.457   3.258   7.053 -0.2002  0.8173  0.3308
   41MOL    O9413774   4.371   3.192   7.113 -0.4456 -0.1049 -0.2433
   41MOL    H9513775   4.269   3.406   7.251  0.0643  0.5533  1.3950
   41MOL    H9613776   4.418   3.458   7.260 -0.1287 -1.0935 -1.2553
   41MOL    H9713777   4.380   3.579   7.026  0.2021 -0.1903 -0.0478
   41MOL    H9813778   4.519   3.476   6.849  0.1547 -0.7725  0.1839
   41MOL    H9913779   4.622   3.510   6.984 -0.2342  0.6988 -0.3205
   41MOL   H10013780   4.657   3.278   6.815 -0.3929 -0.6077  0.5137
   41MOL   H10113781   4.751   3.326   6.957 -1.3156  0.4692  2.8432
   41MOL   H10213782   4.579   3.110   6.951  0.4322  0.1401  0.0045
   41MOL   H10313783   4.654   3.170   7.087 -2.0721 -1.2866  1.6636
   41MOL   C10413784   4.214   3.450   6.986  0.2508 -0.1341 -0.3459
   41MOL   C10513785   4.228   3.400   6.843  0.2843  0.5112  0.3197
   41MOL   N10613786   4.110   3.317   6.809 -0.2581 -0.2512  0.0669
   41MOL   C10713787   4.131   3.178   6.782 -0.1219 -0.1341  0.0683
   41MOL   C10813788   4.000   3.138   6.718 -0.4446 -0.0614  0.3530
   41MOL   C10913789   3.905   3.255   6.712  0.0155 -0.4417  0.7918
   41MOL   C11013790   3.987   3.362   6.782 -0.1540  0.0064  0.0210
   41MOL   O11113791   3.943   3.477   6.809 -0.8264 -0.0215  0.6465
   41MOL   H11213792   4.146   3.534   6.982 -1.2729 -1.2049  1.8506
   41MOL   H11313793   4.160   3.372   7.040  0.9666 -1.5020 -1.5456
   41MOL   H11413794   4.303   3.321   6.842  0.9177  1.0743  1.9303
   41MOL   H11513795   4.201   3.153   6.703  1.7795 -1.1544  2.0455
   41MOL   H11613796   4.156   3.113   6.865 -0.0008 -2.0751 -1.4476
   41MOL   H11713797   4.016   3.103   6.616 -1.8547  0.6154 -0.1153
   41MOL   H11813798   3.951   3.060   6.776  2.1250 -0.8503  1.5449
   41MOL   H11913799   3.819   3.245   6.779  0.5452  1.8359  1.8731
   41MOL   H12013800   3.872   3.299   6.618  3.6032 -0.6020 -0.6343
   41MOL   C12113801   4.246   3.515   6.742  0.0215 -0.4263  0.0673
   41MOL   C12213802   4.257   3.469   6.589 -0.1682  0.3320  0.2637
   41MOL   N12313803   4.204   3.568   6.494 -0.4667  0.1653 -0.5142
   41MOL   C12413804   4.080   3.538   6.423 -0.1498  0.0033  0.7632
   41MOL   C12513805   4.067   3.650   6.321 -0.1721 -0.5424 -0.7414
   41MOL   C12613806   4.176   3.757   6.353 -0.7053  0.4158 -0.8197
   41MOL   C12713807   4.263   3.687   6.451  0.4138  0.1937  0.0220
   41MOL   O12813808   4.372   3.739   6.481 -0.1845 -0.2620 -0.5558
   41MOL   H12913809   4.329   3.577   6.776 -0.1820 -0.5634  0.8005
   41MOL   H13013810   4.160   3.581   6.750 -1.0732 -2.1563  3.3120
   41MOL   H13113811   4.204   3.375   6.573 -1.1157  0.5239  2.1270
   41MOL   H13213812   3.992   3.539   6.487 -1.5974  3.3480 -1.1268
   41MOL   H13313813   4.102   3.442   6.377 -1.0303  1.0477 -1.9487
   41MOL   H13413814   4.096   3.608   6.225 -1.1960 -1.3163 -0.7273
   41MOL   H13513815   3.967   3.690   6.306 -0.7722 -1.2780  1.1844
   41MOL   H13613816   4.236   3.777   6.264 -2.9488  2.8293 -1.8629
   41MOL   H13713817   4.141   3.853   6.390  0.2335 -0.2106  1.7992
   41MOL   C13813818   4.402   3.426   6.553  0.3421 -0.6690 -0.5819
   41MOL   C13913819   4.426   3.359   6.420 -0.3541  0.0257 -0.1455
   41MOL   N14013820   4.569   3.365   6.381  0.0264  0.6120 -0.7035
   41MOL   C14113821   4.615   3.473   6.291 -0.3426  0.8482 -0.1941
   41MOL   C14213822   4.762   3.488   6.316 -0.4715 -0.8697  0.0483
   41MOL   C14313823   4.794   3.399   6.440  0.2111 -0.9614 -0.2124
   41MOL   C14413824   4.672   3.323   6.459  0.2367 -0.0166 -0.0127
   41MOL   O14513825   4.667   3.243   6.551 -0.7236  0.0904  0.1386
   41MOL   H14613826   4.432   3.356   6.632  0.9789 -0.7354 -0.8758
   41MOL   H14713827   4.458   3.518   6.570 -0.2184 -0.3852 -0.2677
   41MOL   H14813828   4.377   3.432   6.356  0.1707  0.3180 -0.2206
   41MOL   H14913829   4.596   3.449   6.187 -1.9692 -1.8446  0.6629
   41MOL   H15013830   4.556   3.561   6.317  2.0234  2.8538 -1.4064
   41MOL   H15113831   4.817   3.450   6.231 -0.9321 -1.1041 -0.1481
   41MOL   H15213832   4.786   3.593   6.334  1.3753 -1.5381  1.5868
   41MOL   H15313833   4.818   3.460   6.527 -1.6148 -0.4660 -0.0394
   41MOL   H15413834   4.882   3.337   6.420  1.0463 -0.0121  0.4396
   41MOL   C15513835   4.368   3.212   6.402  0.4635  0.6290 -0.1722
   41MOL   C15613836   4.365   3.160   6.256  0.0149  0.8111 -0.2389
   41MOL   N15713837   4.292   3.035   6.242  0.6557 -0.3326 -0.1266
   41MOL   C15813838   4.368   2.920   6.202 -0.0308  0.6594 -0.1465
   41MOL   C15913839   4.258   2.805   6.198 -0.6156  0.4997  0.3745
   41MOL   C16013840   4.121   2.874   6.241 -0.2631  0.5119  0.3731
   41MOL   C16113841   4.167   3.015   6.265 -0.2255  0.5588  0.4684
   41MOL   O16213842   4.083   3.106   6.287  0.0620  0.0059  0.3579
   41MOL   H16313843   4.271   3.198   6.449  0.3611 -0.3188 -0.6740
   41MOL   H16413844   4.432   3.150   6.464 -0.3354 -0.3745 -0.3288
   41MOL   H16513845   4.467   3.123   6.243 -0.4825 -1.2822  1.4732
   41MOL   H16613846   4.424   2.910   6.109  0.5354 -1.2380  0.3774
   41MOL   H16713847   4.443   2.901   6.278 -0.9505  1.1065  0.8897
   41MOL   H16813848   4.265   2.753   6.102  1.1318 -0.2447  0.8823
   41MOL   H16913849   4.300   2.733   6.269  0.5440  1.0689  0.2724
   41MOL   H17013850   4.043   2.871   6.165  0.4393  0.8246 -0.3618
   41MOL   H17113851   4.080   2.834   6.334 -0.1870 -2.6111 -0.8724
   41MOL   C17213852   4.334   3.272   6.148 -0.4384 -0.3373  0.4338
   41MOL   C17313853   4.304   3.227   6.000  0.0290  0.5297 -0.2609
   41MOL   N17413854   4.249   3.343   5.925  0.0448 -0.8290  0.2108
   41MOL   C17513855   4.103   3.353   5.895 -0.1752 -0.3649  0.4181
   41MOL   C17613856   4.092   3.472   5.798  0.0622 -0.2462  0.4567
   41MOL   C17713857   4.229   3.532   5.789  0.3726  0.5652  0.0298
   41MOL   C17813858   4.319   3.446   5.871  0.6351 -0.2957  0.0106
   41MOL   O17913859   4.441   3.472   5.884  0.1954 -0.3496  0.3976
   41MOL   H18013860   4.416   3.343   6.140  2.3029 -3.2776  1.7108
   41MOL   H18113861   4.242   3.324   6.175 -2.7740 -4.2867  0.4241
   41MOL   H18213862   4.222   3.156   6.004  0.3047  0.3380  2.2646
   41MOL   H18313863   4.065   3.255   5.866 -2.9627  0.5286  0.8894
   41MOL   H18413864   4.069   3.374   5.996  2.7020  0.0093  1.3720
   41MOL   H18513865   4.016   3.528   5.853  0.2956 -3.1649  4.0292
   41MOL   H18613866   4.050   3.444   5.701  0.9939  0.5625 -0.1828
   41MOL   H18713867   4.260   3.540   5.685 -1.4991  0.7249 -0.5493
   41MOL   H18813868   4.240   3.631   5.833  1.9545  0.3906  0.0488
   41MOL   C18913869   4.430   3.162   5.923  0.2573  0.2667 -0.9357
   41MOL   C19013870   4.406   3.094   5.788  0.2124  0.0564 -0.1939
   41MOL   N19113871   4.525   3.064   5.716  0.5255 -0.3469  0.1656
   41MOL   C19213872   4.568   3.142   5.597  0.0635  0.7777  0.0959
   41MOL   C19313873   4.704   3.077   5.556  0.3150  0.7189  0.2190
   41MOL   C19413874   4.745   2.979   5.676  0.7758  0.6142  0.5770
   41MOL   C19513875   4.619   2.971   5.749  0.4512 -0.2393 -0.3694
   41MOL   O19613876   4.607   2.891   5.834  0.1348  0.8867 -0.0528
   41MOL   H19713877   4.470   3.082   5.985 -2.3178  1.0428  1.7994
   41MOL   H19813878   4.508   3.238   5.910 -0.8633  1.7406  0.7095
   41MOL   H19913879   4.349   3.165   5.729  1.4666 -0.2978 -1.8523
   41MOL   H20013880   4.486   3.126   5.528 -0.6685  0.0046  1.1327
   41MOL   H20113881   4.585   3.249   5.615  0.0397  0.4912  1.8853
   41MOL   H20213882   4.693   3.020   5.464  0.3423 -0.6742  1.0691
   41MOL   H20313883   4.788   3.145   5.549 -1.3068  2.9387  1.4951
   41MOL   H20413884   4.783   2.884   5.638  0.1054  1.1726 -1.5797
   41MOL   H20513885   4.818   3.029   5.740  0.7913  2.8988 -1.1513
   41MOL   C20613886   4.313   2.972   5.797 -0.7230  0.4238  0.1087
   41MOL   C20713887   4.193   2.979   5.699  0.0033  0.0986  0.8332
   41MOL   N20813888   4.233   2.969   5.562 -0.0158  0.0619 -0.3136
   41MOL   C20913889   4.170   3.065   5.477 -0.3774 -0.3404 -0.2596
   41MOL   C21013890   4.254   3.063   5.348  0.6116  0.1240 -0.3348
   41MOL   C21113891   4.316   2.925   5.346  0.0732 -0.6480  0.1975
   41MOL   C21213892   4.298   2.877   5.490  0.4578  0.9554 -0.1321
   41MOL   O21313893   4.343   2.776   5.530 -0.0764  0.1458  0.9528
   41MOL   H21413894   4.280   2.950   5.898 -1.4804 -1.1736 -0.4610
   41MOL   H21513895   4.360   2.877   5.770 -1.5339  0.0083  0.1576
   41MOL   H21613896   4.149   3.078   5.709  0.6190  0.4441  0.1538
   41MOL   H21713897   4.066   3.035   5.459 -0.1667 -2.1877  1.3316
   41MOL   H21813898   4.160   3.165   5.518 -0.9753 -0.2425 -0.6300
   41MOL   H21913899   4.204   3.092   5.256  0.2365 -1.7359 -0.7421
   41MOL   H22013900   4.334   3.134   5.367  1.2191 -0.7545  0.4668
   41MOL   H22113901   4.269   2.862   5.271  1.1190 -0.1528 -0.8927
   41MOL   H22213902   4.422   2.932   5.323  0.0058 -0.9729 -0.2106
   41MOL   C22313903   4.083   2.871   5.740 -0.7234 -0.5225 -0.5662
   41MOL   C22413904   3.933   2.892   5.696  0.7009  0.1268 -0.5568
   41MOL   N22513905   3.847   2.771   5.701  0.1936 -1.0893  0.3244
   41MOL   C22613906   3.782   2.725   5.581 -0.1225 -0.5521 -0.3675
   41MOL   C22713907   3.673   2.629   5.631 -0.8126 -0.3303 -0.1812
   41MOL   C22813908   3.693   2.609   5.782  0.2097 -0.3116 -0.3457
   41MOL   C22913909   3.807   2.705   5.810 -0.4855  0.1670  0.3207
   41MOL   O23013910   3.853   2.712   5.921  0.0493 -0.1210 -1.0271
   41MOL   H23113911   4.088   2.860   5.849  1.2327 -1.4020 -0.7261
   41MOL   H23213912   4.114   2.777   5.694  2.1529  1.5173 -3.0106
   41MOL   H23313913   3.944   2.913   5.589 -0.9959  3.3062 -0.1802
   41MOL   H23413914   3.733   2.803   5.524  0.5721  1.1926  1.3475
   41MOL   H23513915   3.844   2.677   5.505 -2.3178 -3.5700 -0.3489
   41MOL   H23613916   3.573   2.667   5.614 -1.0391 -0.3421  1.0714
   41MOL   H23713917   3.684   2.536   5.575  0.8076  0.5140 -1.3018
   41MOL   H23813918   3.605   2.617   5.846  0.3427 -1.7610  0.0308
   41MOL   H23913919   3.727   2.508   5.807 -0.8968 -0.6570 -0.1942
   41MOL   C24013920   3.867   3.003   5.782  0.2608 -0.8519  0.0775
   41MOL   C24113921   3.775   3.095   5.709 -0.5393  0.1109  0.5159
   41MOL   N24213922   3.672   3.148   5.795  0.3398 -0.0234  0.0091
   41MOL   C24313923   3.528   3.107   5.781  0.2503  0.5367 -0.5240
   41MOL   C24413924   3.457   3.196   5.879  0.1000 -0.3844 -0.6981
   41MOL   C24513925   3.559   3.242   5.977  0.4655 -0.3680 -0.3396
   41MOL   C24613926   3.687   3.212   5.910  0.3473 -0.6828  0.0526
   41MOL   O24713927   3.797   3.248   5.951  0.6237  0.2943  0.3260
   41MOL   H24813928   3.945   3.070   5.819 -0.8945 -0.5900  2.1266
   41MOL   H24913929   3.819   2.961   5.871  1.2027  1.4614  1.7253
   41MOL   H25013930   3.717   3.026   5.647 -2.6889  2.2251  0.1204
   41MOL   H25113931   3.494   3.121   5.679 -2.0814  0.1902  0.1681
   41MOL   H25213932   3.522   3.002   5.812 -1.5789  1.5448  2.7025
   41MOL   H25313933   3.428   3.286   5.825  1.4046  0.9892  0.8381
   41MOL   H25413934   3.370   3.155   5.930 -0.1459  0.4714 -0.4250
   41MOL   H25513935   3.560   3.350   5.990  2.3591 -0.3684 -0.4068
   41MOL   H25613936   3.538   3.179   6.064 -0.4751  0.3907 -0.0025
   41MOL   C25713937   3.852   3.209   5.628 -0.5830  0.3126  0.2282
   41MOL   C25813938   3.787   3.264   5.499  0.3866 -0.5161  0.3705
   41MOL   N25913939   3.856   3.382   5.456 -0.2578  0.8494  0.1428
   41MOL   C26013940   3.787   3.508   5.493 -0.9223 -0.0954  0.3303
   41MOL   C26113941   3.862   3.619   5.419 -0.0892 -0.1669 -0.2784
   41MOL   C26213942   3.986   3.544   5.361  0.3669 -0.2943  0.7698
   41MOL   C26313943   3.958   3.392   5.372  0.1020 -0.9297  0.5942
   41MOL   O26413944   4.032   3.312   5.316  0.0276 -0.4217  0.0227
   41MOL   H26513945   3.951   3.168   5.606  0.0994  1.9229  0.2426
   41MOL   H26613946   3.867   3.286   5.704 -0.8870  1.5650 -0.9639
   41MOL   H26713947   3.698   3.292   5.555 -0.8176 -0.4734 -1.5205
   41MOL   H26813948   3.682   3.502   5.464 -1.1298 -1.9461  1.3860
   41MOL   H26913949   3.786   3.516   5.601 -1.1456 -0.0780  0.3261
   41MOL   H27013950   3.800   3.662   5.341 -0.9100  1.9571  1.4970
   41MOL   H27113951   3.893   3.698   5.486  0.0166 -0.5019  0.0710
   41MOL   H27213952   4.006   3.561   5.255 -2.1496  0.7025  0.4107
   41MOL   H27313953   4.079   3.574   5.410  0.9304 -2.9530  1.4250
   41MOL   C27413954   3.770   3.152   5.388  0.0664 -0.3738 -0.0346
   41MOL   C27513955   3.699   3.201   5.258  0.2718  0.1749 -0.0190
   41MOL   N27613956   3.698   3.105   5.149 -0.1831 -0.8318  0.2064
   41MOL   C27713957   3.764   3.128   5.022 -0.1069  0.1892  0.0368
   41MOL   C27813958   3.772   2.995   4.945 -0.2031 -0.0003  0.8818
   41MOL   C27913959   3.672   2.904   5.023  0.2016  0.2780 -0.3589
   41MOL   C28013960   3.655   2.973   5.154 -0.5329 -0.0580  0.4422
   41MOL   O28113961   3.617   2.914   5.253  0.2705  0.3120  0.0500
   41MOL   H28213962   3.707   3.074   5.429  0.1924 -1.9319 -2.6560
   41MOL   H28313963   3.870   3.113   5.366  1.6075  2.1966  1.9802
   41MOL   H28413964   3.759   3.280   5.213  0.4423 -0.0512 -0.1921
   41MOL   H28513965   3.702   3.199   4.966 -2.3954  0.0342  2.2867
   41MOL   H28613966   3.865   3.168   5.028 -0.1005  0.2463 -0.4242
   41MOL   H28713967   3.752   3.015   4.840  1.2498 -0.0726  0.5778
   41MOL   H28813968   3.868   2.943   4.946 -0.8936 -1.3246 -0.8188
   41MOL   H28913969   3.581   2.896   4.964  0.9655  0.6436 -1.6000
   41MOL   H29013970   3.720   2.808   5.042  0.6256  0.7076  0.7861
   41MOL   C29113971   3.555   3.252   5.290 -0.7602  0.2687 -0.0290
   41MOL   C29213972   3.483   3.345   5.190  0.2689  0.5901  0.5057
   41MOL   N29313973   3.333   3.350   5.216 -0.2370  0.7273  0.2540
   41MOL   C29413974   3.239   3.307   5.114  1.0229 -0.5577  0.1128
   41MOL   C29513975   3.100   3.313   5.175 -0.6403 -0.3051 -0.3231
   41MOL   C29613976   3.122   3.367   5.317  0.3700 -1.2196 -0.1651
   41MOL   C29713977   3.271   3.401   5.320  0.4847 -0.1406 -0.3454
   41MOL   O29813978   3.324   3.460   5.414  0.0231  0.4264  0.2040
   41MOL   H29913979   3.559   3.315   5.379 -0.0605 -1.6746  1.3350
   41MOL   H30013980   3.506   3.159   5.319 -2.8110  1.5556  0.8165
   41MOL   H30113981   3.502   3.301   5.092 -2.3672  0.0211  0.2073
   41MOL   H30213982   3.239   3.372   5.027 -2.1757  1.4583  1.5265
   41MOL   H30313983   3.269   3.205   5.092  2.8658 -0.0700  0.2878
   41MOL   H30413984   3.037   3.363   5.101  1.8471  2.0242 -0.9645
   41MOL   H30513985   3.057   3.214   5.189 -1.6226  0.3069  1.1162
   41MOL   H30613986   3.061   3.453   5.344  1.8719 -0.5721  1.2654
   41MOL   H30713987   3.089   3.293   5.389  3.2607 -2.0448  0.3742
   41MOL   C30813988   3.538   3.484   5.196 -0.1821  0.0139 -0.0104
   41MOL   C30913989   3.502   3.580   5.076  0.2269  0.0349 -0.1092
   41MOL   N31013990   3.407   3.686   5.129 -0.5184  0.3627 -0.2926
   41MOL   C31113991   3.264   3.689   5.096  0.0087  0.7593  0.4223
   41MOL   C31213992   3.218   3.821   5.151 -0.4489  0.1206 -0.1235
   41MOL   C31313993   3.336   3.884   5.235  0.5066  0.4405 -0.3902
   41MOL   C31413994   3.450   3.792   5.201  0.5331 -0.0932  0.3387
   41MOL   O31513995   3.568   3.818   5.237 -0.5702 -0.0862 -0.5710
   41MOL   H31613996   3.646   3.489   5.212 -0.2982  1.4514  0.4470
   41MOL   H31713997   3.519   3.537   5.289  0.5087  1.4755 -0.6854
   41MOL   H31813998   3.431   3.532   5.009 -1.3631  0.5188  1.1810
   41MOL   H31913999   3.240   3.679   4.990  1.0663  1.6325  0.0904
   41MOL   H32014000   3.202   3.614   5.144 -0.1408  1.4587  1.3422
   41MOL   H32114001   3.188   3.880   5.065  2.1887 -0.7417 -1.7032
   41MOL   H32214002   3.137   3.811   5.223 -1.0244 -1.6478 -0.9737
   41MOL   H32314003   3.365   3.980   5.193 -1.7395  0.3914 -2.1320
   41MOL   H32414004   3.310   3.884   5.341 -0.2770  1.2581 -0.5811
   41MOL   C32514005   3.622   3.630   4.989 -0.5433 -0.2660 -0.3375
   41MOL   C32614006   3.697   3.502   4.929 -0.4845  0.5265  0.2561
   41MOL   N32714007   3.801   3.532   4.834 -0.1541 -0.1867  0.1675
   41MOL   C32814008   3.930   3.473   4.840 -0.4315 -0.7959 -0.8563
   41MOL   C32914009   4.005   3.522   4.713 -0.2943  0.1947 -0.1953
   41MOL   C33014010   3.893   3.551   4.616 -0.5062  0.0281 -0.1711
   41MOL   C33114011   3.778   3.581   4.710  0.0166  0.3311  0.1500
   41MOL   O33214012   3.667   3.618   4.664  0.1871  0.2353 -0.3571
   41MOL   H33314013   3.702   3.681   5.043 -1.3630  0.5363  0.1403
   41MOL   H33414014   3.583   3.682   4.902  0.7427 -1.2127 -1.4951
   41MOL   H33514015   3.626   3.446   4.868 -0.8924  1.3318 -0.0234
   41MOL   H33614016   3.973   3.491   4.939 -0.0780  0.9817 -1.3110
   41MOL   H33714017   3.914   3.366   4.833  1.2029 -1.3723  2.9933
   41MOL   H33814018   4.073   3.605   4.730 -0.9468  0.6117  0.4364
   41MOL   H33914019   4.067   3.440   4.677  0.6488  0.4376  0.8424
   41MOL   H34014020   3.910   3.638   4.552 -1.5919  1.2222  1.1264
   41MOL   H34114021   3.873   3.473   4.543  1.0124 -1.2058  0.6995
   41MOL   H34214022   3.741   3.436   5.004  3.0191  1.0035 -1.2689
   42MOL     C114023   3.316   6.460   3.435  0.3168  0.1113 -0.0116
   42MOL     C214024   3.243   6.595   3.457  0.0193  0.5557 -0.0478
   42MOL     N314025   3.142   6.618   3.361 -0.2279  0.5552 -0.2506
   42MOL     C414026   3.162   6.703   3.240 -0.6770 -0.0237 -0.1781
   42MOL     C514027   3.019   6.726   3.188  0.1002 -0.1161  0.6492
   42MOL     C614028   2.927   6.628   3.258 -0.1134  0.5796  0.3204
   42MOL     C714029   3.008   6.590   3.380 -0.4787  0.4224 -0.4386
   42MOL     O814030   2.954   6.547   3.486 -0.1077  0.1854  0.9234
   42MOL     H914031   3.254   6.372   3.457  0.0262  0.1207 -0.7530
   42MOL    H1014032   3.349   6.456   3.331  1.8528  0.5356  0.4638
   42MOL    H1114033   3.324   6.663   3.432  0.7174 -1.3700 -3.3670
   42MOL    H1214034   3.192   6.803   3.272  1.5322 -1.0611  1.1412
   42MOL    H1314035   3.236   6.669   3.168  0.4829  1.3080  0.3536
   42MOL    H1414036   2.983   6.826   3.212  2.1176  0.9062 -0.4469
   42MOL    H1514037   3.018   6.712   3.080  1.2061  2.5896  0.2575
   42MOL    H1614038   2.825   6.663   3.279 -0.2888 -0.1805  0.7456
   42MOL    H1714039   2.915   6.531   3.209  1.0068  0.6492 -0.0942
   42MOL    H1814040   3.402   6.448   3.500 -1.0745 -1.6581  1.5899
   42MOL    C1914041   3.207   6.621   3.608  0.3813 -0.0494 -0.7475
   42MOL    C2014042   3.135   6.752   3.645  0.4168  0.5434  0.1332
   42MOL    N2114043   3.099   6.761   3.785  0.5920  0.2696  0.4356
   42MOL    C2214044   2.954   6.740   3.813  0.6096 -0.1316 -1.0373
   42MOL    C2314045   2.944   6.748   3.965 -0.0746  0.2397  0.0850
   42MOL    C2414046   3.089   6.749   4.015 -0.3919 -0.5410  0.1837
   42MOL    C2514047   3.177   6.753   3.889  0.1436 -0.4151 -0.7922
   42MOL    O2614048   3.300   6.745   3.887  0.2785 -0.0404  0.4910
   42MOL    H2714049   3.297   6.619   3.669 -0.5114  0.2085  0.6190
   42MOL    H2814050   3.144   6.540   3.647  2.1703 -1.3167 -0.4478
   42MOL    H2914051   3.045   6.761   3.584 -0.5077 -0.7008  1.2610
   42MOL    H3014052   2.877   6.797   3.760 -0.6495 -0.2863  0.5727
   42MOL    H3114053   2.934   6.635   3.788  1.9101 -0.4112 -0.9119
   42MOL    H3214054   2.906   6.848   3.983 -0.3271 -0.0037  0.9131
   42MOL    H3314055   2.888   6.662   4.001  0.6583 -0.8404 -1.3001
   42MOL    H3414056   3.112   6.832   4.082  0.5461 -0.7280  0.0992
   42MOL    H3514057   3.111   6.661   4.076  0.6516  1.1626  2.3209
   42MOL    C3614058   3.212   6.884   3.608  0.6005  0.1310 -0.4530
   42MOL    C3714059   3.124   7.000   3.548  0.3686 -0.3180 -0.1380
   42MOL    N3814060   3.012   7.048   3.633  0.1204 -0.3130 -0.1375
   42MOL    C3914061   2.873   7.023   3.590  0.8411  0.0853  0.1519
   42MOL    C4014062   2.779   7.053   3.706 -0.4382  0.6405  0.4217
   42MOL    C4114063   2.874   7.115   3.810 -0.3836  0.2985 -0.2720
   42MOL    C4214064   3.015   7.081   3.764 -0.0064  0.0742 -0.6313
   42MOL    O4314065   3.107   7.096   3.838  0.0761  0.1716 -0.3460
   42MOL    H4414066   3.293   6.869   3.536  1.2939  0.9819  0.1408
   42MOL    H4514067   3.265   6.930   3.692 -0.4158 -0.9329  0.7912
   42MOL    H4614068   3.071   6.968   3.459  0.4684  1.6872 -0.9421
   42MOL    H4714069   2.848   7.088   3.506  0.9814 -1.1405 -0.8514
   42MOL    H4814070   2.865   6.921   3.553  0.6038  0.8883 -2.0791
   42MOL    H4914071   2.714   7.133   3.670  0.9546  0.7566 -1.9205
   42MOL    H5014072   2.711   6.973   3.733 -1.0134  0.6988 -0.8147
   42MOL    H5114073   2.865   7.224   3.805 -0.2848  0.3207 -0.0016
   42MOL    H5214074   2.846   7.080   3.909 -0.8892  2.2602  0.3114
   42MOL    C5314075   3.215   7.115   3.510  0.1996  0.4100 -0.0884
   42MOL    C5414076   3.141   7.243   3.456 -0.5299  0.5245 -0.3852
   42MOL    N5514077   3.234   7.362   3.459  0.4787  0.9817 -0.0945
   42MOL    C5614078   3.212   7.468   3.550  0.2484  0.3558 -0.2587
   42MOL    C5714079   3.318   7.572   3.519  0.4283 -0.1338 -0.7326
   42MOL    C5814080   3.393   7.524   3.399  0.6139  0.4863 -0.8588
   42MOL    C5914081   3.330   7.388   3.366  0.2130  0.3501 -0.4670
   42MOL    O6014082   3.350   7.327   3.265 -0.1306 -0.3897 -0.4703
   42MOL    H6114083   3.293   7.086   3.440  0.4407 -1.3608  0.8935
   42MOL    H6214084   3.274   7.141   3.598 -2.2872  0.0731  1.7227
   42MOL    H6314085   3.064   7.272   3.528 -0.1312 -0.0412  0.2743
   42MOL    H6414086   3.110   7.506   3.536 -0.2100 -0.4328  0.8343
   42MOL    H6514087   3.222   7.429   3.651 -2.6843 -0.5798 -0.2672
   42MOL    H6614088   3.261   7.664   3.508 -0.4998 -0.6048  0.0134
   42MOL    H6714089   3.389   7.579   3.601 -0.1205  1.8660 -0.4025
   42MOL    H6814090   3.389   7.599   3.320 -1.8168  1.2335 -0.0661
   42MOL    H6914091   3.499   7.509   3.424  1.0026  0.7855 -2.3020
   42MOL    C7014092   3.074   7.221   3.320  0.1004 -0.7578 -0.3268
   42MOL    C7114093   2.988   7.338   3.276 -0.0238  0.9676 -0.4040
   42MOL    N7214094   2.980   7.346   3.132 -0.2969 -0.1647  0.6754
   42MOL    C7314095   2.890   7.263   3.052  0.6344  0.4921 -0.3431
   42MOL    C7414096   2.923   7.301   2.908 -0.0528 -0.4953 -0.1174
   42MOL    C7514097   3.004   7.430   2.912 -0.9422  0.8425 -0.7545
   42MOL    C7614098   3.049   7.434   3.059 -0.4331 -0.6338  0.4659
   42MOL    O7714099   3.133   7.516   3.101 -0.2410  0.5274  0.6852
   42MOL    H7814100   3.016   7.129   3.318  0.3553 -0.9276 -0.0566
   42MOL    H7914101   3.150   7.194   3.247 -1.2518 -1.6560 -1.4324
   42MOL    H8014102   3.043   7.426   3.306  1.9388 -0.3719  0.0085
   42MOL    H8114103   2.906   7.158   3.076 -1.5119  0.4092  0.8342
   42MOL    H8214104   2.791   7.301   3.077 -0.4579 -1.9542 -0.8511
   42MOL    H8314105   2.980   7.224   2.854 -1.6809 -2.2270  0.5692
   42MOL    H8414106   2.834   7.318   2.847 -0.4899 -0.5319  0.5123
   42MOL    H8514107   3.076   7.447   2.832 -1.1490  0.1095 -1.1004
   42MOL    H8614108   2.926   7.507   2.915 -0.2706  1.4574  2.6365
   42MOL    C8714109   2.843   7.341   3.340 -0.2109  0.4323  0.3359
   42MOL    C8814110   2.761   7.465   3.308  0.2782  0.0550 -0.0478
   42MOL    N8914111   2.621   7.453   3.344 -0.2529 -0.5257 -0.3251
   42MOL    C9014112   2.521   7.504   3.256 -0.4819  1.0239  0.0435
   42MOL    C9114113   2.397   7.511   3.343 -0.5879  1.1786  0.2157
   42MOL    C9214114   2.427   7.449   3.479  0.3524 -0.0480 -0.3115
   42MOL    C9314115   2.574   7.414   3.466 -0.6992 -1.1451 -0.0951
   42MOL    O9414116   2.632   7.355   3.556 -0.5441  0.5549 -0.5776
   42MOL    H9514117   2.856   7.345   3.448 -2.7781 -0.4830  0.7135
   42MOL    H9614118   2.782   7.252   3.324 -1.0455  0.7307  1.7154
   42MOL    H9714119   2.774   7.494   3.203  2.1517 -1.1403 -0.1719
   42MOL    H9814120   2.561   7.592   3.205  0.0711 -0.3938 -2.0661
   42MOL    H9914121   2.510   7.426   3.180 -1.6933  2.5077 -1.3422
   42MOL   H10014122   2.379   7.617   3.361  0.0843  1.1664  0.9349
   42MOL   H10114123   2.301   7.466   3.315 -0.9948  1.3001  1.3721
   42MOL   H10214124   2.392   7.518   3.556  0.5049 -0.4901  0.1514
   42MOL   H10314125   2.378   7.355   3.503  2.1306 -0.5174  1.6070
   42MOL   C10414126   2.817   7.589   3.382 -0.0566  0.1323  0.2807
   42MOL   C10514127   2.758   7.730   3.350  0.3580 -0.0920 -0.0670
   42MOL   N10614128   2.793   7.828   3.454 -0.3048 -0.2589  0.5172
   42MOL   C10714129   2.689   7.891   3.531  0.3851 -0.9558 -0.0405
   42MOL   C10814130   2.760   0.058   3.644 -0.2730  0.2096  0.9754
   42MOL   C10914131   2.905   0.060   3.608  0.0759  0.4857 -0.3644
   42MOL   C11014132   2.917   7.868   3.495  0.3425 -0.8038 -0.3959
   42MOL   O11114133   3.025   7.819   3.457  0.4066  0.2198 -0.3062
   42MOL   H11214134   2.924   7.597   3.366 -0.0304 -0.4963  0.1229
   42MOL   H11314135   2.810   7.564   3.488  2.3155  0.3561  0.5085
   42MOL   H11414136   2.649   7.731   3.351  0.3443 -0.4830 -0.5862
   42MOL   H11514137   2.642   0.062   3.469  2.4808  0.3879 -0.0310
   42MOL   H11614138   2.613   7.823   3.569 -1.1289  1.3260  1.1044
   42MOL   H11714139   2.725   0.161   3.645  0.8609  0.5941  0.6202
   42MOL   H11814140   2.759   7.902   3.734  2.0181  0.6951  1.3555
   42MOL   H11914141   2.951   0.030   3.702  0.1385 -0.0429 -0.5574
   42MOL   H12014142   2.935   0.157   3.570  0.6040 -0.3500 -2.1062
   42MOL   C12114143   2.798   7.776   3.204  0.6110 -0.6987  0.5211
   42MOL   C12214144   2.753   0.007   3.147  0.2223  0.6754 -0.1057
   42MOL   N12314145   2.838   0.044   3.035  0.1124  0.2582 -0.2703
   42MOL   C12414146   2.851   7.872   2.914 -0.2650 -0.2979  0.7264
   42MOL   C12514147   2.970   0.044   2.835  0.0427 -0.5860 -0.3366
   42MOL   C12614148   3.002   0.172   2.914  0.7656 -0.0881 -0.7188
   42MOL   C12714149   2.918   0.152   3.044  0.7010 -0.3353  0.2639
   42MOL   O12814150   2.925   0.240   3.133 -0.4787  0.5997  0.5003
   42MOL   H12914151   2.781   7.695   3.132  0.5597  0.3576 -0.6635
   42MOL   H13014152   2.907   7.780   3.210  0.7247 -1.8383 -0.6441
   42MOL   H13114153   2.766   0.075   3.231 -0.3238  0.7322 -0.0656
   42MOL   H13214154   2.766   7.894   2.849  0.4562 -0.6435 -0.3364
   42MOL   H13314155   2.878   7.767   2.924  0.5040 -0.3398 -1.6177
   42MOL   H13414156   3.060   7.890   2.845  0.1833 -0.5439 -1.2999
   42MOL   H13514157   2.955   0.059   2.728  0.7041 -3.9208 -0.9404
   42MOL   H13614158   3.105   0.157   2.949 -0.0783 -1.0658  1.4336
   42MOL   H13714159   2.983   0.262   2.856  1.7281 -0.1841 -1.1987
   42MOL   C13814160   2.605   0.007   3.112  0.3145  0.0514  0.6537
   42MOL   C13914161   2.540   0.148   3.140 -0.0499  0.0707  0.5426
   42MOL   N14014162   2.602   0.256   3.057  0.3558  0.1878 -0.2480
   42MOL   C14114163   2.625   0.383   3.112  0.0187  0.1071  0.4069
   42MOL   C14214164   2.678   0.469   2.993 -0.0749 -0.2373  0.2948
   42MOL   C14314165   2.656   0.393   2.866 -0.0534  0.1960 -0.5791
   42MOL   C14414166   2.615   0.253   2.921  0.1602  0.3513  0.3487
   42MOL   O14514167   2.587   0.166   2.843 -0.1882 -0.1233 -0.5605
   42MOL   H14614168   2.559   7.838   3.176  1.0479 -1.2733 -0.3584
   42MOL   H14714169   2.576   7.878   3.013  0.3018  0.0322  0.6638
   42MOL   H14814170   2.569   0.173   3.242 -2.4766  1.4887  0.9323
   42MOL   H14914171   2.543   0.434   3.163 -1.3574 -1.5270 -0.1141
   42MOL   H15014172   2.697   0.367   3.193 -1.3827  0.2943  1.7230
   42MOL   H15114173   2.627   0.566   2.991  1.5608  0.6546  1.0574
   42MOL   H15214174   2.785   0.475   3.010  0.0646  0.4648 -0.7751
   42MOL   H15314175   2.745   0.385   2.804  0.7447 -1.9480  0.8072
   42MOL   H15414176   2.572   0.435   2.810  0.1239  2.2614  0.6436
   42MOL   C15514177   2.389   0.146   3.116  0.1710 -0.3366  0.2575
   42MOL   C15614178   2.309   0.241   3.212 -0.2672  0.7987  0.3022
   42MOL   N15714179   2.197   0.313   3.149 -0.0829 -0.4154 -0.2028
   42MOL   C15814180   2.180   0.450   3.172 -0.1581 -0.0496 -0.4443
   42MOL   C15914181   2.048   0.498   3.106  0.6489  0.1491 -0.5746
   42MOL   C16014182   1.996   0.377   3.033  0.1386  0.4081  0.1869
   42MOL   C16114183   2.098   0.267   3.076  0.9059 -0.1664  0.0413
   42MOL   O16214184   2.073   0.151   3.050  0.2491  0.3247 -0.7348
   42MOL   H16314185   2.360   0.042   3.136  0.8469 -1.0827 -2.4467
   42MOL   H16414186   2.366   0.163   3.011 -0.0097 -0.3376  0.2979
   42MOL   H16514187   2.379   0.316   3.248  1.1018 -1.1240  1.7373
   42MOL   H16614188   2.165   0.464   3.279 -4.9358 -1.1022 -0.8649
   42MOL   H16714189   2.260   0.515   3.135 -0.6101  1.2331  0.7732
   42MOL   H16814190   1.978   0.523   3.186  2.1396  1.2422  0.4117
   42MOL   H16914191   2.054   0.590   3.048 -2.7490  1.0561  0.3583
   42MOL   H17014192   1.900   0.341   3.069  0.1600 -2.1651 -2.1119
   42MOL   H17114193   1.997   0.385   2.924 -1.7211  0.8665  0.1955
   42MOL   C17214194   2.260   0.165   3.339  0.2405 -0.0184  0.3544
   42MOL   C17314195   2.212   0.243   3.462  0.3171  0.2615  0.0542
   42MOL   N17414196   2.189   0.149   3.574  0.5022  0.6084 -0.5823
   42MOL   C17514197   2.049   0.100   3.602  0.6955  0.3619  0.4271
   42MOL   C17614198   2.059   7.906   3.712  0.6248  0.4687 -0.0258
   42MOL   C17714199   2.211   7.891   3.749  1.3023  0.2806 -0.4212
   42MOL   C17814200   2.274   0.079   3.646 -0.8329  0.4504  0.0214
   42MOL   O17914201   2.394   0.089   3.623  0.0085 -0.3930  0.3746
   42MOL   H18014202   2.340   0.095   3.364  1.0049  1.1656  1.3038
   42MOL   H18114203   2.180   0.095   3.315  3.2955 -3.1553 -1.0099
   42MOL   H18214204   2.118   0.293   3.438  0.1358  0.2036  0.6350
   42MOL   H18314205   1.997   0.189   3.638  0.4450 -0.6183  2.5613
   42MOL   H18414206   2.004   0.071   3.507 -0.2093 -0.1400  1.0071
   42MOL   H18514207   2.012   7.815   3.674  0.9900  0.7853 -1.2607
   42MOL   H18614208   1.997   0.023   3.798  1.9654  1.0377  0.8190
   42MOL   H18714209   2.235   0.020   3.849  0.9998 -2.4555  0.6404
   42MOL   H18814210   2.247   7.789   3.741 -0.4251 -0.4547  0.7581
   42MOL   C18914211   2.314   0.357   3.495 -0.0015  0.2475  0.5246
   42MOL   C19014212   2.280   0.441   3.620  0.7276 -0.5410 -0.8534
   42MOL   N19114213   2.397   0.531   3.640  0.1988  0.0654  0.2697
   42MOL   C19214214   2.488   0.495   3.746  0.0157  0.7088  0.2708
   42MOL   C19314215   2.610   0.574   3.726 -0.3022  0.5993  0.4764
   42MOL   C19414216   2.592   0.671   3.611 -0.4307 -0.6425 -0.1169
   42MOL   C19514217   2.448   0.632   3.562  0.1408 -0.0073  0.7237
   42MOL   O19614218   2.392   0.683   3.468 -0.2391 -0.9119  0.0329
   42MOL   H19714219   2.335   0.423   3.411 -0.7359  0.9840  0.9134
   42MOL   H19814220   2.411   0.308   3.503 -0.3405 -0.4452  0.4330
   42MOL   H19914221   2.259   0.379   3.707 -0.5608  2.5744  1.1716
   42MOL   H20014222   2.444   0.507   3.846  0.8176  0.6819  0.6288
   42MOL   H20114223   2.518   0.391   3.741  1.5150  1.1313  0.2975
   42MOL   H20214224   2.641   0.633   3.813  0.0124  1.0326  0.0746
   42MOL   H20314225   2.688   0.507   3.691 -0.1812  1.6381 -1.3205
   42MOL   H20414226   2.608   0.774   3.640  3.7757 -0.8929 -1.1744
   42MOL   H20514227   2.669   0.649   3.537  0.1000  0.3488  0.1365
   42MOL   C20614228   2.148   0.527   3.607  0.1480 -0.2610  0.0656
   42MOL   C20714229   2.095   0.606   3.728  0.9609  0.1391  0.6970
   42MOL   N20814230   2.148   0.738   3.731 -0.4286 -0.4402  0.0799
   42MOL   C20914231   2.242   0.765   3.837  0.0594 -0.8027  0.3913
   42MOL   C21014232   2.286   0.902   3.809  0.1177  0.1077 -0.5503
   42MOL   C21114233   2.213   0.955   3.697  0.3188  0.4563 -0.1073
   42MOL   C21214234   2.127   0.843   3.649  0.0266 -0.3700 -0.0088
   42MOL   O21314235   2.056   0.851   3.553  0.4524  0.3320  0.5464
   42MOL   H21414236   2.072   0.452   3.583 -1.7948  2.1998 -1.7692
   42MOL   H21514237   2.138   0.580   3.513 -3.1199 -0.3814  0.2639
   42MOL   H21614238   2.119   0.566   3.826  2.3206 -1.9395 -0.4596
   42MOL   H21714239   2.187   0.753   3.930  1.4949 -0.0565  1.3556
   42MOL   H21814240   2.330   0.701   3.830 -0.7528 -2.0158  1.1574
   42MOL   H21914241   2.266   0.957   3.901  1.6215  0.4265 -0.4028
   42MOL   H22014242   2.394   0.910   3.799  0.1948  1.1992  0.9617
   42MOL   H22114243   2.145   1.034   3.728  2.1515  2.4688 -1.1103
   42MOL   H22214244   2.291   0.996   3.634 -0.0691  1.0272 -0.2264
   42MOL   C22314245   1.942   0.612   3.720  0.1728  0.5670 -0.1721
   42MOL   C22414246   1.860   0.485   3.759 -0.1409 -0.0003 -0.1050
   42MOL   N22514247   1.882   0.447   3.899 -0.4174  0.4033 -0.0602
   42MOL   C22614248   1.974   0.331   3.927 -0.2133 -0.2811 -0.0930
   42MOL   C22714249   1.988   0.319   4.079 -0.0830 -0.7762 -0.9115
   42MOL   C22814250   1.913   0.431   4.139  0.3594 -0.4006  0.7910
   42MOL   C22914251   1.855   0.504   4.018  0.7792  0.5740 -0.0431
   42MOL   O23014252   1.784   0.599   4.035  0.3107  0.0954  0.3152
   42MOL   H23114253   1.908   0.641   3.620 -2.1066  0.7992  0.6404
   42MOL   H23214254   1.925   0.695   3.789 -1.4268  1.4495 -1.5787
   42MOL   H23314255   1.893   0.406   3.692  1.3206  0.8895 -0.4707
   42MOL   H23414256   1.928   0.248   3.873  1.0841 -0.3767 -1.0620
   42MOL   H23514257   2.067   0.347   3.874 -0.7439  1.7022 -0.4722
   42MOL   H23614258   1.967   0.220   4.120  1.4248  0.1087  2.1344
   42MOL   H23714259   2.094   0.337   4.100 -0.3953 -0.0969  0.0953
   42MOL   H23814260   1.837   0.387   4.203 -0.5089  1.6777  1.2171
   42MOL   H23914261   1.988   0.486   4.196  0.4973  1.6896 -1.3305
   42MOL   C24014262   1.708   0.523   3.730 -0.1501  0.8672  0.0540
   42MOL   C24114263   1.597   0.413   3.734 -0.3633  0.0126 -0.8665
   42MOL   N24214264   1.458   0.454   3.718  0.1609 -0.0229 -0.3158
   42MOL   C24314265   1.355   0.395   3.790  0.1334 -0.3655 -0.8709
   42MOL   C24414266   1.216   0.442   3.736 -0.5685  0.1221  0.3576
   42MOL   C24514267   1.262   0.561   3.649 -0.3309 -0.0618  0.2893
   42MOL   C24614268   1.415   0.554   3.635 -0.7114  0.0263 -0.4109
   42MOL   O24714269   1.486   0.627   3.569 -0.3336 -0.1163  0.0662
   42MOL   H24814270   1.696   0.552   3.626 -1.9071  2.3677  0.6563
   42MOL   H24914271   1.687   0.615   3.784  0.0784  0.9396  0.0233
   42MOL   H25014272   1.618   0.386   3.838 -0.3448  3.0379 -0.0384
   42MOL   H25114273   1.353   0.287   3.803 -0.6167 -0.3354 -0.7573
   42MOL   H25214274   1.368   0.434   3.891  3.3350  0.0025 -1.3622
   42MOL   H25314275   1.180   0.367   3.666 -2.6934  2.3094 -0.9295
   42MOL   H25414276   1.135   0.455   3.808 -2.1837  0.1679 -1.4311
   42MOL   H25514277   1.207   0.557   3.555 -1.3687 -0.2002  0.8928
   42MOL   H25614278   1.229   0.653   3.697  1.4659  1.2004 -0.8525
   42MOL   C25714279   1.619   0.288   3.655 -0.1274 -0.4402  0.2043
   42MOL   C25814280   1.593   0.292   3.505  0.2600  0.5922  0.5481
   42MOL   N25914281   1.684   0.203   3.435  0.3239 -0.0372  0.6614
   42MOL   C26014282   1.669   0.057   3.435  0.0409 -0.2578  0.0971
   42MOL   C26114283   1.769   0.008   3.337 -0.0415  0.4230 -0.1022
   42MOL   C26214284   1.836   0.132   3.271 -0.2696 -0.2913 -1.0080
   42MOL   C26314285   1.789   0.241   3.361  0.5958  0.0340 -0.0868
   42MOL   O26414286   1.828   0.357   3.344 -0.1287  0.3994 -0.0388
   42MOL   H26514287   1.562   0.207   3.701  0.3236 -0.3979  0.8395
   42MOL   H26614288   1.723   0.263   3.675  0.3323  1.0700 -0.2805
   42MOL   H26714289   1.605   0.393   3.465  1.9290  0.8496  1.6559
   42MOL   H26814290   1.666   0.016   3.536  1.4515  0.1843  0.3305
   42MOL   H26914291   1.569   0.027   3.404 -0.6484  1.1919  0.8664
   42MOL   H27014292   1.842   7.852   3.390 -2.1567 -0.3117  2.0485
   42MOL   H27114293   1.723   7.847   3.265 -2.4445  0.9013  0.9203
   42MOL   H27214294   1.942   0.112   3.254 -0.1307  0.9790 -1.7650
   42MOL   H27314295   1.804   0.153   3.169 -2.1033  1.2036 -0.1495
   42MOL   C27414296   1.441   0.253   3.470 -0.0035 -0.5729 -0.4406
   42MOL   C27514297   1.385   0.303   3.336  0.2246 -0.1295  0.0343
   42MOL   N27614298   1.437   0.229   3.221 -0.7718 -0.1776 -0.0359
   42MOL   C27714299   1.517   0.305   3.126  0.0621 -0.7067 -0.0152
   42MOL   C27814300   1.547   0.213   3.009  0.7129  0.3354  0.4702
   42MOL   C27914301   1.497   0.069   3.060  0.2348 -1.1752  0.8860
   42MOL   C28014302   1.426   0.098   3.190 -0.4792 -1.0662  0.5452
   42MOL   O28114303   1.362   0.015   3.249  0.0212 -0.2365 -0.3938
   42MOL   H28214304   1.377   0.300   3.544  0.9725 -0.2896  0.2451
   42MOL   H28314305   1.417   0.149   3.487  0.8331 -1.0436 -2.0286
   42MOL   H28414306   1.425   0.404   3.327 -0.0954 -0.0513 -0.5477
   42MOL   H28514307   1.467   0.389   3.078  0.7540  1.0613  2.3024
   42MOL   H28614308   1.614   0.341   3.161 -0.7464  3.1495 -1.4659
   42MOL   H28714309   1.496   0.236   2.916 -0.5291  1.2999  1.3695
   42MOL   H28814310   1.653   0.218   2.984  0.4587  1.8359 -0.3192
   42MOL   H28914311   1.443   0.016   2.983  1.1694  2.1305 -2.1877
   42MOL   H29014312   1.582   0.005   3.083  2.1332  0.5928 -1.0429
   42MOL   C29114313   1.238   0.293   3.334 -0.1559 -0.1675 -0.3553
   42MOL   C29214314   1.168   0.348   3.202  0.5701 -0.0462 -0.1965
   42MOL   N29314315   1.026   0.298   3.204  0.0354  0.1659 -0.1049
   42MOL   C29414316   1.000   0.186   3.110 -0.2924  0.1907 -0.4606
   42MOL   C29514317   0.873   0.118   3.176 -0.1794 -0.1557  0.4108
   42MOL   C29614318   0.821   0.215   3.287 -0.0077  0.8858  0.2705
   42MOL   C29714319   0.932   0.321   3.304  0.0911 -0.1429  0.3073
   42MOL   O29814320   0.940   0.395   3.402  0.4806  0.7573 -0.5828
   42MOL   H29914321   1.199   0.339   3.426 -1.4440 -1.0049 -0.4675
   42MOL   H30014322   1.200   0.194   3.359  0.9304 -0.2210  1.1516
   42MOL   H30114323   1.214   0.315   3.109  2.3614 -0.6957  0.8946
   42MOL   H30214324   0.965   0.241   3.022 -1.3804  1.7104  0.9038
   42MOL   H30314325   1.090   0.126   3.092  0.3631  1.4188 -1.3720
   42MOL   H30414326   0.795   0.101   3.101  1.3463  0.5854 -1.3984
   42MOL   H30514327   0.895   0.025   3.228  0.9060 -0.3742 -0.4085
   42MOL   H30614328   0.731   0.266   3.251 -0.4959  0.5074  0.9366
   42MOL   H30714329   0.824   0.152   3.376 -0.5025  0.3720 -0.0707
   42MOL   C30814330   1.176   0.503   3.189  0.5073 -0.2511 -0.6062
   42MOL   C30914331   1.109   0.570   3.070 -0.3059 -0.1809 -0.4053
   42MOL   N31014332   1.087   0.712   3.112 -0.5129  0.1884  0.4302
   42MOL   C31114333   1.199   0.800   3.144 -0.1993 -0.2333 -0.2547
   42MOL   C31214334   1.135   0.942   3.151 -0.1866 -0.2435 -0.2208
   42MOL   C31314335   0.981   0.917   3.144  0.0548  0.6577 -0.2222
   42MOL   C31414336   0.974   0.777   3.101 -0.3648 -0.4077 -0.3007
   42MOL   O31514337   0.864   0.729   3.078  0.2639 -0.2314  0.0781
   42MOL   H31614338   1.278   0.540   3.176  1.0787 -0.5220  2.5440
   42MOL   H31714339   1.147   0.547   3.285 -1.0662 -2.3064 -0.1094
   42MOL   H31814340   1.013   0.518   3.067  1.4144 -3.4686 -1.4397
   42MOL   H31914341   1.256   0.772   3.232  0.2685  0.0274 -0.4746
   42MOL   H32014342   1.263   0.786   3.057  0.2460  1.3564 -0.1887
   42MOL   H32114343   1.164   0.985   3.247 -0.8938 -0.1255 -0.0542
   42MOL   H32214344   1.174   0.993   3.063 -2.1682  2.0811  0.1837
   42MOL   H32314345   0.929   0.935   3.238  0.5275  0.2020  0.1277
   42MOL   H32414346   0.938   0.977   3.064 -0.1441 -3.0767 -3.0480
   42MOL   C32514347   1.174   0.539   2.933 -0.4003  0.7120 -0.9309
   42MOL   C32614348   1.104   0.608   2.814  0.0318 -0.0868  0.2315
   42MOL   N32714349   1.131   0.545   2.683 -0.2476  0.3252  0.8808
   42MOL   C32814350   1.043   0.572   2.567  0.4570 -0.0056  0.0254
   42MOL   C32914351   1.107   0.496   2.446  0.0142 -0.5540 -0.1813
   42MOL   C33014352   1.239   0.432   2.494 -0.0712  0.1246 -0.0824
   42MOL   C33114353   1.238   0.467   2.642  0.2881  0.3411 -0.0671
   42MOL   O33214354   1.336   0.443   2.713 -0.0636  0.6391 -0.7222
   42MOL   H33314355   1.192   0.432   2.919 -0.9056  0.5628 -0.4877
   42MOL   H33414356   1.277   0.573   2.945  0.2783 -2.3763  3.2829
   42MOL   H33514357   1.129   0.713   2.807  1.0749 -0.3099  0.5592
   42MOL   H33614358   0.940   0.542   2.585  0.0890 -0.3523 -2.5117
   42MOL   H33714359   1.032   0.677   2.539  0.3285  0.1251  0.5555
   42MOL   H33814360   1.028   0.424   2.423  1.7474 -2.6049  0.0623
   42MOL   H33914361   1.127   0.556   2.357  0.1469 -1.6975 -0.9488
   42MOL   H34014362   1.243   0.326   2.470 -1.5047 -0.3478  1.6887
   42MOL   H34114363   1.325   0.488   2.458 -1.1009  1.3219 -0.7426
   42MOL   H34214364   0.995   0.616   2.812  0.0924  0.4789 -0.9826
   43MOL     C114365   4.756   0.312   0.962  0.5379 -0.2333  0.8959
   43MOL     C214366   4.829   0.390   1.068 -0.4486 -0.0292  0.1499
   43MOL     N314367   4.890   0.291   1.160 -0.6160  0.1183  0.5794
   43MOL     C414368   5.001   0.210   1.119 -0.7680 -0.1138 -0.4542
   43MOL     C514369   5.010   0.096   1.231  0.2113 -0.4580  0.2070
   43MOL     C614370   4.876   0.101   1.302 -0.3257  0.6639  0.8011
   43MOL     C714371   4.827   0.242   1.271  0.0847 -0.5940  0.1556
   43MOL     O814372   4.731   0.296   1.324 -0.1930  1.0533  0.2372
   43MOL     H914373   4.707   0.381   0.894 -0.9528 -1.4818  0.6687
   43MOL    H1014374   4.819   0.241   0.909 -1.6676 -1.6449  0.0571
   43MOL    H1114375   4.754   0.444   1.127 -0.3719 -0.0871  0.3017
   43MOL    H1214376   4.984   0.167   1.020 -0.4593  0.2825 -0.6795
   43MOL    H1314377   5.088   0.273   1.104 -1.0777  0.5891  0.6290
   43MOL    H1414378   5.039   7.902   1.198 -1.3438 -2.0897  3.5005
   43MOL    H1514379   5.094   0.121   1.296 -1.6006  0.6249  2.2112
   43MOL    H1614380   4.806   0.036   1.250 -0.0131 -0.2263  1.4788
   43MOL    H1714381   4.885   0.062   1.403  0.2905 -0.4408  0.3323
   43MOL    H1814382   4.679   0.246   1.003  1.9501 -1.5164  1.5012
   43MOL    C1914383   4.932   0.494   1.025 -1.0146 -0.5302 -0.3499
   43MOL    C2014384   4.874   0.622   0.961  0.6189  0.6204 -0.7891
   43MOL    N2114385   4.862   0.739   1.058  0.0141  0.1971  0.6168
   43MOL    C2214386   4.733   0.767   1.105  0.5388 -0.1237  0.6876
   43MOL    C2314387   4.749   0.888   1.206  0.1809  0.6067  0.5833
   43MOL    C2414388   4.899   0.907   1.218 -0.3407  0.3251  0.3267
   43MOL    C2514389   4.958   0.820   1.108 -0.1889  0.9978 -0.3209
   43MOL    O2614390   5.078   0.823   1.070 -0.1513  0.3754  0.2781
   43MOL    H2714391   5.011   0.453   0.961 -2.3008 -1.6220 -1.2776
   43MOL    H2814392   4.993   0.533   1.106 -1.5909 -0.8159  0.2223
   43MOL    H2914393   4.770   0.600   0.939 -0.3636  0.1803  3.8614
   43MOL    H3014394   4.669   0.791   1.020  1.2375 -1.6736 -0.2782
   43MOL    H3114395   4.700   0.680   1.161 -1.5159  1.4817  2.0558
   43MOL    H3214396   4.709   0.983   1.172  0.7600  0.4180 -0.6568
   43MOL    H3314397   4.707   0.872   1.305 -3.8479 -1.0256 -1.2939
   43MOL    H3414398   4.934   1.010   1.207 -0.4990  0.2316 -1.1101
   43MOL    H3514399   4.932   0.873   1.316 -3.0749 -1.3701  0.6866
   43MOL    C3614400   4.945   0.671   0.826 -0.3370 -0.4263  0.2016
   43MOL    C3714401   4.958   0.580   0.710 -0.4047  0.3978 -0.4549
   43MOL    N3814402   4.827   0.517   0.673  0.0186 -0.0654 -0.2682
   43MOL    C3914403   4.812   0.379   0.635  0.1314 -0.0005 -0.1257
   43MOL    C4014404   4.667   0.343   0.612 -0.0775  0.1207  0.6581
   43MOL    C4114405   4.595   0.478   0.634 -0.0434  0.4800 -0.3874
   43MOL    C4214406   4.708   0.574   0.672 -0.2634 -0.3757 -0.4964
   43MOL    O4314407   4.686   0.693   0.705 -0.1799 -0.0281  0.2958
   43MOL    H4414408   5.048   0.687   0.859 -0.5458  2.2452 -0.2803
   43MOL    H4514409   4.912   0.769   0.790  2.2336  0.8924  1.2419
   43MOL    H4614410   5.029   0.499   0.725 -0.9490  0.0958  0.5686
   43MOL    H4714411   4.872   0.358   0.546  1.5630  0.2654  0.7559
   43MOL    H4814412   4.841   0.305   0.710 -1.7246 -1.0304 -0.3846
   43MOL    H4914413   4.663   0.313   0.507 -0.7660  0.2632  0.6410
   43MOL    H5014414   4.631   0.266   0.680 -0.7517 -0.2796 -0.1514
   43MOL    H5114415   4.561   0.508   0.534  2.3163 -0.4581 -1.5174
   43MOL    H5214416   4.521   0.485   0.713  1.5802 -2.0752  1.4016
   43MOL    C5314417   5.012   0.656   0.586  0.6568  0.0217  0.0898
   43MOL    C5414418   5.144   0.722   0.602 -0.2185  0.2141  0.2354
   43MOL    N5514419   5.244   0.639   0.653  0.2739  0.3845 -0.6639
   43MOL    C5614420   5.316   0.691   0.770  0.2118 -0.5731  0.1021
   43MOL    C5714421   5.402   0.565   0.815 -0.3378 -0.3340  0.2125
   43MOL    C5814422   5.362   0.449   0.722  0.2838  0.3039  0.8505
   43MOL    C5914423   5.270   0.512   0.619 -0.4528  0.7738 -0.2563
   43MOL    O6014424   5.213   0.449   0.533 -0.1593 -0.0956  0.1508
   43MOL    H6114425   4.937   0.730   0.555  0.7705  0.0839 -0.0376
   43MOL    H6214426   4.999   0.591   0.499  2.3012  0.3259 -0.3944
   43MOL    H6314427   5.130   0.803   0.675 -1.3497 -0.3197  0.6145
   43MOL    H6414428   5.376   0.778   0.743  1.2587 -1.2171  0.3217
   43MOL    H6514429   5.247   0.733   0.843 -1.0404 -0.8160 -0.9338
   43MOL    H6614430   5.509   0.585   0.808 -0.9156  2.6807 -1.1822
   43MOL    H6714431   5.386   0.539   0.919 -0.1272 -1.1775  0.0398
   43MOL    H6814432   5.452   0.406   0.678  1.2116  2.6622  0.3765
   43MOL    H6914433   5.301   0.375   0.774 -2.4657  2.3172  0.6026
   43MOL    C7014434   5.184   0.784   0.467 -0.5884 -0.2399 -0.0341
   43MOL    C7114435   5.290   0.899   0.445 -0.4668 -0.1992 -0.5331
   43MOL    N7214436   5.367   0.878   0.324  0.2248  0.0538  0.7210
   43MOL    C7314437   5.502   0.829   0.330 -0.0193 -0.0716 -0.5092
   43MOL    C7414438   5.562   0.854   0.192  0.1073  0.7172  0.1366
   43MOL    C7514439   5.446   0.909   0.104 -0.5384 -0.6962 -0.3054
   43MOL    C7614440   5.328   0.909   0.194 -0.1484 -0.2920 -0.2747
   43MOL    O7714441   5.214   0.944   0.153 -0.0824 -0.5303 -0.6338
   43MOL    H7814442   5.099   0.816   0.407  0.6349 -1.1364 -2.3441
   43MOL    H7914443   5.207   0.698   0.404  0.6292 -0.6914  0.9936
   43MOL    H8014444   5.361   0.886   0.527 -1.2100  0.7948  0.2864
   43MOL    H8114445   5.555   0.877   0.413  1.6404 -0.6657 -1.1961
   43MOL    H8214446   5.495   0.725   0.361 -0.6257 -0.0316 -0.5108
   43MOL    H8314447   5.641   0.924   0.220  0.4023 -0.4526  2.3662
   43MOL    H8414448   5.626   0.772   0.158 -0.9331 -0.5957  1.2700
   43MOL    H8514449   5.470   1.007   0.064 -2.5290  0.8384  2.0771
   43MOL    H8614450   5.415   0.851   0.017 -3.9734  3.2597 -1.8908
   43MOL    C8714451   5.233   1.039   0.453  0.4532  0.6385 -0.0264
   43MOL    C8814452   5.180   1.088   0.586 -0.0542 -0.0213 -0.6938
   43MOL    N8914453   5.287   1.100   0.693  0.2040  0.0842  0.2490
   43MOL    C9014454   5.252   1.079   0.834  0.6141  0.4906  0.0488
   43MOL    C9114455   5.389   1.074   0.916 -0.8303 -0.2336 -0.0476
   43MOL    C9214456   5.499   1.083   0.807  0.4788 -0.0361 -0.7729
   43MOL    C9314457   5.420   1.104   0.680 -0.1277  0.0163 -0.1993
   43MOL    O9414458   5.486   1.108   0.574  0.4268 -0.2574  0.0271
   43MOL    H9514459   5.147   1.026   0.387  0.4255  0.2432  0.0873
   43MOL    H9614460   5.297   1.113   0.404 -0.0622  0.3803 -1.1112
   43MOL    H9714461   5.102   1.014   0.604 -0.6390  1.0327  1.2015
   43MOL    H9814462   5.183   1.158   0.863  0.4894  1.0302 -1.6698
   43MOL    H9914463   5.202   0.983   0.846 -0.5282  1.2784  1.7482
   43MOL   H10014464   5.384   1.147   0.997 -2.2564 -2.3800  1.8726
   43MOL   H10114465   5.404   0.984   0.975  0.6952  0.8081  1.2115
   43MOL   H10214466   5.555   1.175   0.823 -0.7397  0.9975 -2.3340
   43MOL   H10314467   5.568   0.999   0.818 -0.4466 -0.9399 -1.6795
   43MOL   C10414468   5.106   1.219   0.571 -0.4898 -0.7090  0.2356
   43MOL   C10514469   4.972   1.222   0.493 -0.3157  0.0105  0.0378
   43MOL   N10614470   4.868   1.151   0.562 -0.5045 -0.0008 -0.3023
   43MOL   C10714471   4.781   1.068   0.477  0.2313  0.4313 -0.1814
   43MOL   C10814472   4.662   1.030   0.570  1.1425  0.1672 -0.3708
   43MOL   C10914473   4.685   1.111   0.705 -0.2193  0.0728  0.2167
   43MOL   C11014474   4.819   1.176   0.685 -0.3872  0.1981  0.1450
   43MOL   O11114475   4.864   1.255   0.768  0.0917 -0.3834 -0.0912
   43MOL   H11214476   5.177   1.278   0.513  0.0417 -1.1723  0.4051
   43MOL   H11314477   5.093   1.283   0.658 -1.6924 -1.2577  0.4620
   43MOL   H11414478   4.990   1.175   0.396  0.6373  2.0217 -0.8106
   43MOL   H11514479   4.744   1.119   0.388 -0.0757 -0.4067 -0.5344
   43MOL   H11614480   4.842   0.984   0.445  0.8513  0.2200  1.4946
   43MOL   H11714481   4.571   1.060   0.519  1.2636  0.2675 -0.5315
   43MOL   H11814482   4.653   0.923   0.588 -2.9723  0.4265 -0.6282
   43MOL   H11914483   4.699   1.054   0.796  2.1035  3.4617  2.1191
   43MOL   H12014484   4.607   1.186   0.715  0.8187  1.7360 -3.2093
   43MOL   C12114485   4.915   1.366   0.474 -0.0515 -0.2756 -0.1177
   43MOL   C12214486   4.979   1.464   0.371  0.0367  0.3292  0.6118
   43MOL   N12314487   4.948   1.435   0.229  0.0683 -0.6681  0.0892
   43MOL   C12414488   5.062   1.441   0.134 -0.4278  0.3095 -0.0958
   43MOL   C12514489   4.995   1.490   0.007  0.0149 -0.3280 -0.4015
   43MOL   C12614490   4.846   1.438   0.020 -0.3976  0.7114  0.0620
   43MOL   C12714491   4.826   1.426   0.170  0.2227  0.1917  0.5389
   43MOL   O12814492   4.719   1.406   0.224  0.4855  0.7819  0.0579
   43MOL   H12914493   4.921   1.410   0.574 -0.5706  0.3923 -0.3814
   43MOL   H13014494   4.808   1.377   0.459  0.1420  0.2091 -1.1691
   43MOL   H13114495   5.087   1.458   0.381  0.2058 -1.6473 -1.9599
   43MOL   H13214496   5.089   1.335   0.130 -0.8613  0.1608  0.7783
   43MOL   H13314497   5.144   1.501   0.171  0.1980 -0.1276 -0.7614
   43MOL   H13414498   4.995   1.599   0.007  2.7179 -0.3097  0.6580
   43MOL   H13514499   5.044   1.442   7.829 -0.0419  0.2956 -0.7935
   43MOL   H13614500   4.777   1.517   7.899 -1.3922  0.2045  1.1010
   43MOL   H13714501   4.819   1.347   7.873  3.0333  0.2786 -1.0931
   43MOL   C13814502   4.943   1.611   0.397 -0.8380 -0.7630 -0.8417
   43MOL   C13914503   5.017   1.677   0.518  0.7831  0.6025 -0.0634
   43MOL   N14014504   4.956   1.630   0.642  0.1590 -0.3594  0.4529
   43MOL   C14114505   5.040   1.589   0.759 -0.2388 -0.6058  0.3441
   43MOL   C14214506   4.947   1.586   0.879  0.6824 -0.9131  0.4980
   43MOL   C14314507   4.805   1.599   0.818  0.2895 -0.0983 -0.0845
   43MOL   C14414508   4.826   1.648   0.677 -0.5175 -0.0811 -0.0282
   43MOL   O14514509   4.738   1.698   0.608  0.8437 -0.3330 -0.0185
   43MOL   H14614510   4.837   1.631   0.404 -0.5178  1.2038 -1.1840
   43MOL   H14714511   4.970   1.666   0.307 -2.9890  0.5740 -0.7049
   43MOL   H14814512   4.994   1.783   0.523 -0.1091  0.3785  0.7990
   43MOL   H14914513   5.086   1.491   0.748  0.3164 -0.2956 -0.1436
   43MOL   H15014514   5.124   1.655   0.778 -1.8722  1.5879  0.1380
   43MOL   H15114515   4.957   1.498   0.942 -1.4739  1.4314  4.2310
   43MOL   H15214516   4.970   1.672   0.942 -1.7204 -0.8662  1.3397
   43MOL   H15314517   4.750   1.670   0.879 -1.0827 -0.9786 -0.2838
   43MOL   H15414518   4.750   1.505   0.808 -1.7696  1.1082 -0.2629
   43MOL   C15514519   5.169   1.659   0.514  0.4236  0.0058 -0.1837
   43MOL   C15614520   5.252   1.732   0.414 -0.5099 -0.4699  0.1713
   43MOL   N15714521   5.202   1.870   0.396  0.3386  0.1766 -0.6479
   43MOL   C15814522   5.165   1.906   0.263  0.0809  0.2701  0.0176
   43MOL   C15914523   5.113   2.050   0.272 -0.3474  0.0101 -0.3221
   43MOL   C16014524   5.145   2.100   0.415 -0.7583 -0.0085 -0.4726
   43MOL   C16114525   5.198   1.974   0.486  0.3427 -0.9178  0.7865
   43MOL   O16214526   5.242   1.969   0.600  0.1478 -0.2548 -0.9497
   43MOL   H16314527   5.184   1.551   0.512  1.1358  0.0968  0.0471
   43MOL   H16414528   5.206   1.695   0.610 -1.6604 -2.5060  1.6423
   43MOL   H16514529   5.243   1.672   0.323  1.8071 -2.1692  1.0111
   43MOL   H16614530   5.260   1.895   0.210  0.6802 -2.6657  1.5741
   43MOL   H16714531   5.091   1.841   0.215 -1.1843  0.7928  1.2427
   43MOL   H16814532   5.152   2.114   0.193 -0.8158 -1.8753 -2.1122
   43MOL   H16914533   5.005   2.055   0.260 -0.4676 -1.6972 -0.0641
   43MOL   H17014534   5.227   2.171   0.425 -0.4201 -0.2960 -1.1204
   43MOL   H17114535   5.054   2.133   0.465 -0.4104  0.4072 -0.1122
   43MOL   C17214536   5.401   1.725   0.443  0.0519 -0.0004 -0.0591
   43MOL   C17314537   5.471   1.591   0.466  1.0480 -0.8088  0.0877
   43MOL   N17414538   5.464   1.504   0.341 -0.1848 -0.4269 -0.0435
   43MOL   C17514539   5.423   1.365   0.355 -0.1126  0.4289  0.5668
   43MOL   C17614540   5.450   1.297   0.216 -0.1297 -0.0483  0.8944
   43MOL   C17714541   5.537   1.401   0.132  0.1331  1.0531  0.1111
   43MOL   C17814542   5.536   1.518   0.228 -0.7363  0.2463 -0.4510
   43MOL   O17914543   5.602   1.624   0.206  0.2788 -0.1465 -0.6886
   43MOL   H18014544   5.418   1.789   0.530 -1.7337 -0.1661  0.4467
   43MOL   H18114545   5.456   1.782   0.368 -1.2847  2.5023  0.7958
   43MOL   H18214546   5.407   1.533   0.533  1.9233 -2.0253 -0.1111
   43MOL   H18314547   5.481   1.310   0.428  0.6169  0.2082 -0.1674
   43MOL   H18414548   5.317   1.366   0.382  0.1954 -1.5279  1.9425
   43MOL   H18514549   5.354   1.286   0.166  0.4298  1.2763 -0.5166
   43MOL   H18614550   5.506   1.205   0.233 -0.5503 -0.8646 -1.9627
   43MOL   H18714551   5.636   1.355   0.125 -1.4375 -2.6973  1.2417
   43MOL   H18814552   5.510   1.426   0.030  0.0825  1.3321  0.1921
   43MOL   C18914553   5.616   1.599   0.513 -0.0949 -0.0983 -0.5480
   43MOL   C19014554   5.644   1.673   0.642  0.5660 -0.0755 -0.3112
   43MOL   N19114555   5.548   1.643   0.753 -0.1411 -0.7758  0.2548
   43MOL   C19214556   5.481   1.752   0.822  0.2657  0.4649  0.0806
   43MOL   C19314557   5.407   1.685   0.933 -0.1817 -0.5213 -0.0613
   43MOL   C19414558   5.428   1.531   0.924 -0.7620  0.2157 -0.1424
   43MOL   C19514559   5.528   1.523   0.808  0.0743 -0.9870  0.0174
   43MOL   O19614560   5.567   1.419   0.768 -0.2082 -0.0479  0.4593
   43MOL   H19714561   5.677   1.646   0.435 -0.1929  0.1967 -0.4489
   43MOL   H19814562   5.661   1.500   0.509  0.1945 -0.0512  1.2444
   43MOL   H19914563   5.641   1.780   0.622 -2.3065 -0.5790 -2.9559
   43MOL   H20014564   5.559   1.819   0.859  0.1816  0.3957  0.3898
   43MOL   H20114565   5.418   1.820   0.765 -1.9058 -0.7273  1.0073
   43MOL   H20214566   5.439   1.729   1.028  0.1168  0.9941 -0.8382
   43MOL   H20314567   5.301   1.714   0.933  0.2106  1.0545  1.3107
   43MOL   H20414568   5.449   1.487   1.021 -0.1912  0.6195 -0.0785
   43MOL   H20514569   5.334   1.484   0.896 -0.8807 -1.1337  2.4177
   43MOL   C20614570   5.780   1.641   0.702 -0.0645  0.6513 -0.2953
   43MOL   C20714571   5.903   1.666   0.607 -0.4826 -0.3671 -0.1294
   43MOL   N20814572   5.913   1.807   0.564  0.3723  0.4108  0.1355
   43MOL   C20914573   5.884   1.852   0.427  0.5122  0.1366 -0.4791
   43MOL   C21014574   5.924   1.997   0.412  0.7529  0.1535  0.0514
   43MOL   C21114575   5.955   2.042   0.557  0.3017 -0.2901  0.4101
   43MOL   C21214576   5.932   1.916   0.641 -0.2065 -0.0159  0.4310
   43MOL   O21314577   5.950   1.917   0.764 -0.7313  0.7671  0.3225
   43MOL   H21414578   5.792   1.535   0.720 -0.0900  0.4830 -1.2307
   43MOL   H21514579   5.788   1.696   0.796 -1.5420  1.1237 -0.4190
   43MOL   H21614580   5.896   1.615   0.511  1.9863  1.4236 -1.3024
   43MOL   H21714581   5.941   1.789   0.358 -1.7303 -0.6127 -1.6951
   43MOL   H21814582   5.781   1.846   0.394  0.1008  1.5508  0.4996
   43MOL   H21914583   6.013   2.010   0.350  1.7117  0.2156  1.4024
   43MOL   H22014584   5.841   2.054   0.371  1.2917  0.8742 -0.0372
   43MOL   H22114585   6.058   2.076   0.566  0.7247 -1.5545  0.3661
   43MOL   H22214586   5.872   2.106   0.589  0.7266  2.0456 -2.8119
   43MOL   C22314587   6.040   1.608   0.653 -0.0289  0.0706 -0.2971
   43MOL   C22414588   6.056   1.462   0.704 -0.3696  0.9148 -0.4848
   43MOL   N22514589   5.979   1.362   0.625 -0.3454 -0.1874  0.3198
   43MOL   C22614590   5.882   1.275   0.692  0.1525  0.1175  0.3884
   43MOL   C22714591   5.806   1.215   0.579 -0.1431 -0.5010 -0.3131
   43MOL   C22814592   5.893   1.225   0.454 -0.4890 -0.7756 -0.0761
   43MOL   C22914593   5.996   1.328   0.494  0.4661  0.2742 -0.4716
   43MOL   O23014594   6.070   1.377   0.407  1.2008  0.3215 -0.3599
   43MOL   H23114595   6.084   1.673   0.728 -0.5279 -2.0797  1.9529
   43MOL   H23214596   6.109   1.635   0.573 -0.2610 -0.3685 -0.6508
   43MOL   H23314597   6.016   1.453   0.805 -0.4657  1.5843 -0.4638
   43MOL   H23414598   5.939   1.194   0.739  1.0340  0.2000 -0.4982
   43MOL   H23514599   5.811   1.319   0.761 -0.0225 -0.4294  0.5596
   43MOL   H23614600   5.786   1.110   0.598 -0.0901 -0.4375  0.1066
   43MOL   H23714601   5.716   1.277   0.575 -1.1231 -1.8108  0.9822
   43MOL   H23814602   5.945   1.131   0.439  0.0641 -0.6388  0.9701
   43MOL   H23914603   5.833   1.252   0.367 -0.8505  0.4113  0.5282
   43MOL   C24014604   6.202   1.409   0.715  0.3914 -0.1711 -0.3521
   43MOL   C24114605   6.300   1.509   0.778 -0.3216  0.1475 -0.4429
   43MOL   N24214606   6.258   1.526   0.913 -0.0946 -0.0474 -0.8585
   43MOL   C24314607   6.224   1.651   0.970  0.0978  0.0914 -0.0851
   43MOL   C24414608   6.185   1.626   1.118 -0.0593  0.0782  0.1703
   43MOL   C24514609   6.216   1.482   1.151  0.1555  0.5692  0.3132
   43MOL   C24614610   6.258   1.431   1.013 -0.2160  0.1957  0.3502
   43MOL   O24714611   6.290   1.310   1.010 -0.2341  0.1418 -0.1850
   43MOL   H24814612   6.241   1.394   0.614  0.7312 -1.9808  0.0348
   43MOL   H24914613   6.203   1.308   0.755 -1.8305 -0.0284  0.1538
   43MOL   H25014614   6.287   1.609   0.737 -0.3312  0.3202 -0.0242
   43MOL   H25114615   6.304   1.725   0.979  0.2995 -0.4632  3.5964
   43MOL   H25214616   6.146   1.700   0.912 -1.6958 -1.1347  1.2180
   43MOL   H25314617   6.240   1.690   1.187  0.6703 -0.1725 -0.1740
   43MOL   H25414618   6.080   1.651   1.137  0.2444  0.0315  2.0267
   43MOL   H25514619   6.300   1.477   1.221  1.0072  0.1122 -0.7278
   43MOL   H25614620   6.126   1.434   1.190 -0.5412  0.6508 -1.1532
   43MOL   C25714621   6.451   1.477   0.753 -0.2911 -0.0660 -0.3154
   43MOL   C25814622   6.499   1.488   0.606 -0.2279 -0.1293 -0.5216
   43MOL   N25914623   6.488   1.628   0.561 -0.5551 -0.6262 -0.3454
   43MOL   C26014624   6.396   1.667   0.450  0.0259  0.1548  0.5868
   43MOL   C26114625   6.387   1.820   0.456 -0.6563  0.2123  0.9179
   43MOL   C26214626   6.486   1.868   0.564  0.1269  0.1310  0.0052
   43MOL   C26314627   6.554   1.733   0.606  0.0548 -0.4233 -0.6607
   43MOL   O26414628   6.658   1.729   0.669  0.4378  0.3880 -0.0882
   43MOL   H26514629   6.476   1.374   0.780  1.6548  0.9730  1.9766
   43MOL   H26614630   6.500   1.541   0.826 -2.2808  0.1724  0.8673
   43MOL   H26714631   6.436   1.433   0.537  0.1835  2.2727 -2.9172
   43MOL   H26814632   6.429   1.632   0.352  1.0166 -1.3365  1.4303
   43MOL   H26914633   6.302   1.617   0.470 -0.1536  0.2759  0.0452
   43MOL   H27014634   6.414   1.864   0.360  1.5099  2.8346  2.6340
   43MOL   H27114635   6.287   1.859   0.475 -0.0760  2.2545 -0.0820
   43MOL   H27214636   6.555   1.931   0.508  0.5897 -1.4732 -1.2595
   43MOL   H27314637   6.449   1.911   0.658  0.6351  2.7689 -0.9638
   43MOL   C27414638   6.640   1.427   0.588  0.1338 -0.7924  0.5832
   43MOL   C27514639   6.658   1.280   0.620  0.5432  0.8365  0.2151
   43MOL   N27614640   6.569   1.204   0.537 -0.0861  0.6301 -0.3483
   43MOL   C27714641   6.481   1.109   0.598  0.0224 -0.0256 -0.1289
   43MOL   C27814642   6.429   1.013   0.489  0.0046 -0.9917  0.0057
   43MOL   C27914643   6.450   1.091   0.362 -0.2337  0.1068  0.6069
   43MOL   C28014644   6.555   1.197   0.400  0.1407  0.4823  0.6627
   43MOL   O28114645   6.619   1.261   0.316 -0.4098 -0.2662 -0.4213
   43MOL   H28214646   6.702   1.475   0.664  0.7839 -0.6643 -0.0249
   43MOL   H28314647   6.683   1.458   0.493 -0.5421 -0.6468  0.3214
   43MOL   H28414648   6.633   1.260   0.724  0.6414 -0.6658 -0.0390
   43MOL   H28514649   6.517   1.052   0.684  0.8938  1.4010  0.4685
   43MOL   H28614650   6.389   1.159   0.629 -1.1518 -1.8372 -0.6357
   43MOL   H28714651   6.495   0.927   0.495 -1.0767 -1.7679  0.9427
   43MOL   H28814652   6.327   0.976   0.503 -0.9174  1.1317 -0.8892
   43MOL   H28914653   6.500   1.021   0.296  0.9466  0.6729  0.8975
   43MOL   H29014654   6.364   1.142   0.318  0.4824  1.2634  0.5048
   43MOL   C29114655   6.797   1.213   0.598  0.1264 -0.3318  0.2099
   43MOL   C29214656   6.915   1.281   0.668 -0.2641 -0.0188 -0.0664
   43MOL   N29314657   6.893   1.325   0.808 -0.0307  0.4649  0.5545
   43MOL   C29414658   6.921   1.459   0.844  0.0984 -0.7766 -0.4843
   43MOL   C29514659   6.867   1.496   0.983  0.6779  0.3920  0.2141
   43MOL   C29614660   6.817   1.360   1.029  0.1130  0.2486 -0.1958
   43MOL   C29714661   6.834   1.257   0.913  0.1967  0.5134 -0.2480
   43MOL   O29814662   6.783   1.143   0.917 -0.3931 -0.0993 -0.2356
   43MOL   H29914663   6.817   1.212   0.491  1.5413 -1.5926  0.4633
   43MOL   H30014664   6.786   1.109   0.628  0.7395 -0.5655 -0.3428
   43MOL   H30114665   6.941   1.365   0.603  0.5274  1.0402  1.5944
   43MOL   H30214666   7.030   1.460   0.846  0.0704 -0.2111  1.5780
   43MOL   H30314667   6.892   1.538   0.776 -0.1466  0.5107  1.0790
   43MOL   H30414668   6.939   1.543   1.049  1.3046  0.6410 -0.6430
   43MOL   H30514669   6.785   1.567   0.970  0.6289 -0.0111 -1.9942
   43MOL   H30614670   6.884   1.328   1.108  2.6831  3.4815 -1.0042
   43MOL   H30714671   6.714   1.360   1.066  0.3840  1.2737  0.5844
   43MOL   C30814672   7.041   1.186   0.654  0.2892  0.2421 -0.0430
   43MOL   C30914673   7.125   1.209   0.525  0.0120  0.0421 -0.0710
   43MOL   N31014674   7.154   1.348   0.492  0.8032  0.1242 -0.1078
   43MOL   C31114675   7.110   1.403   0.362  0.4992  0.6757 -0.7439
   43MOL   C31214676   7.129   1.556   0.371 -0.2601  0.3482 -0.5312
   43MOL   C31314677   7.198   1.585   0.501  0.0727  0.1164 -0.1639
   43MOL   C31414678   7.191   1.447   0.573  0.9524 -0.5907  0.1251
   43MOL   O31514679   7.213   1.441   0.692 -0.0783 -0.3188  0.3564
   43MOL   H31614680   7.012   1.080   0.654  0.3665  0.2063 -1.2965
   43MOL   H31714681   7.101   1.203   0.743  1.4193  0.4854 -0.8353
   43MOL   H31814682   7.057   1.177   0.445 -1.0305 -1.0830  1.2407
   43MOL   H31914683   7.174   1.370   0.280  1.0031 -1.4384  0.4534
   43MOL   H32014684   7.008   1.370   0.341  1.0827 -1.4693 -0.3740
   43MOL   H32114685   7.182   1.598   0.285  0.9751  0.5451  0.3004
   43MOL   H32214686   7.029   1.599   0.367 -0.1093  0.7397 -0.0571
   43MOL   H32314687   7.304   1.602   0.483  0.3196 -1.6280 -0.4857
   43MOL   H32414688   7.154   1.662   0.565  1.4954  0.9466 -0.1676
   43MOL   C32514689   7.243   1.120   0.525  0.0785  0.1468  0.1457
   43MOL   C32614690   7.333   1.119   0.399  0.0696  0.1512 -0.3656
   43MOL   N32714691   7.286   1.024   0.307 -0.3247  0.1991  0.2440
   43MOL   C32814692   7.338   0.891   0.305  0.5690  0.2804 -0.0825
   43MOL   C32914693   7.303   0.838   0.172  0.4376 -0.0114 -0.3053
   43MOL   C33014694   7.196   0.928   0.107  0.2353 -0.3355 -0.1025
   43MOL   C33114695   7.198   1.044   0.204 -0.0369  0.9155 -0.2780
   43MOL   O33214696   7.119   1.131   0.185  0.5296 -0.0031  0.2481
   43MOL   H33314697   7.215   1.015   0.539 -4.1618  0.7448 -3.0030
   43MOL   H33414698   7.304   1.158   0.607  0.6477  2.1133 -1.1450
   43MOL   H33514699   7.438   1.108   0.426  0.4119  1.6775 -1.0251
   43MOL   H33614700   7.445   0.894   0.326  0.5306 -2.7413  0.7149
   43MOL   H33714701   7.288   0.832   0.382  0.4908  0.2746 -0.1381
   43MOL   H33814702   7.399   0.826   0.121  0.5035  0.8953 -0.4082
   43MOL   H33914703   7.265   0.736   0.182 -0.0095  0.3132  1.4017
   43MOL   H34014704   7.227   0.963   0.008 -0.0630 -0.4209 -0.2278
   43MOL   H34114705   7.099   0.879   0.099  0.7648 -1.1022 -2.1588
   43MOL   H34214706   7.332   1.219   0.356 -1.5891  0.2905 -0.0300
   44MOL     C114707   6.581   0.763   1.398  0.7523 -0.8238  0.4086
   44MOL     C214708   6.645   0.885   1.472 -0.7529 -0.0585 -0.1004
   44MOL     N314709   6.765   0.937   1.412 -0.3211  0.0050 -0.3342
   44MOL     C414710   6.789   0.926   1.272  1.4741 -0.7371 -0.5193
   44MOL     C514711   6.906   1.015   1.239  0.6796 -0.8279 -0.0886
   44MOL     C614712   6.963   1.063   1.376  0.2072 -0.4906  0.4799
   44MOL     C714713   6.860   1.009   1.469  0.2165  0.0340 -0.4060
   44MOL     O814714   6.864   1.027   1.590 -0.3241 -0.0102 -0.2263
   44MOL     H914715   6.658   0.694   1.362 -0.4455 -1.8626 -0.1980
   44MOL    H1014716   6.504   0.709   1.453 -0.7549  2.5639  1.7640
   44MOL    H1114717   6.669   0.861   1.575 -0.4093 -2.9644 -0.8213
   44MOL    H1214718   6.798   0.822   1.239 -0.6356 -0.3918 -2.3299
   44MOL    H1314719   6.695   0.961   1.229  1.0392 -2.4997 -1.0668
   44MOL    H1414720   6.976   0.957   1.179  0.6687  0.0921 -0.9989
   44MOL    H1514721   6.849   1.093   1.189  0.2212 -0.1292  1.4899
   44MOL    H1614722   7.060   1.017   1.394 -0.0338 -0.8038  1.0103
   44MOL    H1714723   6.968   1.171   1.369  0.6637 -0.4159  1.8314
   44MOL    H1814724   6.534   0.788   1.303  0.3281  2.4762  1.4384
   44MOL    C1914725   6.536   1.001   1.485  0.2850 -0.2216  0.1669
   44MOL    C2014726   6.513   1.107   1.372  0.4544  0.1537 -0.5545
   44MOL    N2114727   6.466   1.049   1.241 -0.2852 -0.5841  0.0658
   44MOL    C2214728   6.513   1.113   1.116 -0.2329  0.5210 -0.4861
   44MOL    C2314729   6.459   1.031   0.995  0.1034 -0.3527 -0.3849
   44MOL    C2414730   6.340   0.952   1.058 -0.3333 -0.7407 -0.1377
   44MOL    C2514731   6.351   0.976   1.211  0.3185  0.2595  0.0425
   44MOL    O2614732   6.265   0.940   1.291 -0.3507  0.1293 -0.2065
   44MOL    H2714733   6.572   1.062   1.568  1.8674  0.4331 -0.9667
   44MOL    H2814734   6.443   0.959   1.523  1.7581 -1.7358  2.2393
   44MOL    H2914735   6.606   1.163   1.362 -0.5637  1.9505 -0.0230
   44MOL    H3014736   6.490   1.219   1.124  2.1526  1.1044 -0.9777
   44MOL    H3114737   6.622   1.119   1.107 -0.4377  0.4650 -3.4008
   44MOL    H3214738   6.423   1.102   0.920  2.0594 -0.8995 -1.8687
   44MOL    H3314739   6.535   0.969   0.949 -0.6021 -2.3761  1.1128
   44MOL    H3414740   6.246   0.987   1.015  0.6002  1.1126 -0.6865
   44MOL    H3514741   6.335   0.846   1.032 -0.1277 -1.3127  2.0654
   44MOL    C3614742   6.403   1.203   1.418 -0.2843  0.5895  0.2227
   44MOL    C3714743   6.436   1.312   1.521 -0.0980 -0.0110  0.2449
   44MOL    N3814744   6.571   1.371   1.496  0.3831  0.3941  0.0963
   44MOL    C3914745   6.676   1.363   1.600 -0.0477 -0.2360  0.2801
   44MOL    C4014746   6.816   1.407   1.540 -0.6514  0.2264  0.1229
   44MOL    C4114747   6.781   1.464   1.405 -0.1580  0.2538  0.8829
   44MOL    C4214748   6.627   1.426   1.387 -0.5919 -0.3284 -0.6342
   44MOL    O4314749   6.566   1.464   1.291 -0.4587  0.5778  0.0512
   44MOL    H4414750   6.323   1.141   1.459  0.1849 -0.5122 -0.4800
   44MOL    H4514751   6.360   1.242   1.325  1.1406 -0.6578 -0.9986
   44MOL    H4614752   6.434   1.255   1.613  2.8086  0.2123  0.4819
   44MOL    H4714753   6.636   1.428   1.678 -2.6156 -1.8741  0.4025
   44MOL    H4814754   6.674   1.262   1.639  0.9496 -0.9241 -1.3839
   44MOL    H4914755   6.864   1.480   1.605  2.3009  0.3843 -2.1601
   44MOL    H5014756   6.882   1.321   1.538  0.0634  0.6762  2.4892
   44MOL    H5114757   6.796   1.571   1.391  0.0620  0.0023 -0.8918
   44MOL    H5214758   6.830   1.410   1.324 -1.0369 -0.8363  1.0614
   44MOL    C5314759   6.334   1.425   1.520  0.0095 -0.2388 -0.2593
   44MOL    C5414760   6.354   1.544   1.617 -0.3254 -0.0339  0.1486
   44MOL    N5514761   6.285   1.668   1.566  0.0931  0.0062 -0.3563
   44MOL    C5614762   6.357   1.790   1.542  0.4025  0.0204  0.9156
   44MOL    C5714763   6.245   1.888   1.503  0.3973  0.9754  0.1288
   44MOL    C5814764   6.126   1.801   1.474 -0.8051 -1.0493  0.1392
   44MOL    C5914765   6.164   1.667   1.514  0.6399  0.2686  0.0087
   44MOL    O6014766   6.086   1.569   1.501  0.0752  0.5229  0.5323
   44MOL    H6114767   6.232   1.385   1.522  0.1797 -0.6681  2.3071
   44MOL    H6214768   6.342   1.474   1.424  0.5124 -1.2404 -0.7303
   44MOL    H6314769   6.461   1.565   1.616 -0.2029 -0.7223 -1.5363
   44MOL    H6414770   6.400   1.817   1.639  0.8965  1.9847  0.1728
   44MOL    H6514771   6.435   1.776   1.468  0.5282  0.3906  0.9790
   44MOL    H6614772   6.211   1.941   1.592 -1.6548  2.7307 -1.6410
   44MOL    H6714773   6.274   1.962   1.429 -0.0085 -0.6413 -1.6715
   44MOL    H6814774   6.029   1.844   1.499  0.1614  1.4466 -0.2662
   44MOL    H6914775   6.131   1.787   1.366 -0.4275  2.4713 -0.3697
   44MOL    C7014776   6.322   1.509   1.767 -0.4337  0.4031  0.0085
   44MOL    C7114777   6.176   1.465   1.811 -0.0600  0.0076 -0.1284
   44MOL    N7214778   6.149   1.332   1.766  0.4764 -0.2233  0.4795
   44MOL    C7314779   6.023   1.309   1.698 -0.5361 -0.8173  0.3491
   44MOL    C7414780   6.019   1.158   1.654  0.5015  0.3691  0.3731
   44MOL    C7514781   6.133   1.099   1.728  0.5198 -0.4285  0.7249
   44MOL    C7614782   6.211   1.210   1.789  0.3101  0.4600 -0.7008
   44MOL    O7714783   6.317   1.193   1.847 -0.4292  0.3504  0.3428
   44MOL    H7814784   6.341   1.602   1.821  1.5946 -1.3766  2.5382
   44MOL    H7914785   6.396   1.436   1.800  1.8063  2.5273 -0.1867
   44MOL    H8014786   6.098   1.525   1.764  0.4732  1.3660  0.6774
   44MOL    H8114787   5.947   1.343   1.768 -0.0501  0.4402  0.2827
   44MOL    H8214788   6.019   1.375   1.611  0.0945  2.8918  3.0142
   44MOL    H8314789   5.925   1.108   1.678  0.9357 -0.0106  1.2794
   44MOL    H8414790   6.023   1.151   1.545 -0.4420 -0.9483  0.4071
   44MOL    H8514791   6.114   1.027   1.807  0.3443 -1.9149 -0.6449
   44MOL    H8614792   6.195   1.051   1.652 -3.8368 -0.3923 -3.0404
   44MOL    C8714793   6.150   1.486   1.958  0.8432 -0.1643 -0.0127
   44MOL    C8814794   6.139   1.630   2.006  0.1744  0.4076 -0.7167
   44MOL    N8914795   6.029   1.707   1.940 -0.3571  0.1404 -0.6876
   44MOL    C9014796   5.895   1.671   1.951 -0.4381  0.8437 -0.2419
   44MOL    C9114797   5.817   1.781   1.887  0.0724  0.1618 -0.2556
   44MOL    C9214798   5.920   1.864   1.812  0.3327  0.5087 -0.6161
   44MOL    C9314799   6.048   1.808   1.861  0.0207 -0.8796  0.3125
   44MOL    O9414800   6.152   1.854   1.823 -0.7691 -0.3278 -0.7202
   44MOL    H9514801   6.234   1.437   2.006  0.1974  1.3608  2.7493
   44MOL    H9614802   6.058   1.434   1.986  0.4198  0.6862  0.1863
   44MOL    H9714803   6.226   1.692   1.985 -0.0941  1.0913  0.1434
   44MOL    H9814804   5.857   1.581   1.902 -1.2523 -0.3843  2.5337
   44MOL    H9914805   5.880   1.673   2.059  2.0298 -0.4027  0.1572
   44MOL   H10014806   5.738   1.746   1.821 -0.2141 -0.7504  0.5556
   44MOL   H10114807   5.757   1.828   1.965  1.4722  0.9383  0.3761
   44MOL   H10214808   5.907   1.867   1.704 -3.2709 -0.5957 -0.2778
   44MOL   H10314809   5.927   1.966   1.850  3.0010  0.5211 -1.0331
   44MOL   C10414810   6.132   1.624   2.161 -0.8011 -0.3827 -0.5137
   44MOL   C10514811   6.112   1.760   2.219 -0.3984  0.6547 -0.1389
   44MOL   N10614812   6.044   1.745   2.350  0.0344  0.2167 -0.8705
   44MOL   C10714813   5.927   1.819   2.378  0.1067 -0.0993 -0.4285
   44MOL   C10814814   5.880   1.794   2.523  0.2119 -0.0642  0.6101
   44MOL   C10914815   5.975   1.675   2.567 -0.0592  0.1339 -0.2444
   44MOL   C11014816   6.079   1.666   2.453 -0.6449  1.0099 -0.0026
   44MOL   O11114817   6.176   1.591   2.463 -0.1391 -0.0376 -0.3078
   44MOL   H11214818   6.228   1.589   2.201 -0.6754  0.0447 -0.4351
   44MOL   H11314819   6.045   1.567   2.191 -0.1758 -2.0262 -1.7602
   44MOL   H11414820   6.048   1.815   2.151 -1.1477  0.2307  0.2184
   44MOL   H11514821   5.948   1.925   2.365  1.3220 -0.2698  0.0843
   44MOL   H11614822   5.841   1.788   2.319 -0.4820  0.2247  0.2647
   44MOL   H11714823   5.915   1.882   2.577  0.3186 -0.1432  0.6725
   44MOL   H11814824   5.772   1.786   2.526  0.2418 -0.6941  0.1236
   44MOL   H11914825   5.910   1.588   2.562 -3.6955  2.7295 -0.6707
   44MOL   H12014826   6.031   1.683   2.660  1.4600 -1.2090 -1.0335
   44MOL   C12114827   6.240   1.836   2.239 -0.1482  0.2521  1.4052
   44MOL   C12214828   6.216   1.979   2.295  0.1592  0.0202 -0.6241
   44MOL   N12314829   6.344   2.034   2.338  0.2314 -0.2291 -0.2037
   44MOL   C12414830   6.383   2.015   2.474  0.5779 -0.9218  0.2853
   44MOL   C12514831   6.536   2.048   2.486 -0.4970  0.5931 -0.2494
   44MOL   C12614832   6.545   2.144   2.363  0.2725  0.2022  0.1421
   44MOL   C12714833   6.440   2.089   2.267 -0.3545  0.0174  0.2557
   44MOL   O12814834   6.446   2.116   2.144  0.7418  0.6861 -0.1811
   44MOL   H12914835   6.303   1.839   2.149 -3.0932  1.4410 -0.6790
   44MOL   H13014836   6.307   1.785   2.309 -2.1174 -0.1683  3.0069
   44MOL   H13114837   6.155   1.967   2.384  2.4272  0.3704  1.0259
   44MOL   H13214838   6.366   1.917   2.519 -0.5825 -0.8885 -0.0681
   44MOL   H13314839   6.334   2.080   2.546 -0.1019 -0.3386 -0.7075
   44MOL   H13414840   6.560   2.098   2.579 -2.5742 -0.3604  0.8037
   44MOL   H13514841   6.585   1.950   2.485  2.3310  1.9396 -0.0623
   44MOL   H13614842   6.516   2.247   2.386  1.6761  0.9014 -1.1203
   44MOL   H13714843   6.648   2.155   2.329  0.2054  2.7345  0.6597
   44MOL   C13814844   6.130   2.073   2.204 -0.6206  0.0427  0.3552
   44MOL   C13914845   6.127   2.221   2.245 -0.5677 -0.2625  0.0961
   44MOL   N14014846   6.076   2.296   2.129  0.0308 -0.0472  0.5281
   44MOL   C14114847   6.174   2.378   2.065 -0.1969 -0.2261  0.3553
   44MOL   C14214848   6.121   2.409   1.923 -0.6927  0.2509 -0.2253
   44MOL   C14314849   5.981   2.346   1.916 -0.4682  0.3408 -0.0225
   44MOL   C14414850   5.966   2.285   2.055 -0.7334  0.0695  0.3761
   44MOL   O14514851   5.865   2.224   2.085  0.3774 -0.1683  0.3619
   44MOL   H14614852   6.036   2.020   2.196 -0.5091 -0.0663 -0.2484
   44MOL   H14714853   6.165   2.068   2.101 -0.4405 -0.7119  0.4528
   44MOL   H14814854   6.226   2.262   2.265 -0.8376 -1.6385  4.9545
   44MOL   H14914855   6.199   2.471   2.116  1.2814  0.5576 -1.6965
   44MOL   H15014856   6.262   2.314   2.059 -0.5702 -0.8018  0.9991
   44MOL   H15114857   6.140   2.515   1.904 -2.6999  0.5585 -0.5452
   44MOL   H15214858   6.184   2.357   1.850  0.2869  2.2015 -0.8075
   44MOL   H15314859   5.947   2.282   1.835 -0.4258  0.8958 -0.4851
   44MOL   H15414860   5.906   2.425   1.909 -1.3146 -0.2351  2.2783
   44MOL   C15514861   6.039   2.233   2.366 -0.1241  0.0244 -0.5081
   44MOL   C15614862   6.047   2.361   2.456 -1.1103 -0.8172 -0.5967
   44MOL   N15714863   5.934   2.364   2.554  0.1337  0.6708  0.2064
   44MOL   C15814864   5.848   2.476   2.565  0.7583 -0.3376  0.1207
   44MOL   C15914865   5.756   2.446   2.684  0.1399  0.0760 -0.4513
   44MOL   C16014866   5.811   2.308   2.747 -0.0091 -0.7582  0.0045
   44MOL   C16114867   5.913   2.267   2.645  0.5270  0.0586 -0.1827
   44MOL   O16214868   5.981   2.164   2.662  0.9372  0.1893  0.1366
   44MOL   H16314869   6.071   2.157   2.438 -2.7806 -0.8524 -0.1915
   44MOL   H16414870   5.933   2.217   2.345 -0.1484 -0.1839 -0.2233
   44MOL   H16514871   6.049   2.453   2.397  2.3694 -1.0286 -0.9546
   44MOL   H16614872   5.900   2.569   2.590 -0.9679  0.5584  0.4056
   44MOL   H16714873   5.784   2.488   2.478 -2.5976 -2.8709  2.1389
   44MOL   H16814874   5.755   2.519   2.766 -1.5614 -0.1809 -0.2244
   44MOL   H16914875   5.651   2.443   2.656 -0.2321 -1.9121  1.0191
   44MOL   H17014876   5.866   2.329   2.839 -0.7548 -1.3443  0.5985
   44MOL   H17114877   5.735   2.230   2.762 -0.3654 -0.6706 -1.3139
   44MOL   C17214878   6.186   2.363   2.522  0.2354 -0.6887 -1.0987
   44MOL   C17314879   6.212   2.477   2.628  0.3843  0.8078  0.1978
   44MOL   N17414880   6.311   2.434   2.726  0.9801 -0.0751 -0.6138
   44MOL   C17514881   6.299   2.478   2.868  0.4690 -0.1576 -0.0538
   44MOL   C17614882   6.419   2.404   2.932  0.0715  0.2935  0.1182
   44MOL   C17714883   6.515   2.364   2.816 -0.5342 -0.7016 -0.7405
   44MOL   C17814884   6.429   2.386   2.694 -0.0084 -0.4055 -0.2328
   44MOL   O17914885   6.458   2.347   2.583  0.3516  0.2816  0.2627
   44MOL   H18014886   6.264   2.358   2.446 -0.3748  1.7806 -1.9423
   44MOL   H18114887   6.203   2.270   2.575  0.1405 -1.6916 -2.7837
   44MOL   H18214888   6.121   2.477   2.688  0.5285  1.8129  0.4256
   44MOL   H18314889   6.323   2.583   2.882  0.6308 -0.3881  1.5338
   44MOL   H18414890   6.208   2.455   2.923  0.5110  0.1415  0.1377
   44MOL   H18514891   6.370   2.314   2.966 -1.3265  1.1344  0.3645
   44MOL   H18614892   6.458   2.446   3.025 -0.3613 -1.6059  1.1833
   44MOL   H18714893   6.593   2.439   2.802 -2.3152  1.1312 -1.0142
   44MOL   H18814894   6.563   2.266   2.824 -0.3257 -0.4695  1.0375
   44MOL   C18914895   6.238   2.614   2.558 -0.8060  0.2095  0.1469
   44MOL   C19014896   6.239   2.745   2.648 -0.6610  0.2616  0.1887
   44MOL   N19114897   6.292   2.859   2.569 -0.0479  0.1777 -0.1703
   44MOL   C19214898   6.435   2.891   2.576 -0.2256  0.1709  0.5073
   44MOL   C19314899   6.457   2.993   2.465 -0.3045 -0.3030  0.1096
   44MOL   C19414900   6.319   3.035   2.413  0.4323 -0.4716  0.3743
   44MOL   C19514901   6.228   2.932   2.479  0.4525  0.0199 -0.1067
   44MOL   O19614902   6.109   2.918   2.444  0.7528 -0.6850 -0.4765
   44MOL   H19714903   6.167   2.639   2.480  0.8237  0.7353 -1.1855
   44MOL   H19814904   6.337   2.601   2.514  0.0542  1.5140  1.6338
   44MOL   H19914905   6.308   2.734   2.732 -2.1176  1.1193  1.5087
   44MOL   H20014906   6.443   2.940   2.673 -1.1190 -0.5397  0.9554
   44MOL   H20114907   6.492   2.799   2.568  1.5055  1.4039 -1.8502
   44MOL   H20214908   6.526   3.071   2.495 -0.0195  0.2776 -1.9772
   44MOL   H20314909   6.512   2.953   2.380 -0.4428  0.4666 -0.3482
   44MOL   H20414910   6.301   3.139   2.441 -0.4649 -0.3402 -0.6585
   44MOL   H20514911   6.318   3.036   2.304  0.2593  2.6674  0.3407
   44MOL   C20614912   6.097   2.763   2.715  0.7281 -0.0659  0.1956
   44MOL   C20714913   6.084   2.887   2.804  0.6752 -0.4650 -0.9904
   44MOL   N20814914   5.943   2.923   2.812  0.0130  0.3554  0.4495
   44MOL   C20914915   5.896   3.042   2.746 -0.4604  0.3791 -0.2676
   44MOL   C21014916   5.746   3.049   2.777 -0.7482  0.2732  0.6492
   44MOL   C21114917   5.720   2.943   2.884 -0.5871 -0.1736  0.3272
   44MOL   C21214918   5.846   2.855   2.874  0.0033 -0.5827  0.2883
   44MOL   O21314919   5.844   2.746   2.925  0.6411  0.3536  0.1547
   44MOL   H21414920   6.073   2.678   2.778 -0.0215 -0.6071 -0.8075
   44MOL   H21514921   6.019   2.771   2.640  0.1551  1.8010  0.9497
   44MOL   H21614922   6.134   2.966   2.747 -0.8924  1.0761 -0.2705
   44MOL   H21714923   5.945   3.126   2.796 -1.3137 -0.4780  2.0532
   44MOL   H21814924   5.917   3.034   2.639  1.1806  0.1448  0.0630
   44MOL   H21914925   5.722   3.148   2.817  2.0346  1.1933  0.1937
   44MOL   H22014926   5.689   3.032   2.686  0.5116  4.2459 -1.0138
   44MOL   H22114927   5.719   2.982   2.986  1.4223  1.6403 -0.3177
   44MOL   H22214928   5.628   2.887   2.873 -0.6945 -0.1780  1.1616
   44MOL   C22314929   6.155   2.873   2.941 -0.4985  0.1203  0.1487
   44MOL   C22414930   6.166   3.016   3.009  0.5623  0.3471  0.7894
   44MOL   N22514931   6.136   3.016   3.153  0.2346  0.0350 -0.9599
   44MOL   C22614932   6.012   3.080   3.197  0.5585  0.0680  0.4095
   44MOL   C22714933   6.004   3.048   3.348  0.2280 -0.7828 -0.2145
   44MOL   C22814934   6.135   2.973   3.383  0.0443  0.3333 -1.1199
   44MOL   C22914935   6.208   2.952   3.253 -0.2559  0.0423  0.2091
   44MOL   O23014936   6.317   2.896   3.238  0.2920  0.3627 -0.8741
   44MOL   H23114937   6.256   2.836   2.921 -1.0899 -1.9483  0.8037
   44MOL   H23214938   6.106   2.797   3.003  1.6401 -0.6043  1.0242
   44MOL   H23314939   6.084   3.079   2.976 -0.5293 -0.3019  2.2039
   44MOL   H23414940   6.009   3.185   3.172 -0.0511  0.2168  1.0715
   44MOL   H23514941   5.925   3.033   3.152  0.3622  3.1308 -2.5411
   44MOL   H23614942   5.990   3.136   3.411  0.6778 -0.0003 -1.1895
   44MOL   H23714943   5.929   2.973   3.370 -0.6021  0.6570  1.9909
   44MOL   H23814944   6.180   3.040   3.457  0.3076  0.5421 -1.4665
   44MOL   H23914945   6.109   2.883   3.438 -1.4357  0.5701 -1.3844
   44MOL   C24014946   6.304   3.091   2.984  0.8070 -0.0313  0.0342
   44MOL   C24114947   6.298   3.249   2.968 -0.5123 -0.0987  0.3214
   44MOL   N24214948   6.419   3.317   2.937  0.0846 -1.0668  0.2052
   44MOL   C24314949   6.514   3.352   3.043  0.4086  0.0182 -0.6832
   44MOL   C24414950   6.629   3.421   2.974  0.0885  0.3723 -0.0861
   44MOL   C24514951   6.617   3.380   2.830 -0.1441 -0.6694  0.3034
   44MOL   C24614952   6.478   3.326   2.817  0.3470  0.6154  0.0615
   44MOL   O24714953   6.427   3.290   2.707 -0.8762  0.5174  0.1402
   44MOL   H24814954   6.343   3.046   2.893  0.7491  0.5338 -0.2715
   44MOL   H24914955   6.369   3.055   3.065  0.9097 -0.7688 -0.3711
   44MOL   H25014956   6.282   3.292   3.066 -0.0040 -2.2842  1.3989
   44MOL   H25114957   6.471   3.425   3.112  0.3921 -0.0383 -0.6341
   44MOL   H25214958   6.551   3.262   3.093  1.9572  0.0705 -1.6844
   44MOL   H25314959   6.613   3.529   2.976  0.7864  0.4593  0.9560
   44MOL   H25414960   6.726   3.399   3.018  0.9956  2.8116 -0.7917
   44MOL   H25514961   6.638   3.469   2.770 -0.8897  1.7020  3.3893
   44MOL   H25614962   6.680   3.294   2.808  0.2154 -0.1795 -0.6008
   44MOL   C25714963   6.185   3.298   2.873  0.1836 -0.2116 -0.2502
   44MOL   C25814964   6.165   3.442   2.819  0.5074 -0.4663  0.5028
   44MOL   N25914965   6.044   3.450   2.734 -0.1136 -0.6523  0.1509
   44MOL   C26014966   6.067   3.450   2.591  0.0131 -0.8724  0.7229
   44MOL   C26114967   5.923   3.459   2.532 -0.2726  0.2527 -0.4745
   44MOL   C26214968   5.825   3.408   2.629 -0.2194  0.0655 -0.0745
   44MOL   C26314969   5.920   3.409   2.760  0.2913 -0.2446 -0.8403
   44MOL   O26414970   5.876   3.368   2.864 -0.0973 -0.1960 -0.0420
   44MOL   H26514971   6.093   3.278   2.926 -0.0869 -2.9328 -1.6145
   44MOL   H26614972   6.181   3.231   2.786  0.4159 -0.4605 -0.0718
   44MOL   H26714973   6.250   3.463   2.754  0.8218 -1.4976  0.5739
   44MOL   H26814974   6.134   3.530   2.560 -1.6794  0.8253  1.3373
   44MOL   H26914975   6.105   3.352   2.565 -0.6714 -1.0992  0.5570
   44MOL   H27014976   5.895   3.563   2.515  1.1330  0.6884 -0.2325
   44MOL   H27114977   5.917   3.405   2.438 -0.6967 -0.6986  0.0894
   44MOL   H27214978   5.749   3.484   2.641 -0.7982  0.0625 -3.2459
   44MOL   H27314979   5.788   3.308   2.604 -1.0326  0.7089 -1.4582
   44MOL   C27414980   6.162   3.556   2.930 -0.4571 -0.2830 -0.9635
   44MOL   C27514981   6.178   3.700   2.882 -0.2902 -0.0002 -0.3071
   44MOL   N27614982   6.100   3.791   2.971  0.2058 -0.2822  0.7810
   44MOL   C27714983   6.043   3.909   2.906 -0.9217 -0.2963 -0.3829
   44MOL   C27814984   5.987   3.994   3.020 -0.0922 -0.0811 -0.1555
   44MOL   C27914985   6.064   3.940   3.145  0.2164  0.1919  0.0338
   44MOL   C28014986   6.116   3.801   3.103 -0.1931 -0.1919  0.3745
   44MOL   O28114987   6.169   3.722   3.183  0.4521  0.1664 -0.1963
   44MOL   H28214988   6.240   3.529   3.000  0.8788  3.8411 -0.7264
   44MOL   H28314989   6.069   3.537   2.984 -0.3548 -2.1962 -1.4113
   44MOL   H28414990   6.121   3.709   2.790  0.0559  2.6173 -0.3102
   44MOL   H28514991   6.126   3.954   2.852 -1.4304 -1.3672 -2.0913
   44MOL   H28614992   5.962   3.889   2.836  0.0709 -0.3599 -1.5119
   44MOL   H28714993   5.995   4.100   2.996 -1.2017  0.5027  1.9095
   44MOL   H28814994   5.882   3.967   3.034  0.3077 -0.8592  1.3762
   44MOL   H28914995   6.151   3.998   3.176  1.0486 -0.7841 -0.4423
   44MOL   H29014996   6.003   3.924   3.234  0.3857 -1.4619 -0.1322
   44MOL   C29114997   6.318   3.761   2.874  0.0044 -0.1553 -0.3122
   44MOL   C29214998   6.409   3.725   2.755 -0.4606 -0.4619 -0.0288
   44MOL   N29314999   6.341   3.709   2.628 -0.1598 -0.6664 -0.3311
   44MOL   C29415000   6.387   3.603   2.536 -0.3863  0.3782  0.4360
   44MOL   C29515001   6.342   3.649   2.398  0.3151 -0.3070  0.0521
   44MOL   C29615002   6.231   3.756   2.419 -0.8477  0.4155 -0.0221
   44MOL   C29715003   6.258   3.794   2.565  0.0573 -0.4551 -0.5633
   44MOL   O29815004   6.207   3.892   2.614  0.5261  0.0015  0.1845
   44MOL   H29915005   6.369   3.720   2.962 -3.4867  1.6063  2.6869
   44MOL   H30015006   6.328   3.870   2.881 -3.6830  0.2973 -1.2988
   44MOL   H30115007   6.445   3.624   2.777  3.0389  1.2589  2.5768
   44MOL   H30215008   6.495   3.588   2.543 -0.2658  0.9789 -0.1038
   44MOL   H30315009   6.337   3.509   2.559 -1.3138  0.5668 -0.8131
   44MOL   H30415010   6.428   3.674   2.336 -0.4727 -0.5951 -1.1698
   44MOL   H30515011   6.300   3.565   2.343 -0.3488  0.3967 -0.5221
   44MOL   H30615012   6.265   3.831   2.348 -1.8561 -0.6922 -1.7230
   44MOL   H30715013   6.131   3.715   2.404 -0.7011 -0.4344  1.2302
   44MOL   C30815014   6.532   3.818   2.742 -0.4738 -0.0988 -0.6643
   44MOL   C30915015   6.634   3.842   2.856  0.2996 -0.3370 -0.0476
   44MOL   N31015016   6.776   3.820   2.805 -0.6062 -0.3347 -0.7213
   44MOL   C31115017   6.837   3.916   2.718  0.1965  0.5997  0.4568
   44MOL   C31215018   6.950   3.849   2.651 -0.0585  0.9159 -0.2796
   44MOL   C31315019   6.968   3.717   2.730 -0.5489 -0.1939  0.2954
   44MOL   C31415020   6.853   3.712   2.823 -1.1674 -0.1040  0.3156
   44MOL   O31515021   6.839   3.619   2.899  0.4326  0.6827  0.5142
   44MOL   H31615022   6.505   3.920   2.713 -0.2134 -0.0474 -0.7224
   44MOL   H31715023   6.592   3.781   2.660  1.0707  0.7841  0.0482
   44MOL   H31815024   6.623   3.762   2.928  0.6217 -1.1245 -0.8596
   44MOL   H31915025   6.765   3.942   2.641 -0.1858 -1.6255  0.0261
   44MOL   H32015026   6.858   4.011   2.768  1.8541  1.6961 -2.2365
   44MOL   H32115027   6.938   3.833   2.543  0.5143 -0.5904 -0.1274
   44MOL   H32215028   7.037   3.914   2.662 -0.2719  1.2594 -0.5714
   44MOL   H32315029   6.984   3.630   2.666  2.6084  0.6923 -0.2311
   44MOL   H32415030   7.057   3.723   2.793  0.1325 -0.7406 -0.6078
   44MOL   C32515031   6.619   3.981   2.923  0.2256 -0.0996  0.0284
   44MOL   C32615032   6.683   3.995   3.064 -0.2280  0.4363  0.8975
   44MOL   N32715033   6.623   3.908   3.158  0.0382  0.0271  0.4229
   44MOL   C32815034   6.711   3.807   3.222 -0.1554 -0.2135 -0.4110
   44MOL   C32915035   6.625   3.740   3.325 -0.2588 -0.7012  0.9837
   44MOL   C33015036   6.480   3.763   3.283 -0.3020  0.1577 -0.7136
   44MOL   C33115037   6.496   3.888   3.192  0.4262 -0.6519 -0.5704
   44MOL   O33215038   6.407   3.957   3.142 -0.1539 -0.1765  0.3272
   44MOL   H33315039   6.513   3.999   2.936  0.1502 -0.8536  0.4934
   44MOL   H33415040   6.650   4.060   2.855 -3.6129  1.5597  0.0834
   44MOL   H33515041   6.675   4.098   3.097 -0.2602  1.7834 -3.0059
   44MOL   H33615042   6.748   3.734   3.150 -0.0394 -0.9505  0.3918
   44MOL   H33715043   6.795   3.857   3.269  0.6348 -0.8859 -1.0823
   44MOL   H33815044   6.654   3.636   3.340 -2.0796 -1.1066  1.7199
   44MOL   H33915045   6.630   3.795   3.419 -1.0831  1.6153 -0.3064
   44MOL   H34015046   6.428   3.691   3.220 -1.2445  1.3059 -1.2721
   44MOL   H34115047   6.419   3.779   3.372 -0.7646 -2.2256 -0.5811
   44MOL   H34215048   6.791   3.981   3.061 -0.2679 -0.0215  1.5821
   45MOL     C115049   2.569   1.618   5.587 -0.0445  0.2671  0.8532
   45MOL     C215050   2.672   1.644   5.474 -0.2414  0.4315 -0.3262
   45MOL     N315051   2.696   1.518   5.396  0.0792  0.1100  0.2464
   45MOL     C415052   2.829   1.462   5.382 -0.1967  0.4091 -0.8747
   45MOL     C515053   2.817   1.329   5.302  0.2433 -0.1824  0.3009
   45MOL     C615054   2.684   1.342   5.238 -0.5619 -0.3061  0.3421
   45MOL     C715055   2.613   1.451   5.318 -0.0402  0.2138  0.1403
   45MOL     O815056   2.496   1.484   5.298  0.2859  0.0482 -0.1574
   45MOL     H915057   2.470   1.599   5.546  0.0082 -0.4506  1.0575
   45MOL    H1015058   2.604   1.532   5.643 -2.2522 -1.6487 -0.6293
   45MOL    H1115059   2.760   1.657   5.538 -1.4646  2.4202  0.9987
   45MOL    H1215060   2.893   1.537   5.337  0.2288  2.1900  2.5568
   45MOL    H1315061   2.858   1.440   5.485 -3.8321 -0.3311  0.0681
   45MOL    H1415062   2.890   1.312   5.223 -1.4791  0.7256 -1.5427
   45MOL    H1515063   2.822   1.239   5.363  1.8592 -0.8818 -0.8388
   45MOL    H1615064   2.696   1.368   5.133  0.0822  0.5726  0.6301
   45MOL    H1715065   2.630   1.248   5.248 -0.1976 -0.5453  0.0853
   45MOL    H1815066   2.569   1.701   5.658  1.3483 -0.0298  1.2120
   45MOL    C1915067   2.641   1.764   5.382  0.2244  1.0287  0.0307
   45MOL    C2015068   2.655   1.902   5.447  0.6249 -0.3622  0.7733
   45MOL    N2115069   2.788   1.918   5.500 -0.3441  0.4492  0.0758
   45MOL    C2215070   2.814   1.985   5.628  0.5339  0.1332  0.2252
   45MOL    C2315071   2.966   2.016   5.624 -0.6807 -0.4080  0.9052
   45MOL    C2415072   3.026   1.917   5.533 -0.0825  0.5323 -0.5969
   45MOL    C2515073   2.910   1.884   5.444  0.0999 -0.7492 -0.3872
   45MOL    O2615074   2.930   1.826   5.340 -0.3538 -0.1412  0.2768
   45MOL    H2715075   2.546   1.746   5.331 -0.3290 -0.2071  1.4563
   45MOL    H2815076   2.710   1.765   5.297 -0.4742 -0.8601 -0.6006
   45MOL    H2915077   2.597   1.906   5.539  0.9520  0.3904  0.9546
   45MOL    H3015078   2.747   2.070   5.632 -1.2234 -0.9455 -4.0809
   45MOL    H3115079   2.784   1.915   5.706  0.2979  0.5277  0.4906
   45MOL    H3215080   2.975   2.113   5.574 -3.3033 -1.3776 -1.6373
   45MOL    H3315081   3.008   2.023   5.724 -0.5649  0.1629  0.8195
   45MOL    H3415082   3.109   1.964   5.480  0.7126  1.3479  1.3178
   45MOL    H3515083   3.049   1.825   5.587  1.0940  0.8213 -0.5901
   45MOL    C3615084   2.628   2.017   5.351  0.3481  0.8534 -0.0043
   45MOL    C3715085   2.484   2.026   5.301 -0.9735  0.5317  0.5624
   45MOL    N3815086   2.385   2.034   5.409 -0.3238  0.0260 -0.0755
   45MOL    C3915087   2.267   1.948   5.385  0.2767 -0.3572 -0.1406
   45MOL    C4015088   2.154   1.997   5.480 -0.7526  0.3447  0.3992
   45MOL    C4115089   2.231   2.089   5.578 -0.7362 -0.3335  0.4835
   45MOL    C4215090   2.369   2.111   5.519  0.1932  0.0301 -0.9690
   45MOL    O4315091   2.465   2.162   5.587  0.5561  0.0422  0.5256
   45MOL    H4415092   2.705   2.001   5.276  1.5799  0.5269  1.3006
   45MOL    H4515093   2.649   2.110   5.404 -0.0153  1.7158 -1.3407
   45MOL    H4615094   2.464   1.937   5.241  1.6607  0.1285  0.2089
   45MOL    H4715095   2.239   1.961   5.280 -0.3293 -0.3068  0.0253
   45MOL    H4815096   2.299   1.847   5.411  2.5574  0.1876 -0.6723
   45MOL    H4915097   2.079   2.060   5.431  0.6170  0.7278 -1.2319
   45MOL    H5015098   2.102   1.912   5.525 -0.3429 -0.7735 -1.1731
   45MOL    H5115099   2.183   2.182   5.608  0.8773 -0.0951  2.4413
   45MOL    H5215100   2.244   2.035   5.671 -0.5084  0.4781  0.9229
   45MOL    C5315101   2.478   2.150   5.213  0.4794 -0.2085 -0.1210
   45MOL    C5415102   2.364   2.153   5.117  0.0762  0.7548  0.5060
   45MOL    N5515103   2.373   2.279   5.047  0.1888 -0.5346  0.2646
   45MOL    C5615104   2.273   2.378   5.073  0.0570 -0.0821  1.2209
   45MOL    C5715105   2.294   2.478   4.951  0.5821  0.0594 -0.4444
   45MOL    C5815106   2.427   2.442   4.892 -0.2712 -0.3230 -0.3668
   45MOL    C5915107   2.461   2.308   4.951 -0.1189  0.2550  0.3094
   45MOL    O6015108   2.551   2.239   4.906  0.0290 -0.6036 -0.0714
   45MOL    H6115109   2.576   2.144   5.165 -0.3323 -3.3445 -1.5201
   45MOL    H6215110   2.490   2.241   5.271 -1.5273  0.8621 -1.3386
   45MOL    H6315111   2.275   2.158   5.180 -0.8446 -1.0997 -0.6087
   45MOL    H6415112   2.171   2.339   5.076  0.7513 -2.2456 -1.3345
   45MOL    H6515113   2.287   2.432   5.167 -1.3855 -0.3180  1.5845
   45MOL    H6615114   2.218   2.457   4.876  0.8852 -0.2258 -0.6705
   45MOL    H6715115   2.294   2.582   4.986 -0.1425  0.5061 -1.7145
   45MOL    H6815116   2.427   2.438   4.783  0.5207  0.9776 -0.4232
   45MOL    H6915117   2.503   2.518   4.911 -0.2391 -0.1084 -1.3158
   45MOL    C7015118   2.359   2.028   5.017 -0.7569 -0.1736  0.1280
   45MOL    C7115119   2.238   2.025   4.914  0.1803  0.1945 -0.1349
   45MOL    N7215120   2.237   1.900   4.838  0.1853 -0.0235  0.8650
   45MOL    C7315121   2.302   1.898   4.702 -0.3954 -0.7772  0.6328
   45MOL    C7415122   2.303   1.754   4.648  0.3695 -0.6503 -0.0320
   45MOL    C7515123   2.230   1.674   4.756 -0.2471 -0.1079 -0.5248
   45MOL    C7615124   2.197   1.777   4.867  0.3834 -0.3639 -0.1687
   45MOL    O7715125   2.131   1.743   4.967  0.1367  0.2428 -0.3485
   45MOL    H7815126   2.355   1.936   5.075  0.6516  1.1666  2.4046
   45MOL    H7915127   2.456   2.018   4.968 -0.9399 -1.0997 -0.0620
   45MOL    H8015128   2.239   2.102   4.837 -2.7511  1.4184  0.9893
   45MOL    H8115129   2.239   1.960   4.638  0.7236  1.4728  1.6585
   45MOL    H8215130   2.401   1.945   4.706 -1.1815  1.0742 -0.7137
   45MOL    H8315131   2.251   1.736   4.554 -0.2912 -0.5356  0.3064
   45MOL    H8415132   2.406   1.717   4.649  0.7648  0.4684  1.1799
   45MOL    H8515133   2.136   1.628   4.729  0.9679 -3.4900  0.8051
   45MOL    H8615134   2.291   1.591   4.792  0.8504  0.4943 -0.9493
   45MOL    C8715135   2.098   2.042   4.985 -0.3600  0.0617 -0.6812
   45MOL    C8815136   1.967   2.051   4.903 -0.4118 -0.5504 -0.1974
   45MOL    N8915137   1.847   2.005   4.976 -0.2357  0.7961  0.5444
   45MOL    C9015138   1.791   1.880   4.925 -0.2844  0.2015 -0.7515
   45MOL    C9115139   1.695   1.827   5.035 -0.5439  0.3042 -0.2243
   45MOL    C9215140   1.737   1.910   5.156  0.2406  0.3784  0.4948
   45MOL    C9315141   1.813   2.022   5.105 -1.1143  0.0471  0.2979
   45MOL    O9415142   1.859   2.115   5.177 -0.2934 -0.0904 -0.3854
   45MOL    H9515143   2.089   2.132   5.046 -3.6236 -0.2198 -0.6869
   45MOL    H9615144   2.094   1.964   5.061  1.3709  1.6073  1.0617
   45MOL    H9715145   1.978   1.982   4.820 -0.3911  0.8195 -1.3592
   45MOL    H9815146   1.732   1.899   4.835  1.0543  0.6117 -1.5686
   45MOL    H9915147   1.861   1.804   4.891 -1.1949 -1.2816  0.6344
   45MOL   H10015148   1.589   1.830   5.012 -0.3281 -0.3723 -1.3196
   45MOL   H10115149   1.714   1.721   5.054  1.3630  0.0652 -3.1837
   45MOL   H10215150   1.657   1.935   5.225 -0.0525  0.6794  0.0441
   45MOL   H10315151   1.793   1.852   5.229 -1.0603 -1.2838  0.2150
   45MOL   C10415152   1.948   2.191   4.832  0.2322 -0.2542 -0.3140
   45MOL   C10515153   1.830   2.211   4.730 -0.3036  0.6675  0.4672
   45MOL   N10615154   1.712   2.285   4.790 -0.5418  0.0431 -0.3080
   45MOL   C10715155   1.578   2.229   4.791 -0.0895 -0.7217  0.2442
   45MOL   C10815156   1.487   2.345   4.836 -0.9908  0.5138 -0.2898
   45MOL   C10915157   1.575   2.460   4.874  0.2159 -0.4267 -1.0211
   45MOL   C11015158   1.711   2.410   4.836 -0.2701 -0.1305 -0.1608
   45MOL   O11115159   1.810   2.489   4.836  0.1996  0.2350  1.0403
   45MOL   H11215160   2.041   2.229   4.790  0.0685  1.3829  0.7096
   45MOL   H11315161   1.926   2.256   4.917  1.6127 -0.0544 -0.0879
   45MOL   H11415162   1.782   2.116   4.707 -2.2817  1.9111 -0.6339
   45MOL   H11515163   1.558   2.192   4.690 -1.8703 -1.2135  0.7562
   45MOL   H11615164   1.579   2.155   4.871 -3.7214 -1.2066 -0.0701
   45MOL   H11715165   1.417   2.374   4.757 -0.7193  1.0034 -0.3544
   45MOL   H11815166   1.419   2.325   4.919 -0.2921  3.1501  0.9867
   45MOL   H11915167   1.555   2.497   4.975 -2.4865 -0.4864 -1.4796
   45MOL   H12015168   1.558   2.548   4.812 -1.0737 -1.7195 -2.5236
   45MOL   C12115169   1.875   2.262   4.590  1.0305 -0.5926  0.2635
   45MOL   C12215170   1.966   2.168   4.506  0.6145  0.3233 -0.1080
   45MOL   N12315171   1.904   2.035   4.498 -0.5525  0.3396 -0.3314
   45MOL   C12415172   1.990   1.922   4.523 -0.6558 -1.1028 -0.3232
   45MOL   C12515173   1.907   1.796   4.491 -0.0516  0.1750  0.0893
   45MOL   C12615174   1.773   1.851   4.427  0.2213 -0.0116 -0.4274
   45MOL   C12715175   1.784   2.004   4.451 -0.4276  0.0868 -0.6228
   45MOL   O12815176   1.691   2.076   4.421 -0.7635 -0.5375 -0.0992
   45MOL   H12915177   1.931   2.352   4.616 -1.3177  1.1289 -0.4485
   45MOL   H13015178   1.785   2.280   4.532  2.6727  0.5443 -2.0061
   45MOL   H13115179   2.067   2.157   4.545  0.1632  0.3718  1.0998
   45MOL   H13215180   2.007   1.914   4.630 -0.8694 -0.6547 -0.2558
   45MOL   H13315181   2.085   1.929   4.469 -0.0032  1.0096  1.0366
   45MOL   H13415182   1.957   1.716   4.436 -1.9912 -0.0231 -1.4436
   45MOL   H13515183   1.882   1.756   4.589  0.8527  0.2832  0.3669
   45MOL   H13615184   1.764   1.822   4.322  0.0555 -0.0372 -0.4054
   45MOL   H13715185   1.683   1.826   4.483 -0.2854 -1.2675 -1.7716
   45MOL   C13815186   1.978   2.217   4.360  0.6470  0.9917 -0.5014
   45MOL   C13915187   2.082   2.334   4.331  0.2985  0.0900  0.6095
   45MOL   N14015188   2.220   2.309   4.384  0.3225 -0.2216  0.2983
   45MOL   C14115189   2.292   2.431   4.437  0.0234 -0.0179  0.4125
   45MOL   C14215190   2.434   2.371   4.473 -0.2678 -0.0987  0.3857
   45MOL   C14315191   2.416   2.224   4.472 -0.8586 -0.5939  0.1223
   45MOL   C14415192   2.287   2.197   4.396  0.3877 -0.9883 -0.0684
   45MOL   O14515193   2.262   2.082   4.369  0.6184  0.1835 -0.0200
   45MOL   H14615194   1.878   2.230   4.320  0.9196  1.1442 -1.1559
   45MOL   H14715195   2.013   2.140   4.291  0.7123  0.1308  0.4929
   45MOL   H14815196   2.043   2.424   4.377  0.0322  0.1984  0.1703
   45MOL   H14915197   2.304   2.505   4.358  0.7829  1.1128  1.5627
   45MOL   H15015198   2.232   2.459   4.523 -2.0085 -2.0989 -0.2795
   45MOL   H15115199   2.499   2.401   4.391  0.1656  0.9626  1.1011
   45MOL   H15215200   2.465   2.417   4.567 -2.5798  0.7861  0.7469
   45MOL   H15315201   2.400   2.195   4.576 -3.7600  0.2024 -0.0641
   45MOL   H15415202   2.503   2.163   4.446  0.1339  0.0050  1.8999
   45MOL   C15515203   2.074   2.370   4.179 -0.4333 -0.0536  0.2718
   45MOL   C15615204   2.133   2.267   4.085 -0.4241  0.1696  0.3309
   45MOL   N15715205   2.034   2.233   3.979  0.3439  0.0150 -0.6090
   45MOL   C15815206   1.952   2.108   3.992  0.5721  0.1992 -0.8069
   45MOL   C15915207   1.907   2.075   3.843  0.3372 -0.0393 -0.1496
   45MOL   C16015208   1.937   2.196   3.763 -0.1348 -0.0438  0.5882
   45MOL   C16115209   2.021   2.281   3.854  0.3009  0.4024 -0.6176
   45MOL   O16215210   2.078   2.382   3.812  0.1286  0.6783 -0.4709
   45MOL   H16315211   2.099   2.471   4.145 -3.2519  0.6095  0.0829
   45MOL   H16415212   1.966   2.364   4.165 -0.4747 -2.4105  1.4166
   45MOL   H16515213   2.145   2.173   4.140  1.1706 -0.7230 -1.4483
   45MOL   H16615214   2.015   2.034   4.041 -1.5773  0.2367  2.1984
   45MOL   H16715215   1.867   2.116   4.060  1.5973  0.2503  0.5015
   45MOL   H16815216   1.960   1.991   3.798 -0.6347  0.0761 -1.5318
   45MOL   H16915217   1.799   2.059   3.841  0.1337  1.2932 -0.4555
   45MOL   H17015218   1.980   2.188   3.664 -1.6762 -1.1609 -0.0088
   45MOL   H17115219   1.844   2.248   3.741 -0.1528  0.9045  2.7327
   45MOL   C17215220   2.274   2.314   4.035 -1.2067  0.3259 -0.5015
   45MOL   C17315221   2.351   2.213   3.946 -0.1355 -0.0175  0.7565
   45MOL   N17415222   2.491   2.268   3.921  0.0370 -0.2346 -0.4206
   45MOL   C17515223   2.507   2.340   3.796  0.7852 -0.1355  0.4817
   45MOL   C17615224   2.656   2.367   3.782 -0.2470  0.3361 -0.1548
   45MOL   C17715225   2.716   2.339   3.925 -0.1151  0.0260 -0.0069
   45MOL   C17815226   2.603   2.280   3.998  0.0306  0.9605  0.9726
   45MOL   O17915227   2.621   2.226   4.107  0.6187 -0.1218 -0.5017
   45MOL   H18015228   2.338   2.325   4.123 -1.8480 -1.1227  0.1730
   45MOL   H18115229   2.258   2.405   3.977 -2.4721  0.5523  0.1731
   45MOL   H18215230   2.291   2.209   3.855  0.5311  0.6748  0.2808
   45MOL   H18315231   2.468   2.294   3.706 -0.6753 -0.0187  1.0320
   45MOL   H18415232   2.449   2.432   3.806  0.8474 -0.1105  0.6207
   45MOL   H18515233   2.675   2.466   3.740  1.0841 -0.2217 -0.8666
   45MOL   H18615234   2.693   2.290   3.715 -2.1055  0.5541 -1.4914
   45MOL   H18715235   2.804   2.275   3.925 -1.9212 -2.5207  0.7685
   45MOL   H18815236   2.740   2.434   3.972  2.5080 -1.0646  0.9097
   45MOL   C18915237   2.367   2.067   3.982 -0.3720 -0.3973  0.3552
   45MOL   C19015238   2.349   1.967   3.861 -0.1811 -0.0513 -0.0334
   45MOL   N19115239   2.420   2.000   3.737  0.6572 -0.1392  0.1534
   45MOL   C19215240   2.333   2.020   3.622 -0.4575  0.0568  0.0244
   45MOL   C19315241   2.430   2.058   3.518 -0.1129  0.3010  0.5986
   45MOL   C19415242   2.573   2.044   3.567  0.2852  0.0537 -0.9644
   45MOL   C19515243   2.553   2.003   3.710 -0.1235  0.6559 -0.2387
   45MOL   O19615244   2.647   1.973   3.780  0.5270  0.0327  0.3593
   45MOL   H19715245   2.283   2.037   4.045  0.8431 -0.4777  1.9846
   45MOL   H19815246   2.455   2.049   4.045 -0.2512  2.3278  1.0596
   45MOL   H19915247   2.243   1.969   3.836  0.0990 -2.3912 -1.5694
   45MOL   H20015248   2.272   1.934   3.596 -2.4307  0.8198  1.9869
   45MOL   H20115249   2.262   2.099   3.644  1.5165  2.0740 -0.6564
   45MOL   H20215250   2.414   2.001   3.426  0.8080  0.9090  0.0496
   45MOL   H20315251   2.419   2.158   3.477 -0.5598 -0.4003 -1.0432
   45MOL   H20415252   2.625   1.966   3.512  2.3330  0.4974  0.3060
   45MOL   H20515253   2.638   2.132   3.562  0.1822  0.3508  2.2876
   45MOL   C20615254   2.388   1.826   3.916  0.3498  0.5907  0.2219
   45MOL   C20715255   2.320   1.756   4.027 -0.5315  0.0383  0.2886
   45MOL   N20815256   2.173   1.757   4.023 -0.5514 -0.4617  0.9007
   45MOL   C20915257   2.098   1.780   4.152 -0.8285  0.4662  0.6303
   45MOL   C21015258   1.957   1.761   4.104 -0.7693 -0.2267  0.6429
   45MOL   C21115259   1.959   1.710   3.959  0.0265  0.0114  0.4413
   45MOL   C21215260   2.102   1.706   3.923 -0.6352 -0.3485  0.5856
   45MOL   O21315261   2.151   1.664   3.821 -0.6792  0.0068 -0.2886
   45MOL   H21415262   2.495   1.825   3.938  0.4580 -0.8301 -0.2941
   45MOL   H21515263   2.376   1.761   3.829  0.4890  1.9217 -0.8168
   45MOL   H21615264   2.337   1.825   4.110  1.4857  0.3541 -0.3611
   45MOL   H21715265   2.141   1.706   4.220 -1.1558 -0.7271 -0.4358
   45MOL   H21815266   2.117   1.869   4.212  3.1373 -0.9450  1.6522
   45MOL   H21915267   1.892   1.691   4.157 -1.0293 -0.3965  0.0943
   45MOL   H22015268   1.899   1.853   4.101 -0.5014 -0.0787 -0.0927
   45MOL   H22115269   1.914   1.612   3.948  1.6987 -1.0944  3.0999
   45MOL   H22215270   1.906   1.780   3.894 -0.3198 -3.0016 -2.6629
   45MOL   C22315271   2.377   1.613   4.056  0.0277  0.6772 -0.3865
   45MOL   C22415272   2.525   1.590   4.101 -0.7262  0.3920  0.1327
   45MOL   N22515273   2.560   1.685   4.205  0.4484 -0.3142 -0.8693
   45MOL   C22615274   2.665   1.792   4.190  0.2356  1.1249 -0.2778
   45MOL   C22715275   2.656   1.889   4.302 -0.0317  0.0234  0.0972
   45MOL   C22815276   2.555   1.821   4.400 -0.3204 -0.7997  0.2799
   45MOL   C22915277   2.495   1.697   4.329 -1.5294 -0.5823 -1.0210
   45MOL   O23015278   2.404   1.629   4.376 -0.0315  0.2639  0.4972
   45MOL   H23115279   2.368   1.562   3.960 -0.0162 -0.7701  0.3588
   45MOL   H23215280   2.313   1.572   4.136 -1.7370  3.5368 -0.2736
   45MOL   H23315281   2.591   1.617   4.019 -0.8628 -1.7538 -0.7149
   45MOL   H23415282   2.766   1.749   4.195  0.0730  0.1574 -3.8688
   45MOL   H23515283   2.654   1.837   4.092 -0.0428  1.3558 -0.1395
   45MOL   H23615284   2.749   1.901   4.356 -0.4461  2.4842  0.3140
   45MOL   H23715285   2.621   1.986   4.266 -0.1602 -0.3065 -0.6899
   45MOL   H23815286   2.608   1.801   4.494  1.2173  1.4721 -0.0429
   45MOL   H23915287   2.476   1.891   4.425 -0.8002 -0.9688 -0.7605
   45MOL   C24015288   2.554   1.442   4.151 -0.1923  0.2510  0.0351
   45MOL   C24115289   2.689   1.421   4.222 -0.0533  0.5648 -0.3199
   45MOL   N24215290   2.663   1.333   4.334 -0.0508  0.4323  0.1010
   45MOL   C24315291   2.670   1.379   4.475 -0.0357  0.0474 -0.0277
   45MOL   C24415292   2.611   1.266   4.554  0.0498  0.0276 -0.4188
   45MOL   C24515293   2.569   1.155   4.463 -0.1692  0.4369  0.0526
   45MOL   C24615294   2.621   1.203   4.325  0.3071  0.4074  0.9182
   45MOL   O24715295   2.609   1.138   4.220  0.3271 -0.7969  0.4911
   45MOL   H24815296   2.561   1.371   4.068  0.7929 -2.1056  2.0963
   45MOL   H24915297   2.470   1.414   4.214 -1.4378  0.1410 -1.6251
   45MOL   H25015298   2.738   1.506   4.269  1.0318 -1.2544  1.9359
   45MOL   H25115299   2.771   1.389   4.513 -0.9954  4.0722  1.8000
   45MOL   H25215300   2.619   1.476   4.477 -1.0175 -0.3691 -2.4084
   45MOL   H25315301   2.671   1.232   4.639  1.3266  1.3158 -0.7775
   45MOL   H25415302   2.518   1.297   4.600  1.4301  0.3622  2.2530
   45MOL   H25515303   2.614   1.061   4.494  0.0284  0.0992 -1.1986
   45MOL   H25615304   2.463   1.135   4.450  0.1163 -1.4532  0.5562
   45MOL   C25715305   2.796   1.358   4.122 -0.2951  0.3096 -0.2628
   45MOL   C25815306   2.859   1.460   4.020 -0.1105 -0.3955 -1.2737
   45MOL   N25915307   2.956   1.557   4.080  0.2337 -0.4590  0.1995
   45MOL   C26015308   2.993   1.678   3.997 -0.2376  0.2451 -0.3483
   45MOL   C26115309   3.098   1.762   4.072  0.4846 -0.0291 -0.7905
   45MOL   C26215310   3.103   1.691   4.208  0.1104  0.1407  0.4806
   45MOL   C26315311   3.017   1.564   4.200  0.5184 -0.0779  0.0517
   45MOL   O26415312   3.004   1.494   4.298  0.5956  0.3020  0.2619
   45MOL   H26515313   2.748   1.278   4.066  2.2342 -0.5404 -1.2577
   45MOL   H26615314   2.881   1.320   4.179  0.4811  0.5115 -1.2681
   45MOL   H26715315   2.778   1.521   3.983  1.1471  2.6374  0.7884
   45MOL   H26815316   3.037   1.649   3.901  1.4234 -0.0152  0.4604
   45MOL   H26915317   2.907   1.739   3.971 -0.3041  0.7611  1.0947
   45MOL   H27015318   3.195   1.746   4.024  1.4886 -0.1163  1.2341
   45MOL   H27115319   3.070   1.866   4.085 -1.2398 -0.7162  1.2257
   45MOL   H27215320   3.204   1.672   4.242 -0.3000  0.2276  1.7746
   45MOL   H27315321   3.061   1.745   4.293 -0.3748 -2.4713  1.9631
   45MOL   C27415322   2.929   1.382   3.904 -0.1856 -0.2758 -0.2210
   45MOL   C27515323   2.838   1.325   3.798 -0.3898 -0.4388  0.4094
   45MOL   N27615324   2.756   1.426   3.733  0.2778  0.5072 -0.2732
   45MOL   C27715325   2.613   1.393   3.712  0.1761 -0.6261  0.2367
   45MOL   C27815326   2.551   1.517   3.649  0.5089 -0.1438  0.1425
   45MOL   C27915327   2.660   1.609   3.611 -1.0140  0.0772 -0.1085
   45MOL   C28015328   2.787   1.543   3.680  0.0238  0.0255 -0.1219
   45MOL   O28115329   2.896   1.595   3.679  0.3734 -0.4070 -0.0067
   45MOL   H28215330   3.009   1.317   3.939 -0.2579  0.3031  1.0635
   45MOL   H28315331   2.993   1.451   3.848  1.4498 -0.6004  1.1808
   45MOL   H28415332   2.761   1.262   3.842 -0.6641 -0.8760 -0.6831
   45MOL   H28515333   2.597   1.314   3.638  1.5117 -1.8366  1.2195
   45MOL   H28615334   2.567   1.357   3.805 -0.7330 -1.4761 -0.5268
   45MOL   H28715335   2.489   1.496   3.562 -1.5155  2.9618  0.7586
   45MOL   H28815336   2.486   1.566   3.722  0.2708  1.5188 -1.1596
   45MOL   H28915337   2.680   1.631   3.506  0.7684 -1.2824 -0.0862
   45MOL   H29015338   2.630   1.695   3.671 -0.0187  0.3801 -0.0319
   45MOL   C29115339   2.910   1.241   3.688 -0.5005  0.2969 -0.2963
   45MOL   C29215340   3.000   1.123   3.749 -0.2313  0.4001  0.4804
   45MOL   N29315341   2.920   1.034   3.833  0.6453  0.0711  0.4046
   45MOL   C29415342   2.944   1.019   3.976  0.3623  0.2655 -0.2813
   45MOL   C29515343   2.833   0.932   4.029 -0.0780  0.2329 -0.0423
   45MOL   C29615344   2.758   0.892   3.906  0.0733 -0.4287  0.3032
   45MOL   C29715345   2.804   0.981   3.791  0.0233 -0.5830 -0.0804
   45MOL   O29815346   2.732   1.003   3.694 -0.0014 -0.5990 -0.2005
   45MOL   H29915347   2.982   1.310   3.644 -0.2907  0.3275  0.0883
   45MOL   H30015348   2.848   1.198   3.609  2.3706 -3.6154 -0.5764
   45MOL   H30115349   3.088   1.159   3.801  1.1698  0.7466 -2.0370
   45MOL   H30215350   3.048   0.996   3.999  0.3976 -0.8363 -1.4947
   45MOL   H30315351   2.934   1.116   4.026 -1.2741  0.8418 -1.6707
   45MOL   H30415352   2.877   0.849   4.085 -0.1086  0.3987  0.2314
   45MOL   H30515353   2.776   0.992   4.100 -1.7184  0.7025 -1.7268
   45MOL   H30615354   2.781   0.787   3.889 -0.3944 -0.7872  1.8439
   45MOL   H30715355   2.650   0.893   3.919  0.3206  0.7644  2.4325
   45MOL   C30815356   3.061   1.036   3.636 -0.3481  0.1033  0.1577
   45MOL   C30915357   3.176   0.945   3.679 -0.0755 -0.6430  0.3696
   45MOL   N31015358   3.130   0.811   3.716 -0.3012 -0.3532 -0.7633
   45MOL   C31115359   3.037   0.727   3.634 -0.7440  0.3676 -0.1863
   45MOL   C31215360   3.020   0.602   3.712 -0.6663  0.6325  0.2986
   45MOL   C31315361   3.063   0.634   3.852 -0.1244 -0.1589 -0.2928
   45MOL   C31415362   3.146   0.756   3.834 -0.6472 -0.8012 -0.0235
   45MOL   O31515363   3.220   0.800   3.925 -0.5138 -0.6333 -0.1676
   45MOL   H31615364   3.095   1.103   3.558  0.4927  1.0902  1.3457
   45MOL   H31715365   2.984   0.988   3.576  1.4298  1.0771 -2.9770
   45MOL   H31815366   3.224   0.989   3.766 -3.1569  1.0321  1.2925
   45MOL   H31915367   2.944   0.784   3.627 -0.6717  0.3557 -1.2713
   45MOL   H32015368   3.070   0.712   3.532 -1.8613  0.9781 -0.6473
   45MOL   H32115369   2.914   0.580   3.706 -0.7121  1.0941 -0.7516
   45MOL   H32215370   3.084   0.531   3.659  3.2401  2.3620  2.4211
   45MOL   H32315371   2.975   0.660   3.912  1.0560 -0.5627  1.6464
   45MOL   H32415372   3.113   0.554   3.906 -1.6063  0.0593  1.4558
   45MOL   C32515373   3.291   0.926   3.578  0.3312 -0.0034 -1.1062
   45MOL   C32615374   3.375   1.048   3.536  0.2904  0.0370 -0.0854
   45MOL   N32715375   3.476   1.023   3.436 -0.6718 -0.3051 -0.2470
   45MOL   C32815376   3.623   1.018   3.466 -0.1351  0.8036 -0.5796
   45MOL   C32915377   3.695   0.990   3.334 -0.1054  0.2106  0.4967
   45MOL   C33015378   3.577   0.966   3.234  0.4021 -0.3837 -0.6307
   45MOL   C33115379   3.451   0.996   3.309 -0.5156 -0.3159  1.4877
   45MOL   O33215380   3.343   0.995   3.254  0.2445 -0.8398  0.5535
   45MOL   H33315381   3.241   0.875   3.496  1.7091 -0.2738 -1.7962
   45MOL   H33415382   3.355   0.853   3.628  0.5150  0.9385  0.0474
   45MOL   H33515383   3.430   1.096   3.617 -0.0196  1.8522 -0.9179
   45MOL   H33615384   3.667   1.111   3.501  0.8394  0.2463 -0.2999
   45MOL   H33715385   3.643   0.943   3.543  1.7756  2.1889  0.3236
   45MOL   H33815386   3.759   1.071   3.300  1.0253 -0.4328  1.0560
   45MOL   H33915387   3.760   0.903   3.342  0.5662  0.4550 -1.8836
   45MOL   H34015388   3.589   1.041   3.156 -3.7046 -0.6406 -1.6459
   45MOL   H34115389   3.584   0.866   3.193 -1.8761 -0.4364 -0.9360
   45MOL   H34215390   3.313   1.124   3.487  0.2317  0.6209  0.8687
   46MOL     C115391   1.069   3.949   1.004 -0.0151  0.4363  0.7921
   46MOL     C215392   0.991   4.007   1.119  0.4002 -0.1239  0.6367
   46MOL     N315393   1.051   4.134   1.165 -0.0406 -0.6812 -0.1075
   46MOL     C415394   1.118   4.139   1.293 -0.4009 -0.3983 -0.5246
   46MOL     C515395   1.186   4.274   1.303  0.2311  0.0971  0.0635
   46MOL     C615396   1.103   4.361   1.205 -0.5615 -0.8128  0.1678
   46MOL     C715397   1.039   4.255   1.110  0.3972 -0.0812  0.6948
   46MOL     O815398   0.968   4.288   1.015 -0.1464  0.0376  0.0781
   46MOL     H915399   1.008   3.869   0.963 -0.3521  0.1712  1.7926
   46MOL    H1015400   1.088   4.023   0.926 -0.1125 -0.5319 -0.1583
   46MOL    H1115401   1.011   3.936   1.199  1.8554  0.9667  1.2652
   46MOL    H1215402   1.054   4.122   1.379  0.1636 -0.0593 -0.0368
   46MOL    H1315403   1.201   4.069   1.292  1.5316  1.8275 -1.4184
   46MOL    H1415404   1.191   4.308   1.406  0.3325  2.0835 -0.5694
   46MOL    H1515405   1.289   4.264   1.268  0.8553  1.8566  1.3179
   46MOL    H1615406   1.017   4.414   1.246 -0.8631  0.1704 -1.6833
   46MOL    H1715407   1.165   4.431   1.148  0.3753 -2.2294 -0.5960
   46MOL    H1815408   1.166   3.912   1.038  0.6676  0.2004 -1.3362
   46MOL    C1915409   0.835   4.001   1.095 -0.2931 -0.1426  0.2624
   46MOL    C2015410   0.737   4.093   1.175  0.0637  0.0282  0.1768
   46MOL    N2115411   0.604   4.092   1.114  0.3171  0.5742  0.0516
   46MOL    C2215412   0.559   4.215   1.049 -0.3838 -0.3302  0.5152
   46MOL    C2315413   0.420   4.185   0.996  0.0214 -0.0074 -0.5927
   46MOL    C2415414   0.387   4.036   1.032 -0.7996  0.7401 -0.2130
   46MOL    C2515415   0.510   3.997   1.107 -0.0842 -0.1617  0.5472
   46MOL    O2615416   0.531   3.882   1.154  0.2948 -0.3820 -0.2999
   46MOL    H2715417   0.791   3.901   1.090 -1.7999  0.5173  0.2107
   46MOL    H2815418   0.815   4.036   0.994 -2.8093  1.5150  1.2983
   46MOL    H2915419   0.771   4.196   1.166 -0.4462  0.2347  0.5609
   46MOL    H3015420   0.539   4.295   1.120  0.5552  1.4082 -1.1600
   46MOL    H3115421   0.619   4.240   0.962 -1.2383 -0.4620 -0.1174
   46MOL    H3215422   0.345   4.252   1.036 -0.9285 -0.7907 -1.0362
   46MOL    H3315423   0.410   4.190   0.887  0.0193  3.5741 -0.4921
   46MOL    H3415424   0.295   4.024   1.090 -1.0271 -0.5044 -0.8147
   46MOL    H3515425   0.385   3.980   0.939  0.0767  0.9829 -0.3767
   46MOL    C3615426   0.725   4.055   1.323 -0.1787  0.1717  0.3632
   46MOL    C3715427   0.673   4.172   1.410 -0.7004  0.0743 -0.1230
   46MOL    N3815428   0.617   4.107   1.530  0.2524  0.6190 -0.3449
   46MOL    C3915429   0.478   4.068   1.532 -0.0978  0.0362  0.1695
   46MOL    C4015430   0.457   3.996   1.659  0.0329 -0.5909 -0.2810
   46MOL    C4115431   0.571   4.041   1.743 -0.2162 -0.0569  0.3212
   46MOL    C4215432   0.677   4.089   1.652  0.3380 -0.0380 -0.4185
   46MOL    O4315433   0.793   4.116   1.689  0.5007 -0.3169 -0.2754
   46MOL    H4415434   0.820   4.018   1.362 -0.1175  1.0444  1.0599
   46MOL    H4515435   0.663   3.965   1.332 -2.5249  1.7522  0.6537
   46MOL    H4615436   0.589   4.220   1.359 -0.8189  0.3578  0.3260
   46MOL    H4715437   0.415   4.152   1.501 -0.2147  0.5900  1.8427
   46MOL    H4815438   0.472   3.994   1.452  3.5396 -0.1163 -0.0394
   46MOL    H4915439   0.361   4.018   1.706  1.4025  1.6259  1.6254
   46MOL    H5015440   0.466   3.894   1.623  0.0042 -0.2895 -1.1419
   46MOL    H5115441   0.537   4.111   1.818  1.3559  0.9259  0.1283
   46MOL    H5215442   0.605   3.956   1.802 -0.6149 -0.0662  0.5379
   46MOL    C5315443   0.775   4.290   1.437 -0.0401  0.7406 -0.1189
   46MOL    C5415444   0.705   4.425   1.466  0.2188  0.8382  0.3358
   46MOL    N5515445   0.784   4.501   1.560  0.0065  0.5042 -0.3868
   46MOL    C5615446   0.746   4.496   1.701 -1.0222 -0.1946  0.2411
   46MOL    C5715447   0.854   4.580   1.775 -0.8037  0.1479 -1.3665
   46MOL    C5815448   0.935   4.653   1.665  0.8872  0.8230  0.3089
   46MOL    C5915449   0.881   4.589   1.538 -0.3107 -0.7279  0.3685
   46MOL    O6015450   0.927   4.628   1.428 -0.2997 -0.8103 -0.7342
   46MOL    H6115451   0.834   4.300   1.346  0.0004  0.2116 -0.1528
   46MOL    H6215452   0.839   4.263   1.520 -0.9714 -0.2037  0.3166
   46MOL    H6315453   0.620   4.387   1.524  1.2717 -1.4007  0.4595
   46MOL    H6415454   0.645   4.534   1.719 -1.0185 -1.0442  2.0689
   46MOL    H6515455   0.761   4.392   1.728  0.6246 -0.1809 -0.5536
   46MOL    H6615456   0.816   4.654   1.845 -3.8001 -0.9411 -1.8030
   46MOL    H6715457   0.929   4.521   1.827 -2.2982  0.3741  1.0866
   46MOL    H6815458   0.904   4.757   1.678 -1.4776  0.2371 -0.4577
   46MOL    H6915459   1.043   4.647   1.674  1.0326  1.1920 -1.0833
   46MOL    C7015460   0.655   4.504   1.339  0.3742  0.0414 -0.0311
   46MOL    C7115461   0.595   4.655   1.362  0.0091  0.2651 -0.4874
   46MOL    N7215462   0.602   4.738   1.241 -0.6320  0.1759 -0.5898
   46MOL    C7315463   0.685   4.859   1.226  0.3852 -0.0873 -0.3900
   46MOL    C7415464   0.699   4.884   1.077 -0.2635  0.2582 -0.2881
   46MOL    C7515465   0.591   4.800   1.010  0.1670 -0.3098 -0.3073
   46MOL    C7615466   0.540   4.714   1.124  0.2207  0.2417  1.1569
   46MOL    O7715467   0.460   4.620   1.105 -0.0344  0.0740  0.0652
   46MOL    H7815468   0.567   4.453   1.300  1.6002 -1.2156 -1.2206
   46MOL    H7915469   0.732   4.504   1.261 -0.2069  2.3279 -0.6398
   46MOL    H8015470   0.663   4.705   1.430  0.8742  0.2865 -1.3734
   46MOL    H8115471   0.635   4.942   1.276 -0.3341 -0.7563  0.0246
   46MOL    H8215472   0.781   4.856   1.278 -0.4871 -0.6250  1.2453
   46MOL    H8315473   0.688   4.986   1.041 -1.2102  0.3182  0.1725
   46MOL    H8415474   0.804   4.875   1.049 -0.2193  0.4501 -0.1823
   46MOL    H8515475   0.503   4.848   0.968 -1.0348 -1.8579  0.3690
   46MOL    H8615476   0.627   4.727   0.937  0.1673 -0.3238 -0.2930
   46MOL    C8715477   0.453   4.658   1.435  0.0016  0.6183  0.8142
   46MOL    C8815478   0.448   4.756   1.561  0.2500  0.4471  0.5202
   46MOL    N8915479   0.472   4.895   1.523 -0.8704 -0.2710  0.1741
   46MOL    C9015480   0.583   4.967   1.585 -0.0028  0.5727  0.4365
   46MOL    C9115481   0.567   5.115   1.532  0.0035  0.2441  0.0245
   46MOL    C9215482   0.444   5.115   1.446 -0.4196 -0.6839  0.7026
   46MOL    C9315483   0.408   4.965   1.428 -0.1915 -0.1292  0.3236
   46MOL    O9415484   0.325   4.927   1.349 -0.1812 -0.2505  0.1082
   46MOL    H9515485   0.434   4.554   1.461  0.2543  0.7117  1.3644
   46MOL    H9615486   0.381   4.686   1.357  0.3037  1.9732  0.9997
   46MOL    H9715487   0.525   4.714   1.625 -0.1067 -0.4415  0.3737
   46MOL    H9815488   0.575   4.965   1.694 -1.1408 -0.7477  0.3438
   46MOL    H9915489   0.681   4.925   1.562 -0.6701 -0.6220 -0.2732
   46MOL   H10015490   0.577   5.196   1.604  0.5388 -0.6221  0.9290
   46MOL   H10115491   0.650   5.126   1.463  1.2288 -1.7939  1.1174
   46MOL   H10215492   0.368   5.176   1.495  0.9572  0.8669  0.9680
   46MOL   H10315493   0.461   5.153   1.345  1.7100 -0.5573  1.0812
   46MOL   C10415494   0.303   4.743   1.629 -0.3683 -0.5147 -0.6224
   46MOL   C10515495   0.282   4.837   1.750  0.4257  0.0491 -0.2185
   46MOL   N10615496   0.135   4.833   1.785 -0.0795  0.4206 -0.1551
   46MOL   C10715497   0.041   4.934   1.730  0.1072  0.0053  0.4488
   46MOL   C10815498   7.826   4.926   1.823 -0.2161 -0.3335  0.0306
   46MOL   C10915499   7.838   4.790   1.882  0.0174 -0.4613 -1.0023
   46MOL   C11015500   0.078   4.747   1.867  0.5390  0.0415 -0.9644
   46MOL   O11115501   0.121   4.648   1.928  0.2140  0.1846  0.0978
   46MOL   H11215502   0.290   4.639   1.658 -0.6487  0.1742  1.8687
   46MOL   H11315503   0.227   4.769   1.556 -0.9495 -1.6864 -0.4432
   46MOL   H11415504   0.300   4.941   1.722  0.0456  0.8279  2.3423
   46MOL   H11515505   0.082   5.035   1.739  0.2582 -0.1271  1.2977
   46MOL   H11615506   0.027   4.911   1.624 -3.3623 -2.4750  1.3711
   46MOL   H11715507   7.820   5.001   1.902 -0.9002 -0.5241  0.1624
   46MOL   H11815508   7.741   4.940   1.756 -0.5133 -1.1598  0.2254
   46MOL   H11915509   7.773   4.729   1.820  0.7421 -2.5386  0.2345
   46MOL   H12015510   7.800   4.784   1.984  0.8372  1.0680 -0.5825
   46MOL   C12115511   0.376   4.809   1.864 -0.4730 -0.6679 -0.1542
   46MOL   C12215512   0.367   4.896   1.990 -0.7829  0.3265  0.2884
   46MOL   N12315513   0.456   4.838   2.095  0.4243 -0.4512  0.2086
   46MOL   C12415514   0.393   4.809   2.223 -0.1590 -0.3131  0.2948
   46MOL   C12515515   0.514   4.778   2.313 -1.3314 -0.4290  0.6718
   46MOL   C12615516   0.633   4.757   2.217 -0.6356 -0.2222 -0.0710
   46MOL   C12715517   0.583   4.806   2.086 -0.2584  0.2084 -0.6610
   46MOL   O12815518   0.651   4.814   1.990 -0.1602 -0.1078  0.5061
   46MOL   H12915519   0.478   4.822   1.829 -0.4943 -2.8123 -1.0461
   46MOL   H13015520   0.375   4.704   1.891  3.4556 -0.8286 -0.3146
   46MOL   H13115521   0.263   4.902   2.022 -0.4991 -0.4399  1.3772
   46MOL   H13215522   0.322   4.727   2.211  0.9551 -1.3120  0.3362
   46MOL   H13315523   0.341   4.900   2.252 -1.0114 -1.1495  1.4335
   46MOL   H13415524   0.522   4.855   2.389  0.6053 -0.3553  0.4084
   46MOL   H13515525   0.509   4.687   2.373  0.5975 -0.3219  1.0353
   46MOL   H13615526   0.723   4.813   2.243 -0.5403  0.5702 -2.0201
   46MOL   H13715527   0.655   4.651   2.204  0.8912  0.0853 -0.0662
   46MOL   C13815528   0.415   5.043   1.968 -0.2919  0.4501  0.5287
   46MOL   C13915529   0.422   5.129   2.099 -0.4250  0.8967  0.4206
   46MOL   N14015530   0.532   5.227   2.091 -0.1498  1.0049 -0.2638
   46MOL   C14115531   0.660   5.191   2.154  0.2638  0.0660 -0.2062
   46MOL   C14215532   0.754   5.309   2.126  0.1597  0.4966 -0.2334
   46MOL   C14315533   0.689   5.383   2.016 -0.0686 -0.1932  0.5164
   46MOL   C14415534   0.556   5.319   1.996  0.3713 -0.5937 -0.1580
   46MOL   O14515535   0.482   5.350   1.904  0.2443  0.0861 -0.1512
   46MOL   H14615536   0.347   5.097   1.902  0.0276 -1.1028 -1.1307
   46MOL   H14715537   0.509   5.033   1.913 -0.8581  1.1711 -0.5981
   46MOL   H14815538   0.452   5.070   2.186 -1.6462  1.0654  0.9685
   46MOL   H14915539   0.641   5.177   2.260  0.4583  0.2457 -0.1469
   46MOL   H15015540   0.700   5.098   2.114 -0.1588  0.3697 -1.3435
   46MOL   H15115541   0.747   5.371   2.215 -1.8617  0.3214 -0.2431
   46MOL   H15215542   0.855   5.272   2.111 -0.0662 -0.1691 -0.1305
   46MOL   H15315543   0.759   5.385   1.932 -0.4868 -0.4077  0.1582
   46MOL   H15415544   0.685   5.491   2.031 -1.8734  0.0043 -1.1643
   46MOL   C15515545   0.293   5.205   2.127  0.2933 -0.2363  0.2637
   46MOL   C15615546   0.242   5.179   2.274 -0.7858 -0.1175 -1.0402
   46MOL   N15715547   0.345   5.197   2.377  0.6945 -0.1510 -0.6818
   46MOL   C15815548   0.411   5.334   2.392 -0.3709  0.8971  0.0604
   46MOL   C15915549   0.513   5.315   2.504 -0.1608  0.1294 -0.1734
   46MOL   C16015550   0.500   5.176   2.554  0.1607  0.5730 -0.4482
   46MOL   C16115551   0.386   5.114   2.470  0.0756 -0.7784 -0.7812
   46MOL   O16215552   0.352   5.001   2.487 -0.8479  0.5430 -0.0081
   46MOL   H16315553   0.208   5.170   2.070 -1.3006  0.8064  1.9178
   46MOL   H16415554   0.310   5.311   2.106  1.3394 -0.6564 -1.0912
   46MOL   H16515555   0.219   5.073   2.283 -0.7070  0.0477  1.5507
   46MOL   H16615556   0.454   5.365   2.296 -0.2813  4.1824  1.1005
   46MOL   H16715557   0.337   5.410   2.418 -0.0261  2.4257 -3.1176
   46MOL   H16815558   0.616   5.324   2.472  0.2944 -1.0167  0.9578
   46MOL   H16915559   0.491   5.392   2.578  0.6449  0.5789 -0.3964
   46MOL   H17015560   0.583   5.113   2.524 -0.9031 -0.3145 -1.6084
   46MOL   H17115561   0.479   5.167   2.661  1.0427 -1.5734 -0.4361
   46MOL   C17215562   0.116   5.260   2.296  0.3431  0.1376 -0.1209
   46MOL   C17315563   7.897   5.213   2.219 -0.7232  0.6457  0.1998
   46MOL   N17415564   7.847   5.089   2.285  0.3646  0.1868 -0.0763
   46MOL   C17515565   7.769   5.086   2.410  0.1248 -0.3953 -0.0573
   46MOL   C17615566   7.793   4.946   2.476 -0.7963 -0.9655 -0.0287
   46MOL   C17715567   7.838   4.864   2.354 -0.7153 -0.1728  0.0006
   46MOL   C17815568   7.875   4.967   2.247  0.0613 -0.0360  0.0389
   46MOL   O17915569   0.026   4.939   2.142  0.2682 -0.0389 -0.2436
   46MOL   H18015570   0.138   5.363   2.267  1.5263  0.0411  0.4073
   46MOL   H18115571   0.091   5.277   2.401  0.1981  0.3638 -0.1895
   46MOL   H18215572   0.006   5.190   2.114 -2.4743  0.8167 -0.1107
   46MOL   H18315573   7.773   5.164   2.485 -2.2501 -1.1952  0.9335
   46MOL   H18415574   7.666   5.076   2.375  0.0731 -0.8652  0.2283
   46MOL   H18515575   7.697   4.913   2.516 -1.0046  0.4561  0.7078
   46MOL   H18615576   7.868   4.952   2.555 -0.0739  0.5410 -0.8109
   46MOL   H18715577   0.024   4.808   2.374  0.4844  2.5492  2.6385
   46MOL   H18815578   7.755   4.804   2.318 -1.2334  0.9565 -0.7055
   46MOL   C18915579   7.785   5.313   2.215  0.6348  1.0286  0.2908
   46MOL   C19015580   7.808   5.447   2.134 -0.6707  0.9195  0.1809
   46MOL   N19115581   7.853   5.421   1.999 -0.2492 -0.1149  0.1652
   46MOL   C19215582   0.069   5.487   1.952  0.0029  0.2601 -0.5910
   46MOL   C19315583   0.094   5.428   1.809  0.3765  0.5345  0.1219
   46MOL   C19415584   7.875   5.344   1.774  0.2810  0.8005 -0.3753
   46MOL   C19515585   7.799   5.343   1.905  0.4193 -0.4642 -1.0073
   46MOL   O19615586   7.698   5.280   1.926 -0.3712  0.0171 -0.0549
   46MOL   H19715587   7.750   5.342   2.315  0.2138  0.7105  0.2376
   46MOL   H19815588   7.692   5.271   2.176 -0.7899  3.5503  0.8436
   46MOL   H19915589   7.892   5.493   2.185 -0.8708  0.8530  0.5728
   46MOL   H20015590   0.060   5.596   1.951 -0.0034  0.2897  1.1405
   46MOL   H20115591   0.156   5.461   2.012 -0.2960 -1.0832 -0.7285
   46MOL   H20215592   0.119   5.515   1.748 -1.5996  0.0685 -1.4061
   46MOL   H20315593   0.189   5.374   1.806 -1.2506 -2.9840  5.2350
   46MOL   H20415594   7.809   5.395   1.704 -2.7273  0.2284  1.9766
   46MOL   H20515595   7.898   5.243   1.738  1.1193  1.3092 -1.3090
   46MOL   C20615596   7.687   5.538   2.128  0.4416 -0.1533  0.5741
   46MOL   C20715597   7.643   5.616   2.258  0.2730 -0.8963  0.3043
   46MOL   N20815598   7.750   5.642   2.353  0.0292 -0.1182 -0.8852
   46MOL   C20915599   7.721   5.611   2.492 -0.7979 -0.1343 -0.1389
   46MOL   C21015600   7.844   5.647   2.569  0.0868 -0.1288 -0.1531
   46MOL   C21115601   0.034   5.709   2.464 -0.1167  0.3155 -0.6179
   46MOL   C21215602   7.871   5.703   2.337  0.6259 -0.3580 -0.7875
   46MOL   O21315603   0.011   5.741   2.233 -0.1198 -0.0581  0.2086
   46MOL   H21415604   7.602   5.479   2.093  0.6143 -1.2522  1.9629
   46MOL   H21515605   7.707   5.607   2.046  1.7160 -0.3121  0.7468
   46MOL   H21615606   7.562   5.564   2.309 -0.0448 -1.5304 -0.8319
   46MOL   H21715607   7.637   5.673   2.523 -1.0809 -0.9683  0.8074
   46MOL   H21815608   7.694   5.505   2.496  1.0218 -0.6838 -1.3955
   46MOL   H21915609   7.814   5.709   2.653 -2.0558 -0.2759 -0.7615
   46MOL   H22015610   7.877   5.549   2.602  0.2219 -0.4458 -1.1916
   46MOL   H22115611   0.064   5.812   2.489  2.4346 -0.1882 -1.4276
   46MOL   H22215612   0.130   5.660   2.450 -0.9782 -1.0326 -1.9186
   46MOL   C22315613   7.586   5.744   2.197 -0.0153 -0.8693 -0.0015
   46MOL   C22415614   7.535   5.860   2.291  0.3741  0.5087  0.2064
   46MOL   N22515615   7.526   5.984   2.210 -0.0735 -0.1140 -0.2605
   46MOL   C22615616   7.642   6.073   2.224 -1.1254  0.3696  0.4666
   46MOL   C22715617   7.611   6.202   2.140 -0.5575  0.4683 -0.2848
   46MOL   C22815618   7.488   6.160   2.058  0.6458 -0.2351  0.3349
   46MOL   C22915619   7.438   6.021   2.112  0.2223  0.2301 -0.6578
   46MOL   O23015620   7.337   5.962   2.065 -0.0433  0.0644 -0.5875
   46MOL   H23115621   7.512   5.717   2.121 -2.5727  0.4358  1.9518
   46MOL   H23215622   7.672   5.785   2.145 -1.1018 -0.1103 -1.2177
   46MOL   H23315623   7.611   5.867   2.368  1.1953 -2.4746 -0.2738
   46MOL   H23415624   7.647   6.101   2.329 -0.9888  0.0124  0.5548
   46MOL   H23515625   7.737   6.030   2.191 -0.0663  1.4452  2.0025
   46MOL   H23615626   7.598   6.290   2.203 -2.0837  0.1354 -0.1045
   46MOL   H23715627   7.701   6.226   2.084  0.5475 -2.1386  0.3267
   46MOL   H23815628   7.399   6.223   2.052  0.0615 -1.1230 -0.4341
   46MOL   H23915629   7.509   6.152   1.952 -1.2616 -0.4226 -0.0456
   46MOL   C24015630   7.396   5.835   2.365 -0.1284 -0.5567 -0.3618
   46MOL   C24115631   7.345   5.955   2.456 -0.1352  0.1392 -0.0830
   46MOL   N24215632   7.217   5.917   2.523  0.2949  1.1666 -0.0833
   46MOL   C24315633   7.102   5.999   2.481  0.5193  0.0863 -0.3519
   46MOL   C24415634   6.979   5.950   2.564 -0.3397  0.0248  0.1575
   46MOL   C24515635   7.032   5.818   2.635  0.7625  0.5740 -0.1433
   46MOL   C24615636   7.187   5.825   2.611  0.6364  0.3872  0.2227
   46MOL   O24715637   7.259   5.752   2.672 -0.0713 -0.8689 -0.5742
   46MOL   H24815638   7.402   5.746   2.428  2.1878  0.2911  0.6660
   46MOL   H24915639   7.324   5.814   2.285 -1.1565 -0.6950  0.5962
   46MOL   H25015640   7.316   6.031   2.383 -2.6700 -0.2182  0.5071
   46MOL   H25115641   7.134   6.102   2.495 -1.4185  0.4917  1.2327
   46MOL   H25215642   7.086   5.994   2.373  0.7704 -2.1384 -0.3234
   46MOL   H25315643   6.952   6.034   2.628 -0.6253  0.3174 -0.3449
   46MOL   H25415644   6.881   5.938   2.518 -0.8366  1.4158  0.8374
   46MOL   H25515645   7.000   5.815   2.739 -1.9672 -0.1063 -0.9620
   46MOL   H25615646   7.003   5.725   2.587  0.1932 -0.0084  1.3094
   46MOL   C25715647   7.436   6.002   2.565 -0.0720  0.0736  0.1604
   46MOL   C25815648   7.394   6.134   2.634  0.2143  0.0612  0.0313
   46MOL   N25915649   7.483   6.146   2.744  0.5304 -0.0616 -0.3367
   46MOL   C26015650   7.429   6.112   2.876 -0.0832  0.0037  0.0777
   46MOL   C26115651   7.553   6.123   2.961  0.1398 -0.1993 -0.4789
   46MOL   C26215652   7.681   6.152   2.876 -0.5316 -0.3947 -0.0122
   46MOL   C26315653   7.619   6.163   2.743 -0.1594 -0.4368  0.1738
   46MOL   O26415654   7.687   6.184   2.645 -0.3531 -0.3514  0.0320
   46MOL   H26515655   7.531   6.029   2.518  1.0876  1.1714  3.0129
   46MOL   H26615656   7.462   5.922   2.634 -0.2317  0.4573  0.6694
   46MOL   H26715657   7.292   6.132   2.672  1.1756 -0.4775  2.6702
   46MOL   H26815658   7.338   6.161   2.910  1.0046  2.2768 -0.1671
   46MOL   H26915659   7.406   6.006   2.863 -0.0959  0.1515 -1.1032
   46MOL   H27015660   7.538   6.201   3.036 -0.5128  0.2297 -1.0539
   46MOL   H27115661   7.571   6.033   3.020  0.4228  0.1815  0.0176
   46MOL   H27215662   7.747   6.237   2.896 -0.8890 -0.4686  1.5715
   46MOL   H27315663   7.747   6.065   2.875  1.5598  1.1234  1.5226
   46MOL   C27415664   7.397   6.250   2.531  0.3225 -0.8897 -0.1708
   46MOL   C27515665   7.306   6.368   2.567 -0.2452 -0.4016  0.5516
   46MOL   N27615666   7.275   6.388   2.710  0.1434  0.6855 -0.4279
   46MOL   C27715667   7.369   6.452   2.798  0.2789  0.4556 -0.5944
   46MOL   C27815668   7.296   6.470   2.933  0.0043  0.4861 -0.2864
   46MOL   C27915669   7.152   6.421   2.903 -1.2207  0.2675 -0.2893
   46MOL   C28015670   7.154   6.375   2.768 -0.1246  0.2704  1.1814
   46MOL   O28115671   7.055   6.332   2.712  0.2926 -0.3132  0.8699
   46MOL   H28215672   7.375   6.217   2.430 -2.0943  2.1521 -0.6732
   46MOL   H28315673   7.500   6.283   2.519  0.3756 -1.3830 -1.1499
   46MOL   H28415674   7.212   6.346   2.516 -0.6994  0.8777  0.8345
   46MOL   H28515675   7.464   6.400   2.813  0.4030  0.0787 -2.4896
   46MOL   H28615676   7.395   6.549   2.755 -0.7980  0.7120 -0.6800
   46MOL   H28715677   7.348   6.417   3.013  2.3537  2.0588 -0.7323
   46MOL   H28815678   7.298   6.567   2.981 -1.6711 -0.4199  1.7043
   46MOL   H28915679   7.096   6.354   2.968 -0.2453 -1.0223 -0.7671
   46MOL   H29015680   7.087   6.507   2.886 -1.3465  0.5885  1.7262
   46MOL   C29115681   7.362   6.499   2.506 -0.6921 -0.9880  0.2793
   46MOL   C29215682   7.375   6.513   2.348  0.2467 -0.3217 -0.0371
   46MOL   N29315683   7.240   6.514   2.291  0.1178 -0.0661  0.2483
   46MOL   C29415684   7.189   6.392   2.236  0.0086  0.4110 -0.0531
   46MOL   C29515685   7.046   6.434   2.172  0.1299  1.0564  0.1202
   46MOL   C29615686   7.022   6.572   2.233 -0.2440 -0.3046 -1.1664
   46MOL   C29715687   7.155   6.616   2.295  0.2712 -0.5832 -0.3773
   46MOL   O29815688   7.178   6.735   2.320  0.5099 -0.0740  0.4318
   46MOL   H29915689   7.461   6.524   2.545 -0.5853 -0.8661 -0.0701
   46MOL   H30015690   7.314   6.590   2.543 -0.7861 -1.2058  0.6953
   46MOL   H30115691   7.424   6.422   2.311 -1.6042 -1.1416 -0.5060
   46MOL   H30215692   7.263   6.354   2.166  0.5918 -2.5261  2.0851
   46MOL   H30315693   7.174   6.313   2.308  0.9977 -1.6908 -2.0886
   46MOL   H30415694   7.044   6.430   2.063  2.3848  0.1811  0.0859
   46MOL   H30515695   6.977   6.358   2.210  0.2295  0.3552 -1.0835
   46MOL   H30615696   6.986   6.640   2.155  1.5875  0.8692 -1.0300
   46MOL   H30715697   6.953   6.560   2.316  0.4715 -0.6848 -0.6266
   46MOL   C30815698   7.475   6.628   2.302 -0.1639  0.1735  0.2047
   46MOL   C30915699   7.471   6.676   2.156  0.4553 -0.8204  0.4354
   46MOL   N31015700   7.569   6.781   2.124 -0.0966  0.4444 -0.1546
   46MOL   C31115701   7.516   6.911   2.090  0.0290 -0.5509  0.3430
   46MOL   C31215702   7.635   6.993   2.047 -0.2820  0.3123 -0.7811
   46MOL   C31315703   7.752   6.898   2.048 -0.3335 -0.7332  0.2877
   46MOL   C31415704   7.698   6.772   2.110  0.5822 -0.6654  0.3704
   46MOL   O31515705   7.772   6.681   2.146  0.1301  0.2199  0.3359
   46MOL   H31615706   7.577   6.591   2.305  0.5749  2.2469  1.2038
   46MOL   H31715707   7.474   6.714   2.368 -0.3225 -0.7428  1.4061
   46MOL   H31815708   7.372   6.716   2.132  0.0432 -1.8357  0.4102
   46MOL   H31915709   7.439   6.909   2.013  1.3891  0.2036 -1.0695
   46MOL   H32015710   7.471   6.961   2.176 -1.3545 -0.8608 -0.1825
   46MOL   H32115711   7.622   7.023   1.943  0.1657 -1.0512 -1.2481
   46MOL   H32215712   7.651   7.077   2.113  0.7285 -1.8903  1.8898
   46MOL   H32315713   7.789   6.887   1.947 -0.4524 -4.0651  0.5474
   46MOL   H32415714   7.831   6.939   2.111 -0.1962 -1.1688  0.4012
   46MOL   C32515715   7.501   6.556   2.062  0.4175  0.3390  0.6682
   46MOL   C32615716   7.483   6.583   1.912  0.1251  0.2664 -0.2056
   46MOL   N32715717   7.342   6.567   1.862 -0.2554  0.0952 -0.1490
   46MOL   C32815718   7.283   6.436   1.836  0.5593  0.5830 -0.2766
   46MOL   C32915719   7.155   6.468   1.748 -0.5812 -0.5109  0.5287
   46MOL   C33015720   7.142   6.619   1.729  0.2340 -0.1750 -0.2911
   46MOL   C33115721   7.270   6.664   1.800  0.3078  0.0445 -1.2908
   46MOL   O33215722   7.316   6.780   1.795 -0.1386 -0.0741  0.1921
   46MOL   H33315723   7.442   6.467   2.084 -0.1606  0.1012 -1.7160
   46MOL   H33415724   7.605   6.527   2.069 -0.0718 -1.6340  0.0805
   46MOL   H33515725   7.538   6.504   1.860  0.1300 -0.7375  1.3036
   46MOL   H33615726   7.349   6.364   1.787  1.5542 -0.0203  1.9012
   46MOL   H33715727   7.259   6.402   1.937  0.3009  2.2755  0.2575
   46MOL   H33815728   7.164   6.412   1.654 -1.7166 -0.2581  0.2607
   46MOL   H33915729   7.069   6.419   1.793  1.6103 -2.4270  2.8143
   46MOL   H34015730   7.150   6.634   1.621  0.9341 -0.7238 -0.3219
   46MOL   H34115731   7.047   6.658   1.764  0.5780 -1.3262  2.0092
   46MOL   H34215732   7.521   6.684   1.896 -2.5675  2.0494  3.7989
   47MOL     C115733   4.060   5.608   4.063  0.0530 -0.0423 -0.5981
   47MOL     C215734   4.191   5.626   4.148  0.6494 -0.9837  0.5588
   47MOL     N315735   4.286   5.521   4.103 -0.4526  0.3799 -0.1935
   47MOL     C415736   4.356   5.448   4.210  0.3193 -0.4824  0.8001
   47MOL     C515737   4.437   5.341   4.135  0.6470 -0.2231  0.0119
   47MOL     C615738   4.400   5.356   3.985  0.5657  0.2764 -0.4541
   47MOL     C715739   4.308   5.476   3.981 -0.1504 -0.0256  1.2175
   47MOL     O815740   4.273   5.527   3.875 -0.0367 -0.2999 -0.1959
   47MOL     H915741   4.082   5.651   3.965 -0.0816  1.1736 -0.1094
   47MOL    H1015742   4.047   5.501   4.047  0.0880 -0.0707 -0.4400
   47MOL    H1115743   4.170   5.591   4.249 -1.2222 -0.4643  0.3631
   47MOL    H1215744   4.420   5.516   4.266 -1.3833  2.7264 -0.9803
   47MOL    H1315745   4.294   5.401   4.286 -1.1043  0.0286 -0.0185
   47MOL    H1415746   4.545   5.357   4.135  0.5820  0.5288  3.0300
   47MOL    H1515747   4.411   5.239   4.165 -2.9274 -0.0880 -2.2584
   47MOL    H1615748   4.494   5.355   3.930  0.7609  2.5643 -0.2030
   47MOL    H1715749   4.338   5.275   3.947  1.0494 -0.9160  1.2675
   47MOL    H1815750   3.973   5.651   4.113  1.1781  0.9220  0.5582
   47MOL    C1915751   4.253   5.765   4.142 -0.1796 -0.3363  0.4740
   47MOL    C2015752   4.197   5.863   4.252  0.1285 -0.4155 -0.3439
   47MOL    N2115753   4.297   5.968   4.283 -0.4948 -0.1309 -0.1980
   47MOL    C2215754   4.302   6.092   4.201  0.4830  0.0792  0.0777
   47MOL    C2315755   4.408   6.179   4.271 -0.7009  0.0739 -0.2558
   47MOL    C2415756   4.500   6.081   4.354  0.4633 -0.0163  0.0928
   47MOL    C2515757   4.408   5.959   4.361  0.2262  0.9841  0.1003
   47MOL    O2615758   4.429   5.858   4.428 -0.0449 -0.2104  0.5989
   47MOL    H2715759   4.260   5.800   4.039  2.1524  1.2194  1.1021
   47MOL    H2815760   4.360   5.760   4.161 -0.1108  0.6183  0.3568
   47MOL    H2915761   4.188   5.806   4.344 -0.4976 -1.2120 -0.8870
   47MOL    H3015762   4.335   6.050   4.106 -2.1391 -1.0049 -0.3953
   47MOL    H3115763   4.207   6.144   4.190  0.0968 -0.1813  1.9843
   47MOL    H3215764   4.476   6.227   4.199 -1.4390  1.8291  0.1917
   47MOL    H3315765   4.370   6.262   4.332 -0.5015  1.8196 -2.4199
   47MOL    H3415766   4.592   6.051   4.304 -0.9604 -0.8874 -2.0962
   47MOL    H3515767   4.521   6.130   4.449 -0.9767 -1.6430  1.2921
   47MOL    C3615768   4.062   5.915   4.216 -0.0575  0.2707 -0.2191
   47MOL    C3715769   3.992   6.008   4.318 -0.1609  0.4976  0.0006
   47MOL    N3815770   3.861   6.052   4.257 -0.8118 -0.3847  0.9752
   47MOL    C3915771   3.858   6.178   4.180 -0.3348 -0.0731 -0.2691
   47MOL    C4015772   3.717   6.173   4.121 -0.2117 -0.2992  0.8093
   47MOL    C4115773   3.639   6.057   4.181  0.6868 -0.7501 -0.1504
   47MOL    C4215774   3.754   5.975   4.226 -0.2947  0.1685 -0.0669
   47MOL    O4315775   3.745   5.857   4.245  0.4607  0.1531 -0.2991
   47MOL    H4415776   3.998   5.827   4.223  0.5904 -0.2067 -0.2269
   47MOL    H4515777   4.054   5.955   4.115 -1.4857  3.0762  0.9661
   47MOL    H4615778   4.058   6.092   4.339 -0.8257  0.9279  0.3741
   47MOL    H4715779   3.871   6.269   4.238 -3.7200 -0.8882  1.9343
   47MOL    H4815780   3.928   6.185   4.097  0.3162  0.5945  0.3336
   47MOL    H4915781   3.670   6.269   4.143  0.4633  0.1212  0.4368
   47MOL    H5015782   3.723   6.164   4.012 -0.1399 -0.7835  0.8531
   47MOL    H5115783   3.577   6.086   4.266 -1.2357 -4.7848 -0.0352
   47MOL    H5215784   3.579   6.004   4.107  1.7907  0.0709 -1.6481
   47MOL    C5315785   3.984   5.949   4.462 -0.5155 -0.0765 -0.0285
   47MOL    C5415786   3.954   6.043   4.585 -0.7177 -0.2551  0.9285
   47MOL    N5515787   3.821   6.099   4.573  0.0961  0.1340 -0.7374
   47MOL    C5615788   3.807   6.240   4.577  0.4232 -0.2908  0.1567
   47MOL    C5715789   3.660   6.270   4.559  0.3919  0.0060 -0.2922
   47MOL    C5815790   3.592   6.132   4.577 -0.8685  0.0039  0.9239
   47MOL    C5915791   3.704   6.033   4.578  0.1654 -0.0282 -0.0661
   47MOL    O6015792   3.681   5.916   4.602  0.5293  0.2605  0.0505
   47MOL    H6115793   4.065   5.878   4.482 -1.3219 -1.1667 -0.5831
   47MOL    H6215794   3.901   5.879   4.452  0.6773 -1.5581  0.3243
   47MOL    H6315795   4.031   6.120   4.579 -0.4304 -0.5076  1.3718
   47MOL    H6415796   3.837   6.286   4.671  1.6828  0.7091 -0.7276
   47MOL    H6515797   3.870   6.288   4.502 -0.8380  2.1949  0.6383
   47MOL    H6615798   3.627   6.326   4.647  0.3880  0.0500 -0.3223
   47MOL    H6715799   3.635   6.325   4.468 -2.3395  1.1295  1.0720
   47MOL    H6815800   3.543   6.122   4.674 -0.4850 -0.5149  1.0634
   47MOL    H6915801   3.533   6.098   4.493 -0.9287 -0.6597  1.2348
   47MOL    C7015802   3.973   5.976   4.720 -0.3081  0.3948 -0.4301
   47MOL    C7115803   4.120   5.949   4.758 -1.1269  0.7052 -0.4665
   47MOL    N7215804   4.192   6.083   4.772  0.6328 -0.2665  0.1252
   47MOL    C7315805   4.305   6.114   4.684  0.0643  0.0062  0.1540
   47MOL    C7415806   4.324   6.262   4.703  0.9820 -0.1853  0.3173
   47MOL    C7515807   4.271   6.293   4.842 -0.9078 -0.8191 -0.5876
   47MOL    C7615808   4.174   6.179   4.869 -0.4405 -0.0266 -0.0776
   47MOL    O7715809   4.095   6.174   4.962 -0.5762  0.2560 -0.0315
   47MOL    H7815810   3.922   5.880   4.716 -0.4969  0.5410 -2.4173
   47MOL    H7915811   3.926   6.031   4.802 -0.3295 -0.5923  0.2147
   47MOL    H8015812   4.170   5.898   4.675 -0.0030 -0.3176  0.8007
   47MOL    H8115813   4.390   6.053   4.714  2.1417  2.1896 -1.0993
   47MOL    H8215814   4.277   6.079   4.585  0.4986 -2.5210  0.8740
   47MOL    H8315815   4.426   6.298   4.708  0.6291  0.9951 -0.6100
   47MOL    H8415816   4.266   6.318   4.629  1.7977 -1.0528 -0.9955
   47MOL    H8515817   4.339   6.284   4.926 -1.0450  1.8167 -0.1387
   47MOL    H8615818   4.205   6.380   4.848 -0.0037 -0.1915  0.3901
   47MOL    C8715819   4.132   5.865   4.885 -0.0700 -0.2523  0.2892
   47MOL    C8815820   4.061   5.731   4.877 -0.7543  0.0746 -0.2019
   47MOL    N8915821   4.099   5.651   4.758  0.2635  0.4290 -0.0542
   47MOL    C9015822   3.990   5.589   4.684 -0.3824 -0.2310 -0.1743
   47MOL    C9115823   4.049   5.535   4.559 -0.2534 -0.6059 -0.3651
   47MOL    C9215824   4.197   5.546   4.578 -0.4734  0.3178  0.6786
   47MOL    C9315825   4.217   5.629   4.705 -0.6088 -0.2609 -0.0872
   47MOL    O9415826   4.322   5.665   4.755 -0.5960 -0.4598  0.9945
   47MOL    H9515827   4.105   5.921   4.975  0.7619 -1.6318  1.4070
   47MOL    H9615828   4.237   5.846   4.910  0.0343  2.0912  1.8290
   47MOL    H9715829   3.954   5.751   4.876 -0.6031  0.9526  0.3616
   47MOL    H9815830   3.942   5.506   4.736 -1.4349 -1.0067 -2.3079
   47MOL    H9915831   3.913   5.662   4.660 -1.4952 -0.8087  1.5430
   47MOL   H10015832   4.016   5.432   4.548 -1.1864 -0.5026  1.3425
   47MOL   H10115833   4.021   5.591   4.469  2.2287  1.0471 -0.1432
   47MOL   H10215834   4.239   5.447   4.595  0.4821  0.8508  1.5005
   47MOL   H10315835   4.258   5.599   4.505  0.6489 -2.3634 -0.3801
   47MOL   C10415836   4.084   5.648   5.008 -0.5295  0.6519 -0.0258
   47MOL   C10515837   4.052   5.710   5.144 -0.6263 -0.4500  0.2994
   47MOL   N10615838   3.907   5.759   5.151 -0.9376 -0.3828 -0.2969
   47MOL   C10715839   3.875   5.897   5.186 -0.0337 -0.0593 -0.2509
   47MOL   C10815840   3.719   5.912   5.167 -0.0121  0.4496 -0.4505
   47MOL   C10915841   3.680   5.777   5.099  0.2636 -0.6224  0.6346
   47MOL   C11015842   3.802   5.690   5.113  0.2006 -0.5465 -0.1457
   47MOL   O11115843   3.805   5.575   5.077  0.0154 -0.6233 -0.4623
   47MOL   H11215844   4.187   5.613   5.018 -0.7223 -1.5085 -4.4572
   47MOL   H11315845   4.029   5.554   5.000  2.4578 -1.0532 -1.2427
   47MOL   H11415846   4.118   5.795   5.162  1.3525 -1.8047 -0.4075
   47MOL   H11515847   3.906   5.908   5.290  0.6237 -0.3644 -0.4153
   47MOL   H11615848   3.938   5.960   5.122  0.7191 -2.8225 -2.3303
   47MOL   H11715849   3.662   5.929   5.258  1.3440  2.0704  0.1052
   47MOL   H11815850   3.698   6.000   5.106  0.3430  0.5530 -0.4232
   47MOL   H11915851   3.652   5.804   4.997  1.5274 -1.6729  0.0025
   47MOL   H12015852   3.593   5.726   5.140 -1.4039  1.7651  0.2049
   47MOL   C12115853   4.076   5.611   5.263  0.7044  0.0504  0.1594
   47MOL   C12215854   4.233   5.585   5.287  0.1183  0.0012  0.3480
   47MOL   N12315855   4.308   5.710   5.328  0.0970  0.6476 -0.2550
   47MOL   C12415856   4.405   5.776   5.234  0.3257  0.4177  0.3257
   47MOL   C12515857   4.452   5.901   5.302 -0.3970 -0.3262  0.0935
   47MOL   C12615858   4.360   5.919   5.428 -0.0199  0.2514  0.8015
   47MOL   C12715859   4.284   5.786   5.434 -0.4176 -0.3495  0.4167
   47MOL   O12815860   4.203   5.768   5.527 -0.3032 -0.1209  0.0938
   47MOL   H12915861   4.036   5.513   5.238  0.3337 -0.1713  1.6163
   47MOL   H13015862   4.040   5.647   5.359  1.0167  2.8488 -0.7335
   47MOL   H13115863   4.277   5.558   5.191  0.6324  0.9324  0.3076
   47MOL   H13215864   4.365   5.792   5.134 -2.2263 -1.9378  0.9059
   47MOL   H13315865   4.498   5.722   5.217 -0.0006  0.2698 -1.0431
   47MOL   H13415866   4.556   5.882   5.331 -0.3597  0.5173  0.5187
   47MOL   H13515867   4.437   5.983   5.232  0.6088  0.1823  0.4694
   47MOL   H13615868   4.413   5.944   5.520  0.2545  1.2582  0.3744
   47MOL   H13715869   4.286   5.997   5.409  0.8054  0.6114 -0.9918
   47MOL   C13815870   4.252   5.466   5.379  0.3363 -0.0340  0.2100
   47MOL   C13915871   4.222   5.327   5.315 -0.1450 -0.1039 -0.6674
   47MOL   N14015872   4.295   5.312   5.193 -0.1488  0.4769 -0.4040
   47MOL   C14115873   4.223   5.304   5.067  0.2511 -0.4429  0.0472
   47MOL   C14215874   4.329   5.344   4.963  1.7386 -0.1587 -0.2109
   47MOL   C14315875   4.469   5.322   5.036 -0.3939 -0.2909 -0.9841
   47MOL   C14415876   4.429   5.301   5.181 -0.3304 -0.3474 -0.9357
   47MOL   O14515877   4.513   5.275   5.266  0.1574  0.3233  0.2583
   47MOL   H14615878   4.206   5.479   5.477 -2.2838 -2.4946 -0.6129
   47MOL   H14715879   4.359   5.473   5.402  0.6400  2.5561 -1.8308
   47MOL   H14815880   4.117   5.321   5.289 -0.3067 -0.3830  0.0486
   47MOL   H14915881   4.186   5.202   5.053 -0.7018 -0.2302  0.9689
   47MOL   H15015882   4.142   5.375   5.077  0.8896  0.2858  0.0814
   47MOL   H15115883   4.305   5.279   4.879 -2.5883  2.0579 -0.8731
   47MOL   H15215884   4.318   5.448   4.932  2.1610 -0.0623 -0.0489
   47MOL   H15315885   4.547   5.397   5.024  2.6045 -3.1604 -0.2459
   47MOL   H15415886   4.521   5.232   5.000 -0.3380 -0.2500 -1.0067
   47MOL   C15515887   4.255   5.209   5.412  0.3828 -0.0316 -0.1534
   47MOL   C15615888   4.164   5.193   5.542  0.5145  0.1234  0.1840
   47MOL   N15715889   4.018   5.190   5.513 -0.3661 -0.2944  0.2670
   47MOL   C15815890   3.919   5.274   5.582 -0.2138  0.7002  0.1215
   47MOL   C15915891   3.779   5.225   5.536 -0.2862 -0.1098  0.2160
   47MOL   C16015892   3.804   5.096   5.453  0.1649 -0.0694 -0.6476
   47MOL   C16115893   3.955   5.101   5.431  0.2602  0.0989 -0.3354
   47MOL   O16215894   4.008   5.026   5.350 -0.1089 -0.1866  0.6371
   47MOL   H16315895   4.362   5.208   5.432  0.4074 -0.4098 -0.3036
   47MOL   H16415896   4.243   5.122   5.347 -1.6578  0.4238 -0.4321
   47MOL   H16515897   4.166   5.288   5.596  0.4853 -0.8229  1.8790
   47MOL   H16615898   3.935   5.256   5.688  2.4764  1.5397 -0.1054
   47MOL   H16715899   3.938   5.380   5.564 -2.4560  1.0329 -0.5119
   47MOL   H16815900   3.710   5.211   5.619 -2.1226 -0.2912 -1.3044
   47MOL   H16915901   3.742   5.307   5.475  0.5626  1.2703  1.5364
   47MOL   H17015902   3.774   5.012   5.516  1.2748  0.3829  0.5244
   47MOL   H17115903   3.751   5.111   5.359 -0.1872  0.0524 -0.4314
   47MOL   C17215904   4.199   5.072   5.630 -0.2795  0.2212  0.2792
   47MOL   C17315905   4.344   5.081   5.683 -0.2727 -0.7925  0.0076
   47MOL   N17415906   4.368   5.207   5.751 -0.4669  0.0210  0.2461
   47MOL   C17515907   4.477   5.287   5.706 -0.2996 -0.1872  0.0029
   47MOL   C17615908   4.487   5.408   5.800  0.4642  0.7112  0.7215
   47MOL   C17715909   4.366   5.380   5.897 -0.6354 -0.2107  0.2961
   47MOL   C17815910   4.305   5.250   5.859  0.1503  0.0256 -0.0184
   47MOL   O17915911   4.215   5.190   5.917 -0.2834 -0.5590 -0.0087
   47MOL   H18015912   4.193   4.977   5.578 -0.0646 -1.1468  2.6655
   47MOL   H18115913   4.136   5.050   5.716 -0.0767  1.1772  0.6817
   47MOL   H18215914   4.410   5.080   5.596 -0.2098  1.7201 -0.0038
   47MOL   H18315915   4.576   5.241   5.716  0.5574  1.3608 -1.0885
   47MOL   H18415916   4.465   5.330   5.607  1.5163  1.5035  0.4748
   47MOL   H18515917   4.463   5.497   5.742  0.8896  0.1365 -0.3346
   47MOL   H18615918   4.579   5.423   5.856  1.4250 -2.0759 -0.0283
   47MOL   H18715919   4.416   5.382   5.994 -0.2171 -1.8597  0.1331
   47MOL   H18815920   4.287   5.455   5.896 -1.6542 -1.2561  0.9658
   47MOL   C18915921   4.381   4.953   5.770 -0.4369 -0.0227 -0.4491
   47MOL   C19015922   4.404   4.821   5.694  0.0729 -0.4201 -1.1099
   47MOL   N19115923   4.526   4.822   5.612  0.2180  0.0122  0.4485
   47MOL   C19215924   4.508   4.818   5.468 -0.2249 -1.1458  0.8207
   47MOL   C19315925   4.646   4.867   5.418 -0.1337 -0.2432  0.0867
   47MOL   C19415926   4.743   4.818   5.526 -0.0384 -0.5004  0.0955
   47MOL   C19515927   4.658   4.823   5.649 -0.0129  0.1130  0.3916
   47MOL   O19615928   4.710   4.813   5.761 -0.5004  0.0306 -0.7989
   47MOL   H19715929   4.310   4.945   5.852 -0.0576  1.9665  0.0731
   47MOL   H19815930   4.478   4.981   5.812 -1.2861 -0.1803  1.6866
   47MOL   H19915931   4.321   4.807   5.624  0.6059 -0.8961 -1.6526
   47MOL   H20015932   4.485   4.715   5.441 -1.8256 -0.6102  0.0943
   47MOL   H20115933   4.432   4.889   5.436  0.4356 -1.1821 -0.8796
   47MOL   H20215934   4.686   4.834   5.322  0.5134  1.0293 -0.0931
   47MOL   H20315935   4.639   4.976   5.424  1.1911 -0.0475 -1.4694
   47MOL   H20415936   4.798   4.725   5.509  3.0794  1.4682 -0.9619
   47MOL   H20515937   4.824   4.887   5.548  2.0197 -2.7708 -0.1455
   47MOL   C20615938   4.392   4.689   5.772 -0.5424  0.0506  0.3002
   47MOL   C20715939   4.244   4.638   5.814 -0.1596  0.2263  0.6774
   47MOL   N20815940   4.163   4.621   5.697  0.4173  0.1213  0.8365
   47MOL   C20915941   4.038   4.694   5.692  0.4444 -0.5366  0.5999
   47MOL   C21015942   3.977   4.686   5.554 -1.1000 -0.3690 -0.0884
   47MOL   C21115943   4.065   4.581   5.489  0.5674  0.3037 -0.0466
   47MOL   C21215944   4.182   4.558   5.579  0.5674  0.8270  0.3556
   47MOL   O21315945   4.278   4.497   5.547 -0.3633 -0.2908 -0.5400
   47MOL   H21415946   4.458   4.688   5.859 -0.8381  4.0846  0.6816
   47MOL   H21515947   4.429   4.620   5.697 -0.6732 -0.2824  0.5399
   47MOL   H21615948   4.203   4.714   5.880 -3.1113  1.5514 -2.5451
   47MOL   H21715949   3.970   4.659   5.770  0.3336 -1.4564  0.0859
   47MOL   H21815950   4.053   4.799   5.718 -1.9231  0.1155 -0.5586
   47MOL   H21915951   3.874   4.654   5.570 -1.4214  0.5709 -0.2200
   47MOL   H22015952   3.978   4.784   5.505 -1.7332 -0.2879  0.0535
   47MOL   H22115953   4.018   4.485   5.468  2.2853 -0.9310  1.5799
   47MOL   H22215954   4.096   4.617   5.391  0.1971  1.9482  0.4338
   47MOL   C22315955   4.243   4.498   5.888  0.2554 -0.1366  0.2311
   47MOL   C22415956   4.248   4.499   6.044  0.7934  0.2659 -0.3613
   47MOL   N22515957   4.345   4.599   6.100  0.1976 -0.6898  0.1547
   47MOL   C22615958   4.485   4.554   6.118 -0.1458  0.1661  0.1360
   47MOL   C22715959   4.567   4.677   6.120  0.3174  0.6372 -0.3477
   47MOL   C22815960   4.465   4.800   6.133  0.1912 -0.1393 -0.1576
   47MOL   C22915961   4.335   4.732   6.117  0.3364  0.1519 -0.3137
   47MOL   O23015962   4.230   4.793   6.121 -0.2193 -0.4330 -0.2664
   47MOL   H23115963   4.327   4.436   5.857  0.6765 -0.0018  1.0951
   47MOL   H23215964   4.157   4.446   5.846  0.0620 -1.0200  1.7169
   47MOL   H23315965   4.274   4.400   6.081  0.3703 -0.6122 -2.3391
   47MOL   H23415966   4.491   4.499   6.212 -3.0999 -1.0517 -0.3207
   47MOL   H23515967   4.517   4.482   6.042  0.3164 -1.8801  2.1909
   47MOL   H23615968   4.649   4.674   6.192 -0.2320 -0.4938  0.2412
   47MOL   H23715969   4.618   4.690   6.025  0.5219  1.7649 -0.0938
   47MOL   H23815970   4.472   4.843   6.233 -0.3270 -0.5331  0.0529
   47MOL   H23915971   4.481   4.869   6.049 -1.9317 -2.3007 -2.4171
   47MOL   C24015972   4.100   4.517   6.102  0.2137  0.7834  0.7046
   47MOL   C24115973   4.080   4.505   6.258 -0.7938 -0.8148  0.0461
   47MOL   N24215974   3.972   4.600   6.312 -0.4692  0.5108 -0.6064
   47MOL   C24315975   4.017   4.713   6.398  0.3371 -0.7370 -0.4911
   47MOL   C24415976   3.885   4.789   6.424  0.3606  0.0381  0.1296
   47MOL   C24515977   3.770   4.690   6.391 -0.0611 -0.4488 -0.0567
   47MOL   C24615978   3.840   4.593   6.297  0.0529 -0.0764 -0.3447
   47MOL   O24715979   3.777   4.528   6.212  0.4267 -0.0657  0.5569
   47MOL   H24815980   4.052   4.434   6.050  0.4622  1.8737 -1.3433
   47MOL   H24915981   4.057   4.609   6.061  1.6957  0.4773 -1.6293
   47MOL   H25015982   4.172   4.550   6.295 -0.1936 -1.8912 -0.1296
   47MOL   H25115983   4.062   4.691   6.495 -0.2808  0.5949  0.1077
   47MOL   H25215984   4.090   4.771   6.341 -0.8862 -0.7767 -2.1404
   47MOL   H25315985   3.879   4.828   6.526  3.1888 -1.2581  0.8365
   47MOL   H25415986   3.886   4.882   6.367 -0.1403  0.6944  1.1837
   47MOL   H25515987   3.733   4.634   6.477  0.5644 -2.3697 -1.0265
   47MOL   H25615988   3.689   4.743   6.340  0.2727  0.8207  0.7136
   47MOL   C25715989   4.051   4.357   6.301 -0.8029 -0.2902 -0.7501
   47MOL   C25815990   4.051   4.327   6.454  0.1008  0.1693  0.8969
   47MOL   N25915991   3.940   4.248   6.499  0.0494 -0.3544 -0.3572
   47MOL   C26015992   3.834   4.303   6.578  0.7390  1.0380 -0.0771
   47MOL   C26115993   3.721   4.202   6.553  0.3234  0.1824  0.7111
   47MOL   C26215994   3.787   4.068   6.518 -0.5100 -0.1425 -0.7064
   47MOL   C26315995   3.914   4.123   6.453  0.3254  0.4212 -0.2838
   47MOL   O26415996   3.977   4.052   6.370 -0.2318  0.4866 -0.1561
   47MOL   H26515997   4.113   4.277   6.259 -0.1002 -0.3852  0.4558
   47MOL   H26615998   3.953   4.320   6.270 -0.3186 -1.3441 -1.0650
   47MOL   H26715999   4.038   4.423   6.504 -0.2164 -0.1158  1.3573
   47MOL   H26816000   3.868   4.289   6.681 -2.9094 -0.8140  1.0004
   47MOL   H26916001   3.802   4.403   6.551  0.9049  0.7921 -1.2032
   47MOL   H27016002   3.660   4.202   6.644 -3.6111  1.4952 -1.8288
   47MOL   H27116003   3.668   4.245   6.469  1.5200 -0.3153 -0.3118
   47MOL   H27216004   3.826   4.019   6.607 -3.3305 -0.6203  0.3170
   47MOL   H27316005   3.726   4.003   6.456 -1.9472 -0.5954  1.1660
   47MOL   C27416006   4.176   4.262   6.508  0.0819  0.0430  0.3906
   47MOL   C27516007   4.181   4.235   6.664 -0.0372 -0.0971  0.0869
   47MOL   N27616008   4.254   4.106   6.685 -0.3973 -0.1956 -0.0054
   47MOL   C27716009   4.189   4.006   6.768  0.1009 -0.1784  0.2102
   47MOL   C27816010   4.292   3.890   6.788  0.5669  0.3541 -0.0006
   47MOL   C27916011   4.425   3.946   6.737 -0.2955  0.0515  0.1434
   47MOL   C28016012   4.381   4.070   6.655 -0.1921  0.1796 -0.5431
   47MOL   O28116013   4.452   4.136   6.582 -0.2983  0.9451 -0.2265
   47MOL   H28216014   4.258   4.317   6.462 -0.8752 -2.1868 -4.2862
   47MOL   H28316015   4.177   4.162   6.464 -1.3982  1.1491 -2.2479
   47MOL   H28416016   4.081   4.212   6.701  0.2138 -1.4515 -0.0196
   47MOL   H28516017   4.177   4.044   6.869  0.2628 -2.0228  0.9451
   47MOL   H28616018   4.099   3.971   6.717 -0.3663  1.4528 -0.1159
   47MOL   H28716019   4.291   3.855   6.891 -1.6173 -0.6108 -0.3076
   47MOL   H28816020   4.267   3.805   6.724  0.3843  0.5870 -0.2383
   47MOL   H28916021   4.490   3.977   6.818 -1.5324 -2.1253  2.0160
   47MOL   H29016022   4.475   3.872   6.675  1.3792  0.2685  1.2192
   47MOL   C29116023   4.234   4.349   6.749 -0.3686 -0.8990  0.2032
   47MOL   C29216024   4.140   4.461   6.795 -0.6454 -0.4253 -0.5027
   47MOL   N29316025   4.050   4.433   6.910  0.4410 -0.6291  0.2227
   47MOL   C29416026   3.914   4.490   6.908  0.6860  0.0246  0.4075
   47MOL   C29516027   3.839   4.420   7.022 -0.2508 -0.0158  0.0448
   47MOL   C29616028   3.952   4.342   7.102 -0.2096 -0.0004 -0.5247
   47MOL   C29716029   4.075   4.357   7.019 -0.0640 -1.1506 -0.1976
   47MOL   O29816030   4.181   4.305   7.054  0.2132  0.1425  0.0950
   47MOL   H29916031   4.320   4.394   6.699 -0.6762  0.0635  0.5261
   47MOL   H30016032   4.289   4.306   6.833  0.1956 -0.7053 -0.0678
   47MOL   H30116033   4.080   4.488   6.708 -2.3098  0.8971  1.0085
   47MOL   H30216034   3.922   4.598   6.920  0.5259  0.0385  0.3915
   47MOL   H30316035   3.863   4.469   6.814  0.0900 -2.7474  1.2962
   47MOL   H30416036   3.779   4.492   7.078  1.4546  2.0652 -0.7447
   47MOL   H30516037   3.765   4.348   6.985 -1.2509 -0.1822  2.3022
   47MOL   H30616038   3.979   4.382   7.200  3.1483 -0.5575 -1.1656
   47MOL   H30716039   3.921   4.240   7.124  0.5493  0.1314  1.2048
   47MOL   C30816040   4.226   4.579   6.843 -0.1041 -0.2874  0.6855
   47MOL   C30916041   4.271   4.687   6.736 -0.0236  0.4061  0.1867
   47MOL   N31016042   4.341   4.788   6.809 -0.1364 -0.3680 -0.0809
   47MOL   C31116043   4.291   4.928   6.807 -0.6715 -0.0265 -0.0401
   47MOL   C31216044   4.395   5.001   6.884  0.1468  0.1147  0.1112
   47MOL   C31316045   4.501   4.905   6.933  0.9251  0.1953  0.2112
   47MOL   C31416046   4.458   4.772   6.875  0.0582  0.0829 -0.1961
   47MOL   O31516047   4.530   4.674   6.884  0.2477  0.1978  0.1890
   47MOL   H31616048   4.315   4.531   6.886  1.3799  1.2853 -0.5447
   47MOL   H31716049   4.190   4.636   6.928  0.3694  0.1264  0.6114
   47MOL   H31816050   4.182   4.738   6.698 -0.1772  0.9675  1.2927
   47MOL   H31916051   4.264   4.960   6.706 -0.3446 -1.5280 -0.6333
   47MOL   H32016052   4.196   4.932   6.859 -0.6013 -0.1572  0.1010
   47MOL   H32116053   4.450   5.072   6.822  0.0704 -1.0943 -1.3829
   47MOL   H32216054   4.344   5.034   6.974  1.1101  0.9338  0.3762
   47MOL   H32316055   4.598   4.933   6.893  0.2724 -0.7057 -2.0620
   47MOL   H32416056   4.502   4.898   7.042 -0.5606  0.4142  0.2491
   47MOL   C32516057   4.359   4.635   6.613 -0.3045  0.1486  0.3671
   47MOL   C32616058   4.406   4.745   6.514 -0.5995  0.4112 -0.3442
   47MOL   N32716059   4.544   4.801   6.547  1.0317  0.5226 -0.4194
   47MOL   C32816060   4.658   4.721   6.573 -0.6140  0.3314 -0.1734
   47MOL   C32916061   4.774   4.816   6.612 -0.0813  1.3107 -0.4669
   47MOL   C33016062   4.715   4.962   6.599 -0.2603 -0.1792 -0.6059
   47MOL   C33116063   4.570   4.933   6.555  0.5954 -0.4646  0.0776
   47MOL   O33216064   4.487   5.016   6.515  0.7286  0.5417 -0.2165
   47MOL   H33316065   4.300   4.555   6.568  0.5963 -0.5058  0.3505
   47MOL   H33416066   4.446   4.575   6.641  0.9008  1.9336  0.5124
   47MOL   H33516067   4.335   4.828   6.515  0.4768  1.3271  1.7741
   47MOL   H33616068   4.640   4.642   6.645 -1.5834 -0.7675 -1.6004
   47MOL   H33716069   4.696   4.677   6.481 -0.1317  1.2782 -0.4441
   47MOL   H33816070   4.799   4.784   6.713 -1.7402 -0.6735 -0.6555
   47MOL   H33916071   4.867   4.807   6.554  1.2532 -0.4391  1.8865
   47MOL   H34016072   4.704   5.024   6.688  2.8950  2.5277 -1.9917
   47MOL   H34116073   4.750   5.028   6.520  0.8987 -2.3126 -1.9154
   47MOL   H34216074   4.418   4.703   6.414  0.2249  2.1146 -0.9778
   48MOL     C116075   0.771   2.887   5.864  0.1399 -0.7785  0.0286
   48MOL     C216076   0.840   2.951   5.736 -0.0745 -0.1874 -0.4728
   48MOL     N316077   0.760   2.952   5.618 -0.1924 -0.0614 -0.0531
   48MOL     C416078   0.802   2.872   5.504  0.4803  0.4562  0.3380
   48MOL     C516079   0.675   2.883   5.410  0.1842 -0.4061  0.1283
   48MOL     C616080   0.570   2.960   5.484  0.1952  0.2072  0.1195
   48MOL     C716081   0.636   3.006   5.610 -0.0486 -0.2480 -0.2714
   48MOL     O816082   0.584   3.084   5.696  0.2691 -0.0116 -0.2119
   48MOL     H916083   0.686   2.942   5.904  1.7884  2.3418 -0.5523
   48MOL    H1016084   0.735   2.787   5.842 -1.5881 -0.3746  0.9350
   48MOL    H1116085   0.926   2.887   5.718  1.1660  1.0837  0.7911
   48MOL    H1216086   0.896   2.913   5.465  0.8716 -0.2322  0.5513
   48MOL    H1316087   0.810   2.767   5.530 -2.7525  0.1773  0.4215
   48MOL    H1416088   0.701   2.942   5.322  0.7022 -2.5516 -1.2016
   48MOL    H1516089   0.639   2.783   5.385 -1.2565  0.7404 -2.6800
   48MOL    H1616090   0.519   3.037   5.427  0.3996 -0.6490 -1.2182
   48MOL    H1716091   0.494   2.890   5.519 -1.9137  0.9836 -2.7425
   48MOL    H1816092   0.841   2.881   5.948  0.4229  1.2712 -0.0255
   48MOL    C1916093   0.895   3.094   5.764 -0.1338  0.3151  0.1652
   48MOL    C2016094   1.016   3.109   5.853  0.2161  0.0871  0.0148
   48MOL    N2116095   1.138   3.169   5.801 -0.4083  0.1684  0.1394
   48MOL    C2216096   1.257   3.092   5.825 -0.1832 -0.4930  0.0860
   48MOL    C2316097   1.365   3.183   5.762  0.2913  0.0243  0.3542
   48MOL    C2416098   1.299   3.296   5.688 -0.6269  0.3070 -0.6552
   48MOL    C2516099   1.153   3.276   5.726 -0.2573 -0.1474  0.4100
   48MOL    O2616100   1.072   3.356   5.686  0.1423  0.1429  0.9028
   48MOL    H2716101   0.819   3.166   5.791 -1.1800 -0.9109  0.5458
   48MOL    H2816102   0.930   3.135   5.670  2.0794 -1.3707  0.2139
   48MOL    H2916103   1.035   3.008   5.890  0.9358 -0.3799 -1.5550
   48MOL    H3016104   1.276   3.068   5.930  0.7907  1.0280  0.2766
   48MOL    H3116105   1.243   3.005   5.760  2.7094 -0.3062 -0.8933
   48MOL    H3216106   1.437   3.225   5.834 -0.3031  0.1983  0.8561
   48MOL    H3316107   1.429   3.114   5.708  1.5058  0.9952  0.5080
   48MOL    H3416108   1.336   3.394   5.719  2.2958 -1.4223  1.5660
   48MOL    H3516109   1.319   3.276   5.583 -1.4991  0.8343 -0.9215
   48MOL    C3616110   0.978   3.188   5.980  0.2679  0.3442  1.0169
   48MOL    C3716111   1.073   3.189   6.104  0.3244  0.0950  0.4607
   48MOL    N3816112   1.045   3.303   6.197  0.3163  0.2596  0.0867
   48MOL    C3916113   1.138   3.417   6.202  0.5301 -0.2995 -0.7214
   48MOL    C4016114   1.078   3.511   6.309  0.3002 -0.2113  0.0187
   48MOL    C4116115   0.936   3.452   6.346  0.1345  0.4204  0.1394
   48MOL    C4216116   0.935   3.313   6.274  0.2010 -0.1530  0.2922
   48MOL    O4316117   0.845   3.234   6.283 -0.0220  0.4393 -0.4891
   48MOL    H4416118   0.880   3.151   6.010 -0.6296 -0.8814 -3.0613
   48MOL    H4516119   0.958   3.290   5.949  1.0387  0.5736  1.2704
   48MOL    H4616120   1.173   3.202   6.063  0.9986 -0.1690  2.0095
   48MOL    H4716121   1.231   3.379   6.245  0.3092 -0.1352 -0.1006
   48MOL    H4816122   1.147   3.453   6.100  1.4638  0.9174 -0.2287
   48MOL    H4916123   1.151   3.527   6.388 -1.0449  3.4894  0.6221
   48MOL    H5016124   1.062   3.614   6.277  3.0235  0.0589 -0.5695
   48MOL    H5116125   0.922   3.448   6.454  0.5117  1.2440  0.2203
   48MOL    H5216126   0.856   3.518   6.314 -2.7467 -1.4886  3.1396
   48MOL    C5316127   1.079   3.048   6.179  0.3559  0.5999 -0.3400
   48MOL    C5416128   1.137   3.035   6.327 -0.8104  0.0449 -0.4413
   48MOL    N5516129   1.146   2.894   6.372 -0.0587 -0.3285 -0.5818
   48MOL    C5616130   1.088   2.866   6.507  0.2948 -0.0921  0.1438
   48MOL    C5716131   1.138   2.726   6.542 -0.1489  0.5630 -0.0237
   48MOL    C5816132   1.180   2.654   6.409  0.3475  0.0920  0.5929
   48MOL    C5916133   1.195   2.778   6.320 -0.3641 -0.2352  0.1837
   48MOL    O6016134   1.254   2.767   6.218  0.0145 -0.5561  0.2855
   48MOL    H6116135   1.149   2.993   6.116 -1.1739 -0.1638 -1.3953
   48MOL    H6216136   0.994   2.981   6.189 -0.0356  0.8461 -1.9350
   48MOL    H6316137   1.062   3.079   6.393  0.8850  1.8429  0.3277
   48MOL    H6416138   1.107   2.948   6.577 -1.6332  0.2715  0.2566
   48MOL    H6516139   0.980   2.865   6.495  0.2761 -2.1312  0.3065
   48MOL    H6616140   1.221   2.736   6.611 -1.0104 -3.1516  1.7199
   48MOL    H6716141   1.050   2.674   6.580 -0.5746  0.3219 -1.2830
   48MOL    H6816142   1.278   2.606   6.414  0.0004 -0.3993  4.3080
   48MOL    H6916143   1.102   2.602   6.353  0.0068 -0.4899  1.5933
   48MOL    C7016144   1.283   3.094   6.346  0.7417 -0.2865 -0.8317
   48MOL    C7116145   1.334   3.119   6.497 -0.8183  1.1253  0.1296
   48MOL    N7216146   1.475   3.153   6.502 -0.0558  0.5832  0.4971
   48MOL    C7316147   1.567   3.047   6.548  0.3348 -0.0243 -0.4315
   48MOL    C7416148   1.702   3.109   6.518 -0.0330  0.2312  0.3692
   48MOL    C7516149   1.688   3.250   6.450  0.2139  0.0445 -0.2354
   48MOL    C7616150   1.535   3.263   6.451  0.1369  1.2478  0.0407
   48MOL    O7716151   1.476   3.364   6.402 -0.2376 -0.5650  0.1664
   48MOL    H7816152   1.292   3.185   6.288  2.4219  2.0158  2.8319
   48MOL    H7916153   1.353   3.027   6.297  1.4150  0.5613 -1.0289
   48MOL    H8016154   1.317   3.026   6.551  0.5835  0.2203 -0.9795
   48MOL    H8116155   1.547   3.027   6.654  1.7954 -3.9178 -0.8305
   48MOL    H8216156   1.544   2.957   6.493  1.2708 -0.4501 -0.1363
   48MOL    H8316157   1.757   3.118   6.611  1.3076 -0.2074 -0.3626
   48MOL    H8416158   1.765   3.051   6.450  1.2023 -1.6707  3.0162
   48MOL    H8516159   1.744   3.329   6.499  0.4835  0.3398 -1.0125
   48MOL    H8616160   1.728   3.249   6.348  0.8852 -0.0884  0.0258
   48MOL    C8716161   1.236   3.201   6.582 -0.4021 -0.3401 -0.4581
   48MOL    C8816162   1.272   3.204   6.736  0.5256  0.5087 -0.6059
   48MOL    N8916163   1.189   3.311   6.807 -0.0338  0.6576 -0.5690
   48MOL    C9016164   1.246   3.406   6.899 -0.2864 -0.4662  0.6431
   48MOL    C9116165   1.129   3.465   6.978  0.3190 -0.6371  0.8399
   48MOL    C9216166   1.005   3.408   6.925  0.2004  0.3785  0.2739
   48MOL    C9316167   1.056   3.321   6.808 -0.1751  0.2331  0.6875
   48MOL    O9416168   0.983   3.253   6.735  0.2732 -1.2192 -0.1899
   48MOL    H9516169   1.133   3.169   6.571 -0.8052  0.1147  1.8332
   48MOL    H9616170   1.233   3.304   6.546 -1.0155  0.0063  0.5783
   48MOL    H9716171   1.373   3.240   6.753  0.1449  1.2844  0.0470
   48MOL    H9816172   1.327   3.373   6.965 -0.1053 -0.0762  0.6196
   48MOL    H9916173   1.296   3.481   6.837 -2.2202  0.7487  0.5025
   48MOL   H10016174   1.131   3.440   7.084  1.3109  0.6506  1.1388
   48MOL   H10116175   1.112   3.573   6.971 -1.8806 -0.8531  2.3351
   48MOL   H10216176   0.974   3.338   7.002 -0.6050  0.6234  0.1779
   48MOL   H10316177   0.928   3.483   6.907 -1.1176 -0.7066  1.2720
   48MOL   C10416178   1.239   3.066   6.807  0.8026  0.1341 -0.3690
   48MOL   C10516179   1.259   3.056   6.960  0.1748 -0.0241  0.3635
   48MOL   N10616180   1.203   2.933   7.020  0.3844 -0.0692 -0.3933
   48MOL   C10716181   1.133   2.944   7.144  0.1562  0.0935  0.1768
   48MOL   C10816182   1.127   2.804   7.207 -0.3845  0.9966 -0.5175
   48MOL   C10916183   1.157   2.710   7.099 -0.3613 -0.2434 -0.3859
   48MOL   C11016184   1.219   2.799   6.996 -0.0636  0.2991  0.9273
   48MOL   O11116185   1.280   2.743   6.907 -0.2690 -0.4049  0.4636
   48MOL   H11216186   1.302   2.991   6.761  1.7696  1.0067 -0.4788
   48MOL   H11316187   1.133   3.044   6.790  1.3717 -2.5982 -0.6339
   48MOL   H11416188   1.206   3.140   7.005 -0.4827  0.1621 -0.7291
   48MOL   H11516189   1.178   3.024   7.203  0.4510 -1.2758  1.8465
   48MOL   H11616190   1.032   2.971   7.113 -0.7851 -3.1660  0.2603
   48MOL   H11716191   1.195   2.790   7.291 -1.0294 -1.1139 -0.3175
   48MOL   H11816192   1.028   2.783   7.248  0.2508 -1.4101 -0.1184
   48MOL   H11916193   1.064   2.666   7.062  0.7476 -2.8670 -0.1490
   48MOL   H12016194   1.229   2.637   7.135  0.1057  0.6456  0.5016
   48MOL   C12116195   1.411   3.061   6.990 -0.8690  0.0567 -0.0331
   48MOL   C12216196   1.462   3.044   7.131 -0.1727 -0.0918  0.3670
   48MOL   N12316197   1.611   3.006   7.130 -0.4798  0.4298  0.0716
   48MOL   C12416198   1.651   2.873   7.175 -0.1403  1.5277 -0.0371
   48MOL   C12516199   1.806   2.862   7.156 -0.5637  0.0792  0.1395
   48MOL   C12616200   1.848   3.003   7.113 -0.4406  0.1355 -0.1590
   48MOL   C12716201   1.719   3.080   7.098  0.1989  0.2047  0.3998
   48MOL   O12816202   1.719   3.191   7.046  0.1181  0.5500 -0.4055
   48MOL   H12916203   1.458   3.153   6.955 -0.4818 -0.5325 -1.0750
   48MOL   H13016204   1.469   2.991   6.930 -0.0865  0.6916 -0.0268
   48MOL   H13116205   1.406   2.956   7.164  0.5273 -0.4720  0.5475
   48MOL   H13216206   1.599   2.801   7.112 -1.1688  1.6528  0.6659
   48MOL   H13316207   1.617   2.856   7.277 -0.5655 -0.1919 -0.4624
   48MOL   H13416208   1.859   2.820   7.242  2.6261 -0.8949 -2.2014
   48MOL   H13516209   1.822   2.796   7.071  2.0608 -0.1309  0.7461
   48MOL   H13616210   1.908   3.060   7.183 -2.2221  0.4484  1.1587
   48MOL   H13716211   1.899   3.000   7.016  0.3210  0.6833  0.2235
   48MOL   C13816212   1.433   3.164   7.222 -0.4270  0.2968  0.1040
   48MOL   C13916213   1.462   3.141   7.369 -0.2360 -0.0205  0.5315
   48MOL   N14016214   1.462   3.274   7.447 -0.2115 -0.0927  0.3125
   48MOL   C14116215   1.585   3.319   7.512  0.3899  0.5251  0.2952
   48MOL   C14216216   1.544   3.450   7.582  0.3255 -0.0128 -0.4668
   48MOL   C14316217   1.390   3.466   7.565 -0.0713 -0.3296  0.2046
   48MOL   C14416218   1.356   3.355   7.465 -0.0102  0.0750 -0.1708
   48MOL   O14516219   1.237   3.339   7.430  0.4045  0.1389  0.5315
   48MOL   H14616220   1.337   3.209   7.198  0.3654  1.1566 -1.6173
   48MOL   H14716221   1.502   3.243   7.191  2.3990 -2.1985 -0.2940
   48MOL   H14816222   1.565   3.105   7.368  0.2426  1.2949 -1.6429
   48MOL   H14916223   1.619   3.252   7.591  1.8498  0.3473 -0.4854
   48MOL   H15016224   1.670   3.349   7.451  0.9613 -0.4261  0.6119
   48MOL   H15116225   1.579   3.451   7.685  3.2358  0.2218 -1.4103
   48MOL   H15216226   1.591   3.534   7.531  0.0886  1.6183  1.9462
   48MOL   H15316227   1.358   3.566   7.536 -0.1490  0.3403  2.5054
   48MOL   H15416228   1.354   3.447   7.666  1.3304  0.4038  0.8515
   48MOL   C15516229   1.364   3.036   7.432 -0.3498  0.4503  0.3455
   48MOL   C15616230   1.401   2.978   7.571 -0.0166 -0.2255 -0.1676
   48MOL   N15716231   1.271   2.930   7.635  0.2517  0.5193 -0.0562
   48MOL   C15816232   1.187   3.023   7.719 -0.1187 -0.1462 -0.3179
   48MOL   C15916233   1.055   2.953   7.739  0.0927  0.8627 -0.3033
   48MOL   C16016234   1.065   2.819   7.656 -0.4760  0.6807  0.5152
   48MOL   C16116235   1.199   2.821   7.595 -0.5436 -0.1950 -0.0555
   48MOL   O16216236   1.231   2.729   7.525 -0.4630  0.0358  0.1070
   48MOL   H16316237   1.356   2.953   7.363 -0.1292 -0.3328  1.2585
   48MOL   H16416238   1.264   3.078   7.432  0.4133  2.3616  1.9343
   48MOL   H16516239   1.418   3.069   7.628  1.8204 -0.4398 -0.3616
   48MOL   H16616240   1.238   3.052   7.810 -0.0176 -1.3125  0.0082
   48MOL   H16716241   1.159   3.103   7.651 -0.1927  0.2007  0.1221
   48MOL   H16816242   1.043   2.924   7.843  2.1830  0.4303 -0.1635
   48MOL   H16916243   0.973   3.017   7.705 -0.7101  0.8107  1.5023
   48MOL   H17016244   1.038   2.729   7.711 -0.7590  0.4688  0.0272
   48MOL   H17116245   1.002   2.826   7.568 -0.4871  0.0096  0.4716
   48MOL   C17216246   1.529   2.888   7.573  0.0538 -0.5216  0.1566
   48MOL   C17316247   1.601   2.866   7.703  0.8655  0.7373 -0.4754
   48MOL   N17416248   1.699   2.754   7.702 -0.3663 -0.3730 -0.0863
   48MOL   C17516249   1.660   2.629   7.761  0.5670 -0.3899 -0.9644
   48MOL   C17616250   1.780   2.537   7.748  0.0564 -0.5204 -0.2618
   48MOL   C17716251   1.867   2.601   7.640 -0.5751  0.0880 -0.1127
   48MOL   C17816252   1.814   2.743   7.632  1.1374  0.3524 -0.1982
   48MOL   O17916253   1.867   2.833   7.570 -0.2219  0.5031 -0.1776
   48MOL   H18016254   1.604   2.916   7.499 -2.3032  0.3737 -2.0117
   48MOL   H18116255   1.499   2.791   7.532  1.9436 -1.0617  0.0057
   48MOL   H18216256   1.527   2.827   7.772  3.5471 -1.1547  1.4682
   48MOL   H18316257   1.651   2.631   7.870 -0.3936 -0.8539 -1.0309
   48MOL   H18416258   1.577   2.581   7.709 -0.3873 -0.0936  0.2642
   48MOL   H18516259   1.757   2.431   7.736 -0.0576 -0.3668 -1.5154
   48MOL   H18616260   1.837   2.545   7.840 -0.3078  1.9619 -0.2099
   48MOL   H18716261   1.972   2.592   7.669 -0.4353 -3.4507 -1.4902
   48MOL   H18816262   1.851   2.545   7.548 -1.5340 -1.4600  0.9882
   48MOL   C18916263   1.667   3.001   7.763 -0.1815 -0.8739  0.6350
   48MOL   C19016264   1.660   2.995   0.012  0.1146  0.2611 -0.0592
   48MOL   N19116265   1.742   3.105   0.057 -0.1557 -0.1480  0.7236
   48MOL   C19216266   1.867   3.063   0.106  0.0305  0.7926  0.2350
   48MOL   C19316267   1.947   3.191   0.113 -0.9234  0.4358  0.1194
   48MOL   C19416268   1.844   3.310   0.114  0.3523  0.3919  0.7764
   48MOL   C19516269   1.732   3.239   0.041  0.8356  0.2267  0.1398
   48MOL   O19616270   1.642   3.300   7.885  0.2179 -0.1180 -0.4230
   48MOL   H19716271   1.612   3.089   7.731 -1.5213 -1.8103  0.3336
   48MOL   H19816272   1.769   3.014   7.726  0.6103  0.1468  3.0351
   48MOL   H19916273   1.695   2.900   0.053  0.0515 -0.1061 -0.8431
   48MOL   H20016274   1.861   3.006   0.199  0.0332  0.9129  0.3079
   48MOL   H20116275   1.922   3.005   0.032 -0.5631  0.1497  0.2935
   48MOL   H20216276   2.027   3.189   0.187 -2.3480 -3.4054  1.6532
   48MOL   H20316277   1.996   3.204   0.017 -0.4299 -1.9654  0.0301
   48MOL   H20416278   1.806   3.357   0.204  0.4494  0.1274  0.9565
   48MOL   H20516279   1.876   3.390   0.047  1.4432 -1.4556 -0.9903
   48MOL   C20616280   1.517   3.025   0.064  0.2360  0.4694 -0.0496
   48MOL   C20716281   1.492   3.066   0.213 -0.2076  0.5046  0.5587
   48MOL   N20816282   1.353   3.109   0.235  0.3761 -0.2209  0.0797
   48MOL   C20916283   1.330   3.250   0.245  0.0060  0.9926  0.7958
   48MOL   C21016284   1.179   3.270   0.253  0.2963  0.3308 -0.2499
   48MOL   C21116285   1.114   3.137   0.216  0.0405  0.1639  0.2468
   48MOL   C21216286   1.235   3.045   0.206 -0.6389  0.0112 -0.1645
   48MOL   O21316287   1.220   2.931   0.170 -0.3431  0.3213 -0.2352
   48MOL   H21416288   1.448   2.942   0.049 -0.8664  1.5481 -1.1017
   48MOL   H21516289   1.476   3.109   0.007  2.2705  0.6401 -1.3002
   48MOL   H21616290   1.563   3.143   0.244  2.4368 -1.6872  0.1880
   48MOL   H21716291   1.372   3.303   0.331  0.2399 -0.9083  1.8806
   48MOL   H21816292   1.358   3.301   0.152  0.6774  2.8509  1.9936
   48MOL   H21916293   1.140   3.291   0.353  0.3332 -1.1628  0.0934
   48MOL   H22016294   1.140   3.358   0.202  0.3375  1.0046  0.8539
   48MOL   H22116295   1.046   3.093   0.289  1.6621  1.9603  2.9679
   48MOL   H22216296   1.065   3.137   0.119  2.2977  1.2859 -0.9422
   48MOL   C22316297   1.521   2.949   0.307  0.2566 -0.1510 -0.0890
   48MOL   C22416298   1.553   2.995   0.455 -0.0150 -0.1560  0.3995
   48MOL   N22516299   1.503   2.902   0.554  0.0126  0.4749 -0.3967
   48MOL   C22616300   1.375   2.926   0.626  0.2533  0.0754 -0.1998
   48MOL   C22716301   1.371   2.828   0.742 -0.2182 -0.9680  0.7120
   48MOL   C22816302   1.496   2.737   0.723  0.4096 -0.0095  0.2568
   48MOL   C22916303   1.565   2.787   0.598 -0.0591  0.4626  0.1178
   48MOL   O23016304   1.667   2.738   0.557  0.1073  0.0222  0.5176
   48MOL   H23116305   1.612   2.902   0.270  0.8617  1.3036 -0.4789
   48MOL   H23216306   1.447   2.868   0.303 -3.6692  3.2029  1.7563
   48MOL   H23316307   1.502   3.090   0.473  0.9266  1.1847 -3.4801
   48MOL   H23416308   1.360   3.028   0.661 -1.1627 -0.4648  0.8184
   48MOL   H23516309   1.302   2.900   0.549 -1.2667 -1.6304  1.7427
   48MOL   H23616310   1.367   2.874   0.841  0.5985  0.4233  0.1097
   48MOL   H23716311   1.280   2.769   0.729 -2.3259  2.8108 -2.5755
   48MOL   H23816312   1.563   2.758   0.807  0.4989  2.1791 -0.3347
   48MOL   H23916313   1.479   2.629   0.724  2.7527 -0.3947  0.8083
   48MOL   C24016314   1.710   3.033   0.470 -0.3344  0.1993 -0.2354
   48MOL   C24116315   1.745   3.069   0.614  0.4576 -0.2694  0.3325
   48MOL   N24216316   1.886   3.065   0.634  0.3705 -0.5982 -0.5389
   48MOL   C24316317   1.974   3.170   0.596  0.1284  0.6816  0.7294
   48MOL   C24416318   2.113   3.104   0.576 -0.8203 -0.6062  0.1902
   48MOL   C24516319   2.101   2.956   0.614  0.9468  0.0674  0.1317
   48MOL   C24616320   1.951   2.948   0.650 -0.3324 -0.3769  0.3130
   48MOL   O24716321   1.903   2.842   0.682 -0.4458  0.2504 -0.2532
   48MOL   H24816322   1.739   3.109   0.397 -0.5553  0.4799 -0.0331
   48MOL   H24916323   1.770   2.947   0.442 -1.3285 -0.2446 -1.0370
   48MOL   H25016324   1.706   2.991   0.679 -0.4314 -1.0146 -1.0556
   48MOL   H25116325   1.957   3.188   0.489  0.4242  1.9722  0.8906
   48MOL   H25216326   1.968   3.258   0.661 -0.8051 -0.2113  1.8623
   48MOL   H25316327   2.157   3.139   0.483 -0.6022 -2.8580 -0.5854
   48MOL   H25416328   2.168   3.150   0.657  0.1214 -1.9308  0.3149
   48MOL   H25516329   2.124   2.891   0.530 -0.2569  0.3650 -0.4336
   48MOL   H25616330   2.165   2.930   0.698  1.7529 -0.1543 -0.5446
   48MOL   C25716331   1.676   3.196   0.660 -0.7235  0.4205  0.4999
   48MOL   C25816332   1.699   3.228   0.808  0.3532 -0.0434 -0.2164
   48MOL   N25916333   1.638   3.353   0.845  0.1346 -0.5622  0.1870
   48MOL   C26016334   1.719   3.466   0.880 -0.5576  0.2891  0.5345
   48MOL   C26116335   1.619   3.579   0.924  0.1296 -0.4681 -0.3791
   48MOL   C26216336   1.484   3.519   0.896 -0.4870 -0.3774 -0.4573
   48MOL   C26316337   1.510   3.378   0.845  0.7369 -0.0224  0.1259
   48MOL   O26416338   1.417   3.310   0.804  0.4117 -0.4069 -0.6991
   48MOL   H26516339   1.569   3.180   0.647 -0.3820 -1.0532 -0.6524
   48MOL   H26616340   1.718   3.282   0.607 -0.0169  1.0901  2.1235
   48MOL   H26716341   1.806   3.241   0.824  0.2359 -0.2938  0.8438
   48MOL   H26816342   1.790   3.449   0.961 -0.8289  1.2056  0.9684
   48MOL   H26916343   1.780   3.496   0.794 -0.1526 -2.9869 -0.3868
   48MOL   H27016344   1.637   3.590   1.031 -0.1045  1.6702 -0.5388
   48MOL   H27116345   1.638   3.671   0.870 -0.4805 -0.9585 -1.4686
   48MOL   H27216346   1.420   3.510   0.983  0.6089 -0.2606  0.3767
   48MOL   H27316347   1.435   3.588   0.827  2.0436  1.6126 -0.3393
   48MOL   C27416348   1.669   3.112   0.907  0.2157  0.1690  0.2608
   48MOL   C27516349   1.713   3.118   1.055  0.4031 -0.8617  0.4150
   48MOL   N27616350   1.855   3.093   1.075  0.2886 -1.3545 -0.2778
   48MOL   C27716351   1.890   2.952   1.104 -0.1463  0.6729  0.0225
   48MOL   C27816352   2.038   2.952   1.087  0.4498  0.9057  0.6927
   48MOL   C27916353   2.075   3.080   1.009  0.5616 -0.2004 -0.0282
   48MOL   C28016354   1.951   3.165   1.022 -0.9660  0.1435  0.8850
   48MOL   O28116355   1.950   3.287   1.005 -0.3761 -0.4629  0.0583
   48MOL   H28216356   1.716   3.020   0.873  1.5097  0.3196  1.6191
   48MOL   H28316357   1.561   3.101   0.909  0.1910  0.2308 -0.3976
   48MOL   H28416358   1.663   3.025   1.080 -2.6644  0.3803 -0.7785
   48MOL   H28516359   1.858   2.930   1.205  1.6936 -0.2102  0.4419
   48MOL   H28616360   1.844   2.879   1.037 -1.9930  0.9834  0.9273
   48MOL   H28716361   2.081   2.951   1.188 -0.9325 -0.0621  1.2775
   48MOL   H28816362   2.074   2.858   1.045 -1.7943  1.8476 -3.5159
   48MOL   H28916363   2.163   3.132   1.050  0.5887 -0.7901  0.6628
   48MOL   H29016364   2.084   3.059   0.902 -0.0328  1.0213 -0.3347
   48MOL   C29116365   1.645   3.228   1.144  0.6104  0.5364  0.3695
   48MOL   C29216366   1.652   3.214   1.298 -0.6625  0.5412 -0.9401
   48MOL   N29316367   1.778   3.271   1.362  0.7923  0.1620  0.3044
   48MOL   C29416368   1.862   3.175   1.427 -0.9318  0.2563 -0.3249
   48MOL   C29516369   1.961   3.265   1.500 -0.2894 -0.4197 -0.1419
   48MOL   C29616370   1.943   3.412   1.457  0.6210 -0.3357  0.6208
   48MOL   C29716371   1.819   3.402   1.374  0.7281 -0.5912 -0.3113
   48MOL   O29816372   1.766   3.492   1.311  0.2259  0.0049  0.3380
   48MOL   H29916373   1.541   3.224   1.114  0.3580  1.7490  1.0378
   48MOL   H30016374   1.683   3.324   1.109 -1.0327  0.8283 -0.6537
   48MOL   H30116375   1.642   3.108   1.321  1.2171  0.6172  0.2853
   48MOL   H30216376   1.814   3.103   1.494  1.0128 -0.6753  0.0958
   48MOL   H30316377   1.902   3.119   1.343  3.3946  0.7848  1.2943
   48MOL   H30416378   1.943   3.250   1.606 -0.9103 -3.2813 -0.5978
   48MOL   H30516379   2.064   3.236   1.482  0.1826 -0.3556  2.3474
   48MOL   H30616380   1.926   3.481   1.539 -2.3864  1.1879 -1.2124
   48MOL   H30716381   2.016   3.465   1.396  0.2571 -0.0458  0.4345
   48MOL   C30816382   1.525   3.279   1.364  0.8113 -0.3368  0.9639
   48MOL   C30916383   1.523   3.272   1.520  0.1331  0.9657  0.3305
   48MOL   N31016384   1.568   3.404   1.580  0.8039  0.3090 -0.1038
   48MOL   C31116385   1.665   3.411   1.690  0.4258 -0.1043 -0.5139
   48MOL   C31216386   1.699   3.561   1.704  0.0519 -0.6022 -0.5934
   48MOL   C31316387   1.597   3.633   1.614  0.2798  0.3253 -0.0519
   48MOL   C31416388   1.505   3.521   1.564  0.0120  0.2941  0.3966
   48MOL   O31516389   1.389   3.540   1.519 -0.5822  0.5121 -0.0543
   48MOL   H31616390   1.441   3.222   1.324  0.8305  0.8702 -0.8418
   48MOL   H31716391   1.505   3.381   1.332  1.3780 -0.5684 -0.1388
   48MOL   H31816392   1.601   3.202   1.549 -1.2851 -0.4024  0.9263
   48MOL   H31916393   1.615   3.366   1.775  1.1789  0.8823  0.4765
   48MOL   H32016394   1.752   3.353   1.658 -0.3993 -2.0066  0.6720
   48MOL   H32116395   1.678   3.587   1.808  1.3946 -0.7027 -0.2854
   48MOL   H32216396   1.804   3.579   1.680 -0.2092  1.5693 -0.2025
   48MOL   H32316397   1.540   3.696   1.682  0.7627  0.1462  0.5198
   48MOL   H32416398   1.648   3.695   1.540  0.2110  0.3082 -0.1136
   48MOL   C32516399   1.389   3.229   1.580  0.4793 -0.5642 -0.3985
   48MOL   C32616400   1.378   3.075   1.581  0.0801  0.1554  0.3829
   48MOL   N32716401   1.475   3.003   1.667 -0.3144  0.4274 -0.2601
   48MOL   C32816402   1.499   3.021   1.811 -0.0340 -0.1061 -0.8217
   48MOL   C32916403   1.601   2.914   1.844 -0.1116  0.4252 -0.5644
   48MOL   C33016404   1.649   2.860   1.710 -0.0743  0.4504  0.0374
   48MOL   C33116405   1.557   2.915   1.614  0.0853 -0.1694 -0.5002
   48MOL   O33216406   1.552   2.878   1.498  0.5318 -0.0435 -0.1036
   48MOL   H33316407   1.311   3.277   1.521  1.7965 -0.1659 -1.8548
   48MOL   H33416408   1.384   3.267   1.682 -1.4136  1.2110 -1.1309
   48MOL   H33516409   1.378   3.036   1.480  1.4868  0.4700  0.2545
   48MOL   H33616410   1.540   3.118   1.836 -0.0655 -0.1681 -0.5169
   48MOL   H33716411   1.408   3.001   1.869  1.5232 -0.6169  1.5061
   48MOL   H33816412   1.682   2.957   1.904  0.5212 -1.4074 -0.0860
   48MOL   H33916413   1.544   2.840   1.901  0.7659 -0.7539 -1.1928
   48MOL   H34016414   1.749   2.901   1.693  0.6700 -0.6474  1.6845
   48MOL   H34116415   1.655   2.752   1.700  1.1050  0.6126 -1.0906
   48MOL   H34216416   1.283   3.041   1.623 -1.1107  2.4700 -0.3932
   49MOL     C116417   1.523   4.930   1.870 -0.1656 -0.2640  0.5531
   49MOL     C216418   1.557   4.875   1.736  0.0236 -0.2202  0.5617
   49MOL     N316419   1.542   4.977   1.630  0.7285  0.1455 -0.8644
   49MOL     C416420   1.469   4.937   1.518  0.0280  0.7202  0.5252
   49MOL     C516421   1.495   5.042   1.408 -0.0811  0.6925 -0.2833
   49MOL     C616422   1.582   5.144   1.470  0.1390  0.1076  0.2272
   49MOL     C716423   1.592   5.100   1.613  0.7284  0.5662  0.0879
   49MOL     O816424   1.632   5.168   1.710 -0.4444 -0.3650  0.0729
   49MOL     H916425   1.589   5.014   1.893  0.4215  0.6447 -3.9647
   49MOL    H1016426   1.417   4.956   1.876 -0.0937  0.7613 -1.9091
   49MOL    H1116427   1.495   4.787   1.719 -1.7581  0.7069  1.9740
   49MOL    H1216428   1.491   4.839   1.475 -0.6958  0.8538 -0.1784
   49MOL    H1316429   1.362   4.949   1.537 -0.0888  2.7013 -1.1465
   49MOL    H1416430   1.539   4.990   1.324 -1.8444  0.2849 -0.9814
   49MOL    H1516431   1.401   5.084   1.373 -0.3892 -0.4897 -0.9152
   49MOL    H1616432   1.681   5.128   1.428 -0.0875  0.9584 -0.6490
   49MOL    H1716433   1.547   5.247   1.463  0.6827  0.3534  0.9608
   49MOL    H1816434   1.539   4.860   1.952  0.9307  1.5429  1.9414
   49MOL    C1916435   1.706   4.819   1.738 -0.5516 -0.0210 -0.1196
   49MOL    C2016436   1.731   4.688   1.808  0.1983 -0.3939 -0.0535
   49MOL    N2116437   1.655   4.578   1.755  0.1600  0.2271 -0.2403
   49MOL    C2216438   1.546   4.516   1.834 -1.0792 -0.7708  0.2980
   49MOL    C2316439   1.477   4.414   1.744 -0.6348  0.0605 -0.2194
   49MOL    C2416440   1.563   4.411   1.613  0.8394 -0.7141  0.5242
   49MOL    C2516441   1.675   4.515   1.636 -0.3154 -0.0827  0.5090
   49MOL    O2616442   1.766   4.541   1.555 -0.1158 -0.0158 -0.3244
   49MOL    H2716443   1.765   4.889   1.798 -2.6038  0.1549  1.7285
   49MOL    H2816444   1.748   4.803   1.639  2.8450  0.6518  1.1350
   49MOL    H2916445   1.686   4.702   1.906 -1.1544  1.0711 -0.8627
   49MOL    H3016446   1.582   4.453   1.916  1.3238 -1.0200 -0.9089
   49MOL    H3116447   1.477   4.590   1.876 -1.2603 -0.4574 -0.5566
   49MOL    H3216448   1.478   4.310   1.777 -1.7909  0.6790  1.8694
   49MOL    H3316449   1.371   4.436   1.730 -0.9275 -0.9111  0.3609
   49MOL    H3416450   1.614   4.318   1.585  1.2854 -0.7194  1.3310
   49MOL    H3516451   1.501   4.449   1.532  1.1065  1.2112  1.1912
   49MOL    C3616452   1.881   4.648   1.809 -1.7132  0.2982 -0.2054
   49MOL    C3716453   1.957   4.701   1.936  0.9831  0.0807 -0.5258
   49MOL    N3816454   1.907   4.639   2.054  0.2569 -0.3608  0.5023
   49MOL    C3916455   1.837   4.724   2.148 -0.1480  0.5631  0.0143
   49MOL    C4016456   1.798   4.624   2.258  0.2022  0.2280  0.2249
   49MOL    C4116457   1.829   4.482   2.210  0.7227  0.7915 -0.2903
   49MOL    C4216458   1.918   4.511   2.090  0.6397  0.5274 -0.0079
   49MOL    O4316459   1.979   4.421   2.032 -0.5563  0.4794  0.2544
   49MOL    H4416460   1.930   4.682   1.718 -0.4723 -0.3858  0.1817
   49MOL    H4516461   1.893   4.540   1.801  0.7526  0.6507 -2.0586
   49MOL    H4616462   1.933   4.806   1.953 -0.2641 -0.7075  2.9464
   49MOL    H4716463   1.899   4.800   2.195 -0.6973  1.0852 -0.1140
   49MOL    H4816464   1.744   4.768   2.113 -1.3248 -0.8457  1.3294
   49MOL    H4916465   1.842   4.656   2.352  0.3210  0.9673 -0.0803
   49MOL    H5016466   1.690   4.636   2.272  0.2347  1.7825 -0.7426
   49MOL    H5116467   1.873   4.429   2.295 -1.1098  2.6428  1.9038
   49MOL    H5216468   1.747   4.428   2.162  2.3349 -1.2770 -0.7919
   49MOL    C5316469   2.116   4.682   1.925  0.7505  0.0994  0.9505
   49MOL    C5416470   2.196   4.744   1.804  0.0004  0.3552 -0.1993
   49MOL    N5516471   2.145   4.881   1.775  0.1633 -0.5244 -0.5983
   49MOL    C5616472   2.077   4.917   1.650 -0.6283 -0.2094 -0.0214
   49MOL    C5716473   2.067   5.069   1.655  0.3079 -0.1167  0.1761
   49MOL    C5816474   2.111   5.119   1.787 -0.1519  0.1387 -0.1948
   49MOL    C5916475   2.171   4.994   1.848  0.4273 -0.7573  0.1972
   49MOL    O6016476   2.244   4.995   1.949  0.3817  0.0286 -0.5923
   49MOL    H6116477   2.149   4.578   1.929  0.3244 -0.0903 -0.2388
   49MOL    H6216478   2.144   4.739   2.013 -1.4343  1.0639  1.0579
   49MOL    H6316479   2.169   4.691   1.713  3.5186 -0.4901 -0.7991
   49MOL    H6416480   2.135   4.877   1.566  0.3565 -0.5365  0.8038
   49MOL    H6516481   1.976   4.877   1.654 -0.4962 -0.5268  0.1075
   49MOL    H6616482   2.134   5.107   1.578 -0.8318  1.6278 -0.0009
   49MOL    H6716483   1.968   5.108   1.630  1.6199  2.6845 -0.8797
   49MOL    H6816484   2.180   5.203   1.778  2.1654 -1.6393  0.5589
   49MOL    H6916485   2.026   5.152   1.847 -0.4452 -2.5549  0.9409
   49MOL    C7016486   2.349   4.738   1.802  0.3745 -0.1207 -0.3382
   49MOL    C7116487   2.409   4.596   1.803 -1.0488 -0.7465  0.0746
   49MOL    N7216488   2.369   4.522   1.681 -0.2876 -0.4477 -0.5330
   49MOL    C7316489   2.351   4.378   1.688  0.5249  0.1577  0.4355
   49MOL    C7416490   2.376   4.331   1.544 -0.2472 -0.8509 -0.0719
   49MOL    C7516491   2.375   4.451   1.455 -0.3829 -0.2036 -0.3735
   49MOL    C7616492   2.390   4.565   1.557 -0.0977 -0.2390  0.1217
   49MOL    O7716493   2.448   4.666   1.521 -0.6965 -0.6074  0.6670
   49MOL    H7816494   2.383   4.796   1.888 -1.2826  0.3535  0.0116
   49MOL    H7916495   2.387   4.801   1.722  0.0918  0.4996  0.0125
   49MOL    H8016496   2.363   4.544   1.886  0.4900  1.6789  2.5442
   49MOL    H8116497   2.419   4.339   1.764 -1.4034 -1.5144  1.3276
   49MOL    H8216498   2.253   4.343   1.721  1.6565 -1.8758  1.7713
   49MOL    H8316499   2.465   4.268   1.540  1.2459  1.2716 -1.1640
   49MOL    H8416500   2.292   4.268   1.513 -3.4869  2.3926  1.7186
   49MOL    H8516501   2.450   4.445   1.376  0.4839  1.0664  0.3271
   49MOL    H8616502   2.278   4.467   1.408 -0.4667  1.5543  0.3719
   49MOL    C8716503   2.564   4.605   1.830 -0.1794 -0.2832  0.6225
   49MOL    C8816504   2.613   4.614   1.972  0.0093  0.0305  0.8012
   49MOL    N8916505   2.549   4.528   2.073  1.1168  0.4651  0.7805
   49MOL    C9016506   2.448   4.584   2.162  0.4097 -0.2007 -0.6238
   49MOL    C9116507   2.375   4.468   2.233  0.2083  0.3305 -0.2164
   49MOL    C9216508   2.439   4.344   2.177  1.2464  0.8058  0.1645
   49MOL    C9316509   2.546   4.397   2.084  0.1952 -0.0729  0.7755
   49MOL    O9416510   2.607   4.318   2.023  0.1556 -0.1717  0.1337
   49MOL    H9516511   2.593   4.691   1.770 -2.4388 -0.5320 -0.9176
   49MOL    H9616512   2.615   4.517   1.793 -0.3333 -0.7006  1.3825
   49MOL    H9716513   2.592   4.716   2.003 -0.6742  0.1717 -0.0868
   49MOL    H9816514   2.501   4.637   2.241 -0.8368 -2.4371  1.8100
   49MOL    H9916515   2.371   4.649   2.121 -2.1135 -3.1557 -0.7295
   49MOL   H10016516   2.377   4.469   2.342  1.4743  2.8089 -0.2320
   49MOL   H10116517   2.270   4.463   2.203 -0.2749  1.1889  1.2537
   49MOL   H10216518   2.497   4.301   2.259 -0.2098 -1.3159  0.1295
   49MOL   H10316519   2.374   4.273   2.127  3.5932 -0.8222 -0.6898
   49MOL   C10416520   2.772   4.601   1.979  0.2311  0.0028 -0.0495
   49MOL   C10516521   2.851   4.727   1.951  1.1775 -0.0259  0.1242
   49MOL   N10616522   2.805   4.843   2.039  0.3016 -0.1765  0.2782
   49MOL   C10716523   2.751   4.965   1.983  0.3445 -0.3492  0.1955
   49MOL   C10816524   2.747   5.068   2.095 -0.8718 -0.6270  0.0547
   49MOL   C10916525   2.764   4.983   2.225  0.2347 -0.5020 -0.3171
   49MOL   C11016526   2.807   4.853   2.176  0.3026 -0.4266 -0.2373
   49MOL   O11116527   2.855   4.770   2.250  0.2718 -0.4211  0.8759
   49MOL   H11216528   2.810   4.515   1.924  0.4825 -0.3125  0.6161
   49MOL   H11316529   2.794   4.579   2.083  0.9538  0.8459 -0.0147
   49MOL   H11416530   2.839   4.757   1.847 -1.2477  0.7866  0.6077
   49MOL   H11516531   2.820   5.009   1.911 -1.1296  0.2372 -0.8897
   49MOL   H11616532   2.657   4.947   1.932  0.9936 -1.1356 -0.7379
   49MOL   H11716533   2.824   5.144   2.083 -3.4621  1.9784 -0.6968
   49MOL   H11816534   2.652   5.122   2.090  0.9688  2.7878  0.9093
   49MOL   H11916535   2.664   4.973   2.266  0.6879 -3.5591  0.1724
   49MOL   H12016536   2.827   5.040   2.294 -0.4498  0.4372 -0.4582
   49MOL   C12116537   3.007   4.697   1.975 -0.3018  0.1864 -0.8735
   49MOL   C12216538   3.100   4.816   1.921  0.3014  0.1675  0.9521
   49MOL   N12316539   3.236   4.801   1.977 -0.2594 -0.3747 -0.2034
   49MOL   C12416540   3.292   4.915   2.051 -0.2420  0.2456 -0.3278
   49MOL   C12516541   3.431   4.865   2.111  0.3136  0.3740  0.1028
   49MOL   C12616542   3.434   4.717   2.081 -0.9330  0.3943 -0.1678
   49MOL   C12716543   3.307   4.687   1.999 -0.6832  0.2976 -0.0464
   49MOL   O12816544   3.273   4.574   1.952  0.0746  0.3448 -0.5555
   49MOL   H12916545   3.032   4.610   1.914 -1.8491  0.5807 -2.0748
   49MOL   H13016546   3.023   4.679   2.082  0.7848  0.3950 -1.0005
   49MOL   H13116547   3.054   4.901   1.970  0.6190  1.0765 -0.3015
   49MOL   H13216548   3.230   4.932   2.139  1.7913  1.8906  0.8329
   49MOL   H13316549   3.299   5.009   1.996  2.9723 -0.4111 -1.1375
   49MOL   H13416550   3.516   4.913   2.064  0.4412 -0.4098 -0.4816
   49MOL   H13516551   3.433   4.888   2.218  0.9958 -0.0064  0.1792
   49MOL   H13616552   3.523   4.697   2.021 -1.4412  2.7021 -1.7639
   49MOL   H13716553   3.437   4.658   2.173 -1.0797 -1.3573 -1.2516
   49MOL   C13816554   3.105   4.822   1.765 -0.0942  0.0144 -0.7220
   49MOL   C13916555   3.174   4.948   1.713 -0.0351  0.1741  0.4110
   49MOL   N14016556   3.170   4.956   1.566 -1.1392 -0.0621 -0.1079
   49MOL   C14116557   3.276   4.903   1.483  0.1916  0.0834 -0.6776
   49MOL   C14216558   3.244   4.951   1.339 -0.0571  0.3071 -0.1918
   49MOL   C14316559   3.101   4.992   1.348 -0.2485  0.2740  0.1925
   49MOL   C14416560   3.062   4.993   1.494  0.0540  0.5155  0.5373
   49MOL   O14516561   2.954   5.033   1.536 -0.5922 -0.9940  0.3234
   49MOL   H14616562   3.008   4.807   1.718  0.0229  0.8530 -1.2447
   49MOL   H14716563   3.164   4.740   1.725  1.2091  0.5222  0.1262
   49MOL   H14816564   3.277   4.935   1.749 -0.0803  1.5689  1.0584
   49MOL   H14916565   3.373   4.939   1.518 -0.5658  0.9648  0.5519
   49MOL   H15016566   3.274   4.795   1.482  0.1867  0.0895 -1.5326
   49MOL   H15116567   3.317   5.028   1.313  1.7043 -0.6390  1.7669
   49MOL   H15216568   3.258   4.874   1.262  0.9901  2.0995 -1.8488
   49MOL   H15316569   3.027   4.935   1.291 -1.0506  1.1916  0.2989
   49MOL   H15416570   3.084   5.096   1.319 -2.6521 -0.2571 -0.3987
   49MOL   C15516571   3.131   5.083   1.781 -0.3891 -0.2805  0.6940
   49MOL   C15616572   3.210   5.210   1.756 -0.0008  0.4425  0.0179
   49MOL   N15716573   3.140   5.323   1.814  0.5958  0.5969  0.0990
   49MOL   C15816574   3.065   5.409   1.720 -0.1848 -0.2758 -0.2815
   49MOL   C15916575   2.998   5.509   1.812  0.6201  0.0691 -0.1948
   49MOL   C16016576   3.028   5.462   1.956  0.1222 -0.0234 -0.6672
   49MOL   C16116577   3.136   5.359   1.941  0.1934  0.0731 -0.0893
   49MOL   O16216578   3.193   5.313   2.044 -0.1082  0.5310 -0.7295
   49MOL   H16316579   3.130   5.071   1.889  0.6777 -1.0100  0.6366
   49MOL   H16416580   3.028   5.098   1.750 -0.3024 -1.2520 -0.1226
   49MOL   H16516581   3.199   5.223   1.649 -0.5777 -0.1193  0.0007
   49MOL   H16616582   3.132   5.459   1.651  0.0991  0.1285  0.2937
   49MOL   H16716583   2.986   5.359   1.663 -2.2540  2.4652  0.0798
   49MOL   H16816584   3.031   5.611   1.792 -1.9133  0.9655  0.0169
   49MOL   H16916585   2.892   5.509   1.787  0.9331 -0.5597 -1.5706
   49MOL   H17016586   3.060   5.549   2.013 -0.9064 -0.3222  0.3810
   49MOL   H17116587   2.938   5.424   2.003 -0.1859  0.0411 -1.2093
   49MOL   C17216588   3.364   5.201   1.792  0.1566 -0.3062 -0.6345
   49MOL   C17316589   3.458   5.217   1.670  0.5070 -0.3005  0.0152
   49MOL   N17416590   3.436   5.348   1.600 -0.3061 -0.4368  0.0598
   49MOL   C17516591   3.427   5.475   1.668 -0.1158  0.6450  0.3493
   49MOL   C17616592   3.400   5.578   1.553 -0.4189  0.2679 -0.1614
   49MOL   C17716593   3.363   5.497   1.433 -0.0155  0.1772 -0.0393
   49MOL   C17816594   3.396   5.357   1.474 -0.4558 -0.3747  0.7182
   49MOL   O17916595   3.386   5.271   1.394 -0.4392 -0.4128  0.7067
   49MOL   H18016596   3.402   5.102   1.821 -0.7495  0.2573  2.6259
   49MOL   H18116597   3.382   5.252   1.887  0.9555  0.2408 -1.0738
   49MOL   H18216598   3.425   5.135   1.607  2.4415 -0.1578 -1.2128
   49MOL   H18316599   3.356   5.474   1.751 -0.5720 -1.7115 -0.0454
   49MOL   H18416600   3.523   5.496   1.715 -0.4069  1.6929  0.4934
   49MOL   H18516601   3.488   5.638   1.529 -0.3800  0.0009 -0.7021
   49MOL   H18616602   3.317   5.643   1.582 -0.1632  1.5052 -2.1256
   49MOL   H18716603   3.255   5.506   1.418  0.1802  1.4672 -0.8438
   49MOL   H18816604   3.411   5.527   1.340 -0.4043  1.3184  0.1130
   49MOL   C18916605   3.611   5.205   1.698 -0.1151 -0.7613 -0.2865
   49MOL   C19016606   3.669   5.080   1.761  0.7298 -0.2612  0.9209
   49MOL   N19116607   3.624   4.954   1.698 -0.5087 -0.8134 -0.3164
   49MOL   C19216608   3.571   4.844   1.780  0.1512  0.6308  0.2528
   49MOL   C19316609   3.554   4.724   1.693 -0.0527  0.3279 -0.6536
   49MOL   C19416610   3.595   4.766   1.556  0.2381 -0.9978  0.5052
   49MOL   C19516611   3.637   4.911   1.574  0.2908 -1.0479 -0.3386
   49MOL   O19616612   3.687   4.968   1.479 -0.2267 -0.0117 -0.2795
   49MOL   H19716613   3.646   5.292   1.753  0.2200  0.5160 -2.4361
   49MOL   H19816614   3.660   5.216   1.601 -1.6978  0.3572 -0.9785
   49MOL   H19916615   3.635   5.071   1.864 -1.6471  0.2054  0.2079
   49MOL   H20016616   3.639   4.824   1.863 -0.0462  1.4736  0.6176
   49MOL   H20116617   3.474   4.879   1.814 -1.6763 -2.4457 -1.5746
   49MOL   H20216618   3.619   4.642   1.721 -0.6473  0.0851  0.0277
   49MOL   H20316619   3.455   4.678   1.698  0.3864 -0.4879  0.9152
   49MOL   H20416620   3.675   4.709   1.508  0.1748  0.3600 -1.2956
   49MOL   H20516621   3.520   4.746   1.479 -1.5228 -1.1016  2.2045
   49MOL   C20616622   3.823   5.090   1.786  0.0585 -0.1226  0.0702
   49MOL   C20716623   3.876   5.199   1.887 -0.2193  0.1664  0.0342
   49MOL   N20816624   3.791   5.191   2.011 -0.1895 -0.0637  0.1009
   49MOL   C20916625   3.709   5.304   2.052  0.0724  0.6412  0.5306
   49MOL   C21016626   3.654   5.268   2.188  0.5730  0.8683  0.6046
   49MOL   C21116627   3.720   5.122   2.224  0.2053 -0.8320  0.3810
   49MOL   C21216628   3.796   5.086   2.096 -0.3771 -0.3601 -0.2631
   49MOL   O21316629   3.853   4.979   2.079 -0.5212  0.0584 -0.2895
   49MOL   H21416630   3.867   5.105   1.687 -0.0775 -1.8308 -0.2652
   49MOL   H21516631   3.879   4.999   1.806  1.1839 -0.3659 -3.7990
   49MOL   H21616632   3.849   5.294   1.840 -3.0246 -0.3613  0.4692
   49MOL   H21716633   3.766   5.397   2.049 -0.3780  0.8822 -1.0650
   49MOL   H21816634   3.627   5.325   1.982  0.8827  0.4426 -0.4868
   49MOL   H21916635   3.703   5.334   2.260  0.0760  2.0632 -0.1464
   49MOL   H22016636   3.545   5.268   2.195  0.2597 -0.2068 -3.1844
   49MOL   H22116637   3.786   5.126   2.311  1.1079 -0.9881 -0.2950
   49MOL   H22216638   3.647   5.045   2.246 -0.6500 -0.2831 -0.5215
   49MOL   C22316639   4.029   5.192   1.908  0.6874 -0.2830 -0.2786
   49MOL   C22416640   4.079   5.308   1.999 -0.5713  0.7346 -0.2401
   49MOL   N22516641   4.213   5.263   2.053 -0.2872  0.3764  0.3578
   49MOL   C22616642   4.210   5.210   2.188 -0.5672 -0.2700  0.1604
   49MOL   C22716643   4.349   5.145   2.208 -0.3142  0.3804  0.3890
   49MOL   C22816644   4.439   5.202   2.091  0.1730  0.1795 -0.3246
   49MOL   C22916645   4.339   5.271   2.002 -0.1285  0.0377 -0.6180
   49MOL   O23016646   4.370   5.325   1.897  0.3551  0.4389 -0.3373
   49MOL   H23116647   4.090   5.194   1.817 -1.0721 -0.5923 -1.4847
   49MOL   H23216648   4.061   5.098   1.953 -0.0310 -0.5477 -0.3162
   49MOL   H23316649   4.011   5.308   2.084  0.3930 -1.5548  0.5580
   49MOL   H23416650   4.200   5.288   2.264  1.4395  0.3057 -0.1456
   49MOL   H23516651   4.124   5.144   2.204 -0.4064 -0.6652 -0.5982
   49MOL   H23616652   4.387   5.172   2.307  0.6510  1.7005 -0.3274
   49MOL   H23716653   4.334   5.038   2.201 -1.0927  0.5693 -1.1007
   49MOL   H23816654   4.517   5.270   2.126  0.2503 -1.0799  2.1494
   49MOL   H23916655   4.485   5.119   2.038 -0.7069 -0.1241 -0.6194
   49MOL   C24016656   4.073   5.455   1.942 -0.9120  0.2215  0.0519
   49MOL   C24116657   3.996   5.558   2.021  1.3714  0.9223  0.3367
   49MOL   N24216658   4.023   5.561   2.172  0.2253 -0.1161  0.2167
   49MOL   C24316659   3.917   5.512   2.260  1.2694  0.3295 -0.4216
   49MOL   C24416660   3.972   5.540   2.397 -0.1446  0.8352  0.4282
   49MOL   C24516661   4.118   5.574   2.379 -0.7271 -0.5455 -0.4890
   49MOL   C24616662   4.137   5.581   2.235  0.1249  0.1464 -0.4806
   49MOL   O24716663   4.244   5.611   2.188 -0.2922  0.4974 -0.7531
   49MOL   H24816664   4.047   5.446   1.836  3.2557  0.0960 -1.0622
   49MOL   H24916665   4.176   5.491   1.939 -1.2719  1.2384 -0.2201
   49MOL   H25016666   3.890   5.533   2.009  1.7219 -1.4086  1.8123
   49MOL   H25116667   3.826   5.567   2.238  1.0108 -0.1637 -0.5746
   49MOL   H25216668   3.899   5.406   2.245 -2.0122  0.9071 -0.8463
   49MOL   H25316669   3.929   5.625   2.450 -0.1751  0.7023  0.6163
   49MOL   H25416670   3.957   5.447   2.451 -0.0084  0.0288 -0.9063
   49MOL   H25516671   4.147   5.670   2.422 -0.2193 -1.0987  0.4468
   49MOL   H25616672   4.180   5.492   2.417 -2.9141 -1.4334  1.3137
   49MOL   C25716673   4.028   5.699   1.970 -0.9875 -0.1118  0.1733
   49MOL   C25816674   3.922   5.788   2.010 -0.0043 -0.2823  0.3108
   49MOL   N25916675   3.974   5.928   2.022 -0.1180  0.5766  0.2326
   49MOL   C26016676   4.027   6.009   1.916 -0.1007 -0.2121 -0.0309
   49MOL   C26116677   4.076   6.139   1.974  0.4450 -0.5727 -0.0185
   49MOL   C26216678   4.045   6.132   2.116  0.3925  0.3244 -0.0151
   49MOL   C26316679   3.972   5.996   2.133 -0.5004 -0.1838 -0.7750
   49MOL   O26416680   3.936   5.956   2.242  0.2318  0.0294 -0.0784
   49MOL   H26516681   4.036   5.709   1.862  0.9303 -2.1179  0.0932
   49MOL   H26616682   4.128   5.727   2.002 -0.3664 -0.8923 -1.0394
   49MOL   H26716683   3.895   5.760   2.112 -0.3515  1.3088  0.6660
   49MOL   H26816684   4.091   5.961   1.843 -0.0331 -0.2972  0.0843
   49MOL   H26916685   3.941   6.043   1.858 -0.1433  1.3893  0.9414
   49MOL   H27016686   4.182   6.158   1.963  0.3438 -0.8946 -1.6938
   49MOL   H27116687   4.026   6.219   1.919  0.5626 -1.2916 -1.2033
   49MOL   H27216688   4.129   6.129   2.184 -1.7344  1.6457  2.7428
   49MOL   H27316689   3.979   6.212   2.148 -1.2260 -1.3238  0.8777
   49MOL   C27416690   3.788   5.785   1.925  0.2796  0.7004  0.7441
   49MOL   C27516691   3.668   5.854   1.996 -0.3376 -0.5568  0.4167
   49MOL   N27616692   3.589   5.923   1.891  1.2651 -0.5278 -0.9541
   49MOL   C27716693   3.582   6.068   1.895 -0.5702  0.5032 -0.7902
   49MOL   C27816694   3.514   6.121   1.756 -0.5488  0.1240 -0.4504
   49MOL   C27916695   3.448   5.993   1.705 -0.0449  0.1722  0.8804
   49MOL   C28016696   3.533   5.882   1.775 -0.5335 -0.6947 -0.5010
   49MOL   O28116697   3.537   5.770   1.729 -0.8626 -0.8214  1.1386
   49MOL   H28216698   3.766   5.679   1.909  1.6031  0.6969 -1.2284
   49MOL   H28316699   3.806   5.825   1.826 -2.1062 -1.5166 -0.6495
   49MOL   H28416700   3.712   5.935   2.055 -1.0286  1.2120 -1.4536
   49MOL   H28516701   3.534   6.090   1.990 -0.2568 -0.5469 -0.3839
   49MOL   H28616702   3.683   6.106   1.914 -0.5632  0.8076 -1.4175
   49MOL   H28716703   3.439   6.195   1.782 -1.1890 -0.1392 -1.5127
   49MOL   H28816704   3.593   6.162   1.693  0.8427 -0.5185  0.8432
   49MOL   H28916705   3.354   5.992   1.760 -0.2015  1.5095  0.6647
   49MOL   H29016706   3.440   5.971   1.599  1.0023  3.3771  0.0499
   49MOL   C29116707   3.588   5.747   2.069 -0.3080  0.2771 -0.7480
   49MOL   C29216708   3.475   5.803   2.159 -0.5041  0.7493  0.5239
   49MOL   N29316709   3.346   5.824   2.086 -0.1796 -0.1378 -0.6155
   49MOL   C29416710   3.283   5.956   2.102 -0.2677  0.4760  0.1236
   49MOL   C29516711   3.160   5.947   2.014  0.4491 -0.1167  0.5015
   49MOL   C29616712   3.166   5.815   1.936  0.0009 -0.2050  0.3290
   49MOL   C29716713   3.281   5.744   2.001 -0.6391  0.3162  0.0684
   49MOL   O29816714   3.312   5.628   1.966  0.0721 -0.2587 -0.5873
   49MOL   H29916715   3.656   5.690   2.133 -0.1734  2.0881  0.7712
   49MOL   H30016716   3.547   5.672   2.001  0.1754 -1.5407  0.9237
   49MOL   H30116717   3.511   5.898   2.199  0.4833  0.1753  1.0039
   49MOL   H30216718   3.261   5.958   2.209 -0.4397 -3.1802  0.2281
   49MOL   H30316719   3.355   6.034   2.076 -0.3423  0.2800 -0.6880
   49MOL   H30416720   3.066   5.966   2.065  0.7122  0.7193  0.6889
   49MOL   H30516721   3.168   6.028   1.941  2.8762 -1.1514 -0.4620
   49MOL   H30616722   3.074   5.757   1.946  0.2048 -0.8806 -1.4406
   49MOL   H30716723   3.189   5.830   1.830  1.0382 -0.9735  0.4347
   49MOL   C30816724   3.455   5.720   2.285  0.2179  0.1492 -0.3345
   49MOL   C30916725   3.535   5.772   2.404  0.0160 -0.5154  0.4446
   49MOL   N31016726   3.513   5.685   2.521  0.4148  0.2359  0.4635
   49MOL   C31116727   3.429   5.730   2.629  0.8510  0.2801 -0.9557
   49MOL   C31216728   3.444   5.628   2.738 -0.6509 -0.3062  0.1140
   49MOL   C31316729   3.510   5.506   2.675 -0.1883  0.2744  0.0949
   49MOL   C31416730   3.564   5.565   2.546 -0.2844  0.0879  0.7264
   49MOL   O31516731   3.634   5.497   2.470 -0.2624  0.1979  0.0758
   49MOL   H31616732   3.469   5.613   2.265  1.3754  0.0076  1.1822
   49MOL   H31716733   3.350   5.724   2.315  0.7832  1.5606  1.5707
   49MOL   H31816734   3.493   5.871   2.423 -3.0565 -1.8145  0.7339
   49MOL   H31916735   3.463   5.830   2.655  4.1318 -1.0330  0.0159
   49MOL   H32016736   3.326   5.734   2.592  1.2770 -0.2083 -2.2026
   49MOL   H32116737   3.507   5.677   2.813  0.3182  0.3927 -1.1520
   49MOL   H32216738   3.347   5.610   2.785 -1.1052  1.7778  0.0354
   49MOL   H32316739   3.581   5.456   2.741  0.4104  0.1948 -0.6083
   49MOL   H32416740   3.434   5.429   2.659 -1.1472  1.1238  0.4857
   49MOL   C32516741   3.687   5.800   2.390 -0.4100  0.0346  0.2006
   49MOL   C32616742   3.771   5.845   2.514  0.0894 -0.1206  0.0710
   49MOL   N32716743   3.735   5.990   2.552  0.3294 -0.9313  0.7281
   49MOL   C32816744   3.780   6.097   2.460 -0.2018  0.2899 -0.4246
   49MOL   C32916745   3.736   6.231   2.525 -0.1076  0.3436  0.2828
   49MOL   C33016746   3.656   6.183   2.650 -0.3015 -0.4306  0.2936
   49MOL   C33116747   3.678   6.036   2.663  0.2202  0.5430  0.2328
   49MOL   O33216748   3.652   5.966   2.762 -0.1525 -0.2818 -0.2189
   49MOL   H33316749   3.717   5.864   2.307 -1.3656  0.0895 -0.1042
   49MOL   H33416750   3.722   5.703   2.353  2.0032  0.3842  1.4874
   49MOL   H33516751   3.875   5.851   2.484 -0.3278  0.1021 -1.3581
   49MOL   H33616752   3.889   6.096   2.448 -0.1614  3.3555 -0.9058
   49MOL   H33716753   3.743   6.093   2.357  0.3693  0.8925 -0.6668
   49MOL   H33816754   3.819   6.285   2.570 -0.7912  0.8705  0.9466
   49MOL   H33916755   3.674   6.285   2.453  0.8009 -1.7814 -2.1886
   49MOL   H34016756   3.684   6.240   2.739  1.6377  0.0866 -0.6250
   49MOL   H34116757   3.550   6.194   2.627  0.3514  2.2297 -1.7337
   49MOL   H34216758   3.766   5.785   2.605 -2.1154  3.0793  2.1983
   50MOL     C116759   7.676   3.612   3.727 -0.7246  0.6228 -0.1787
   50MOL     C216760   7.607   3.492   3.649 -0.3973 -0.3583 -0.3446
   50MOL     N316761   7.694   3.376   3.646  0.4945 -0.5203 -0.4463
   50MOL     C416762   7.758   3.340   3.520  0.0306 -0.7452  0.5650
   50MOL     C516763   7.817   3.204   3.563  0.4829  0.1109 -0.0763
   50MOL     C616764   7.794   3.175   3.709 -0.2679  0.1617 -0.0007
   50MOL     C716765   7.717   3.297   3.752 -0.4612 -0.2553  0.4638
   50MOL     O816766   7.675   3.309   3.865  0.5717  0.3080  0.5618
   50MOL     H916767   7.784   3.612   3.720 -0.7960 -0.1689 -1.4395
   50MOL    H1016768   7.640   3.711   3.701 -0.5237  0.8463  0.3960
   50MOL    H1116769   7.603   3.538   3.551 -0.6807  0.1928 -0.0744
   50MOL    H1216770   7.691   3.345   3.435 -0.1849 -0.6401  0.7399
   50MOL    H1316771   7.839   3.412   3.510 -0.5862 -0.2097 -0.7156
   50MOL    H1416772   7.768   3.128   3.501  0.5679 -0.8765  1.0396
   50MOL    H1516773   0.016   3.191   3.535  1.4101 -0.2841  3.4146
   50MOL    H1616774   7.732   3.086   3.718 -0.2989 -0.2108 -3.3194
   50MOL    H1716775   7.885   3.159   3.767  2.0404  3.2163 -2.5875
   50MOL    H1816776   7.653   3.598   3.833  3.5761  0.1015  0.7648
   50MOL    C1916777   7.464   3.456   3.710 -0.4510  0.1858 -0.0364
   50MOL    C2016778   7.387   3.336   3.647 -0.1928  0.3051  0.6143
   50MOL    N2116779   7.288   3.283   3.741 -0.2363  0.0890 -0.1772
   50MOL    C2216780   7.167   3.354   3.786  0.9037  0.6408 -0.1922
   50MOL    C2316781   7.102   3.267   3.895 -0.1118 -0.7267  0.6627
   50MOL    C2416782   7.170   3.139   3.877  0.2102 -0.0283 -0.3142
   50MOL    C2516783   7.279   3.155   3.782  0.4537 -0.8194  0.9303
   50MOL    O2616784   7.346   3.061   3.754  0.2075 -0.0242 -0.0054
   50MOL    H2716785   7.397   3.542   3.711 -0.5218  0.1269  0.4290
   50MOL    H2816786   7.468   3.440   3.818 -0.6524  0.4771  0.0151
   50MOL    H2916787   7.453   3.257   3.611  0.8645  1.5014 -0.0899
   50MOL    H3016788   7.195   3.453   3.824  0.0258  1.2411 -1.0664
   50MOL    H3116789   7.099   3.375   3.703  1.7079 -1.9507 -1.5502
   50MOL    H3216790   7.119   3.318   3.990 -1.5869 -0.3523  0.7334
   50MOL    H3316791   6.995   3.266   3.876  0.3140  0.3534 -2.1042
   50MOL    H3416792   7.209   3.096   3.969 -1.1725 -0.0305  0.2853
   50MOL    H3516793   7.096   3.068   3.838 -1.5948  0.4027  2.2270
   50MOL    C3616794   7.322   3.367   3.514  0.0213  0.0210  0.0807
   50MOL    C3716795   7.270   3.255   3.425  0.5281  0.3608  0.5107
   50MOL    N3816796   7.174   3.305   3.319  0.3272  0.5452 -0.0628
   50MOL    C3916797   7.191   3.434   3.243 -0.4686 -0.2465 -0.9817
   50MOL    C4016798   7.087   3.421   3.136  0.3168  0.1353 -0.2383
   50MOL    C4116799   6.987   3.312   3.176  0.6315 -0.3494 -0.7545
   50MOL    C4216800   7.063   3.238   3.286  0.3690  0.1585 -0.1237
   50MOL    O4316801   7.016   3.134   3.339 -1.0545 -0.3040 -0.0255
   50MOL    H4416802   7.375   3.435   3.448 -0.7073 -0.6185 -1.1799
   50MOL    H4516803   7.240   3.435   3.538  0.4170 -0.2568  2.3471
   50MOL    H4616804   7.211   3.197   3.496 -0.2356 -0.1019 -0.4986
   50MOL    H4716805   7.177   3.517   3.313 -5.0793 -1.7134 -0.0390
   50MOL    H4816806   7.295   3.440   3.209 -0.0418 -0.3195  0.2688
   50MOL    H4916807   7.042   3.518   3.115  0.9701  1.1209  2.6885
   50MOL    H5016808   7.145   3.389   3.049 -0.0116  1.9227 -1.1475
   50MOL    H5116809   6.895   3.353   3.218  0.3193  0.7613 -2.4867
   50MOL    H5216810   6.962   3.241   3.097  2.0645 -0.3178 -1.2415
   50MOL    C5316811   7.379   3.169   3.354 -0.2422  0.4101 -0.0761
   50MOL    C5416812   7.387   3.021   3.408  0.3292  0.4151  0.3565
   50MOL    N5516813   7.277   2.944   3.355 -0.2267 -0.7223  0.5166
   50MOL    C5616814   7.183   2.891   3.445  0.0410  0.2292 -0.5853
   50MOL    C5716815   7.081   2.818   3.358 -0.6094  0.1183  0.4341
   50MOL    C5816816   7.125   2.839   3.216 -0.0902  0.3024  0.8293
   50MOL    C5916817   7.259   2.902   3.227 -0.7368  0.1068 -0.4568
   50MOL    O6016818   7.340   2.911   3.135  0.6713 -0.4298 -0.5960
   50MOL    H6116819   7.480   3.209   3.356 -0.1668  0.1289  1.7359
   50MOL    H6216820   7.357   3.170   3.247 -0.0567  0.3426 -0.1141
   50MOL    H6316821   7.379   3.022   3.517 -1.9806 -2.3007  0.2687
   50MOL    H6416822   7.231   2.818   3.511  0.6382 -0.6496 -1.9589
   50MOL    H6516823   7.144   2.968   3.512 -1.1071 -0.2573 -0.6807
   50MOL    H6616824   7.065   2.713   3.381  0.5060 -0.0058  0.6655
   50MOL    H6716825   6.977   2.851   3.367  0.5320  4.1696 -0.2519
   50MOL    H6816826   7.135   2.746   3.160  0.2064  0.6885  0.2327
   50MOL    H6916827   7.056   2.904   3.161  0.0227 -0.2310  0.0577
   50MOL    C7016828   7.526   2.954   3.369  0.2817 -0.4974  0.2814
   50MOL    C7116829   7.539   2.804   3.403  0.1140 -0.3897 -0.4282
   50MOL    N7216830   7.642   2.735   3.313  0.3054  0.3491  0.3586
   50MOL    C7316831   7.606   2.648   3.202 -0.5118 -0.1488  0.4616
   50MOL    C7416832   7.727   2.563   3.161  0.5600 -0.4050  0.1403
   50MOL    C7516833   7.845   2.640   3.238 -0.1365  1.0835  0.0249
   50MOL    C7616834   7.778   2.752   3.312  1.0149  0.1798 -0.1952
   50MOL    O7716835   7.833   2.836   3.379  0.6218 -0.1139 -0.0136
   50MOL    H7816836   7.602   3.008   3.425  1.9039 -2.4182  0.0140
   50MOL    H7916837   7.553   2.979   3.267  0.5342 -0.5791  0.3291
   50MOL    H8016838   7.447   2.753   3.375 -2.4338  2.7435  1.9981
   50MOL    H8116839   7.519   2.586   3.225 -1.7034 -0.0259 -3.3353
   50MOL    H8216840   7.572   2.717   3.124  2.0411 -0.7805 -1.3050
   50MOL    H8316841   7.715   2.461   3.198 -1.4565  0.0020  0.6653
   50MOL    H8416842   7.738   2.561   3.053  0.4505 -0.6518  0.1344
   50MOL    H8516843   7.897   2.575   3.308 -0.7282  1.5086  0.8646
   50MOL    H8616844   0.009   2.669   3.159 -0.6016 -3.1434 -2.0557
   50MOL    C8716845   7.560   2.792   3.557  0.4557  0.1801  0.2018
   50MOL    C8816846   7.547   2.652   3.620  0.2458  0.6014  0.0941
   50MOL    N8916847   7.413   2.593   3.625 -0.7419  0.1827  0.2639
   50MOL    C9016848   7.364   2.498   3.527 -0.9011  0.6594 -0.1682
   50MOL    C9116849   7.219   2.473   3.562  0.1119  0.1414 -0.3540
   50MOL    C9216850   7.181   2.563   3.679 -0.2154  0.1473 -0.1245
   50MOL    C9316851   7.313   2.631   3.708  0.2669 -0.2533 -0.2035
   50MOL    O9416852   7.324   2.724   3.791  0.1324  0.2249 -0.9540
   50MOL    H9516853   7.488   2.860   3.603  1.3645  1.3670 -0.0895
   50MOL    H9616854   7.657   2.834   3.582  2.0291 -1.6757 -2.4629
   50MOL    H9716855   7.576   2.670   3.723  0.3080  0.6798  0.0624
   50MOL    H9816856   7.363   2.549   3.431  2.4434  1.1750 -0.0020
   50MOL    H9916857   7.420   2.404   3.522 -0.9983  0.4461  2.1581
   50MOL   H10016858   7.171   2.492   3.466  1.0530  2.0810 -0.4727
   50MOL   H10116859   7.192   2.369   3.579 -1.5224  1.1048  3.5898
   50MOL   H10216860   7.098   2.633   3.668 -2.9940 -2.7939  1.3278
   50MOL   H10316861   7.175   2.506   3.772  3.5335 -2.1725 -1.1652
   50MOL   C10416862   7.651   2.549   3.570 -0.1700  0.0893  0.0784
   50MOL   C10516863   7.691   2.439   3.668  0.2754  0.1412 -0.2442
   50MOL   N10616864   7.776   2.337   3.600 -0.1861 -0.1200  0.3323
   50MOL   C10716865   7.730   2.195   3.597  0.2754 -0.4581  0.1826
   50MOL   C10816866   7.854   2.123   3.541 -0.3487  0.5272 -0.2030
   50MOL   C10916867   0.060   2.226   3.508 -0.3939  0.1096  0.3002
   50MOL   C11016868   7.902   2.356   3.553  0.6803  0.6654  0.3833
   50MOL   O11116869   0.060   2.461   3.546 -0.0848 -0.3948  0.2264
   50MOL   H11216870   7.738   2.612   3.550  0.0606  0.1715  1.2679
   50MOL   H11316871   7.628   2.501   3.475  0.9790 -0.6319  0.1656
   50MOL   H11416872   7.608   2.388   3.717 -0.1863  0.7129 -0.4353
   50MOL   H11516873   7.687   2.173   3.695 -1.2875  2.3023  0.1761
   50MOL   H11616874   7.647   2.195   3.527 -0.6202  3.4985  1.1008
   50MOL   H11716875   7.879   2.055   3.622 -1.9771 -0.6110 -0.6246
   50MOL   H11816876   7.828   2.080   3.443 -0.0812  1.0351 -0.4941
   50MOL   H11916877   0.081   2.236   3.401 -1.1758 -0.9815  0.0381
   50MOL   H12016878   0.159   2.220   3.553 -0.0753 -0.3156 -0.4520
   50MOL   C12116879   7.783   2.490   3.783 -0.2730  0.1631 -0.5990
   50MOL   C12216880   7.727   2.510   3.928 -0.1206  0.4435  0.2149
   50MOL   N12316881   7.659   2.388   3.978 -0.2394  0.8673  0.2777
   50MOL   C12416882   7.522   2.396   4.030 -0.2212 -0.0935 -0.4749
   50MOL   C12516883   7.502   2.261   4.104 -0.3724  0.1830  0.8737
   50MOL   C12616884   7.614   2.165   4.052 -0.1812  0.2712 -0.4347
   50MOL   C12716885   7.716   2.262   3.984  0.2409  0.4345  0.4107
   50MOL   O12816886   7.825   2.223   3.948  0.0370 -0.3174 -0.4255
   50MOL   H12916887   7.843   2.575   3.749 -0.8401 -0.0829 -2.2868
   50MOL   H13016888   7.873   2.430   3.788  1.3199  2.4350 -0.9552
   50MOL   H13116889   7.656   2.592   3.919  0.2836  0.7685 -0.0265
   50MOL   H13216890   7.456   2.424   3.948  0.2854  2.4519 -0.0492
   50MOL   H13316891   7.510   2.479   4.100  0.1116 -0.3128 -0.1543
   50MOL   H13416892   7.514   2.283   4.211 -0.2468  0.4796  0.7976
   50MOL   H13516893   7.409   2.204   4.095 -0.0039 -0.4348  0.9831
   50MOL   H13616894   7.663   2.096   4.121 -1.6214  0.5385  0.8652
   50MOL   H13716895   7.558   2.106   3.979  0.8863 -0.0851 -0.9781
   50MOL   C13816896   7.842   2.547   4.019  0.1609 -0.0789  0.0774
   50MOL   C13916897   7.885   2.695   4.011  0.2577 -0.3221 -0.1136
   50MOL   N14016898   7.782   2.784   4.055 -0.1069  0.1327 -0.3045
   50MOL   C14116899   7.712   2.877   3.967 -0.3144 -0.0208  0.1221
   50MOL   C14216900   7.578   2.915   4.036  0.5700  0.2588 -1.0089
   50MOL   C14316901   7.598   2.865   4.175 -0.7559  0.2696 -0.1326
   50MOL   C14416902   7.720   2.778   4.176 -0.9552  0.1552  0.3331
   50MOL   O14516903   7.758   2.723   4.276  0.3237  0.5314 -0.8185
   50MOL   H14616904   0.025   2.488   3.995  0.2275 -1.2115  3.0091
   50MOL   H14716905   7.813   2.519   4.120  2.6870  0.8111  1.1141
   50MOL   H14816906   0.003   2.724   3.909 -3.3876 -0.3600 -1.0548
   50MOL   H14916907   7.760   2.974   3.951 -0.0257 -0.5206 -2.1699
   50MOL   H15016908   7.695   2.829   3.871 -1.4027  0.0411  0.2868
   50MOL   H15116909   7.534   3.015   4.038 -2.8330 -1.1337 -3.3248
   50MOL   H15216910   7.511   2.848   3.983  1.9500 -3.5492  1.7985
   50MOL   H15316911   7.515   2.805   4.213 -1.2590  1.4846  0.7390
   50MOL   H15416912   7.614   2.950   4.242  3.9816  0.0221 -0.7769
   50MOL   C15516913   0.112   2.714   4.093  0.4897  0.5575 -0.2541
   50MOL   C15616914   0.188   2.845   4.072 -0.1499  0.2916  0.9646
   50MOL   N15716915   0.251   2.836   3.939  0.0703  0.1388  0.2159
   50MOL   C15816916   0.390   2.782   3.932 -0.0685  0.2020 -0.1418
   50MOL   C15916917   0.431   2.814   3.787  0.0439  0.7652 -0.1833
   50MOL   C16016918   0.305   2.855   3.713  0.2613  0.3068 -0.8004
   50MOL   C16116919   0.204   2.873   3.823 -0.3428  0.0232  0.1808
   50MOL   O16216920   0.093   2.921   3.797 -0.1272 -0.0072 -0.6258
   50MOL   H16316921   0.177   2.635   4.054 -0.0591  1.3610 -2.9613
   50MOL   H16416922   0.102   2.708   4.201 -0.3636  0.2201 -0.3502
   50MOL   H16516923   0.272   2.841   4.141  2.2140  5.0216 -1.3981
   50MOL   H16616924   0.463   2.815   4.006  0.8219 -0.5466 -0.6726
   50MOL   H16716925   0.396   2.675   3.950  0.0448  0.2255 -0.0438
   50MOL   H16816926   0.501   2.897   3.804  0.0549  0.6844  0.1781
   50MOL   H16916927   0.485   2.739   3.730 -0.3680 -0.2796  0.7816
   50MOL   H17016928   0.299   2.947   3.655 -1.7458 -1.0772 -2.8928
   50MOL   H17116929   0.270   2.775   3.648  0.9507  0.0138 -0.8215
   50MOL   C17216930   0.115   2.984   4.100  0.1224  0.2896  0.4376
   50MOL   C17316931   0.221   3.094   4.104  0.4457 -0.6372  0.1380
   50MOL   N17416932   0.160   3.224   4.078 -0.0572  0.1669 -0.0168
   50MOL   C17516933   0.192   3.285   3.951 -0.4763  0.0520 -0.1287
   50MOL   C17616934   0.110   3.418   3.951  0.1055 -0.0295  0.6192
   50MOL   C17716935   0.026   3.418   4.077 -0.4190 -0.3394  0.4293
   50MOL   C17816936   0.086   3.304   4.162  0.4121 -0.8941  0.2238
   50MOL   O17916937   0.060   3.289   4.281 -0.7555 -0.2275  0.1690
   50MOL   H18016938   0.064   2.979   4.196 -0.7833  0.3392 -0.0387
   50MOL   H18116939   0.038   2.987   4.023  1.1383 -1.3486 -0.6586
   50MOL   H18216940   0.280   3.087   4.013  0.3039  1.4683 -0.1465
   50MOL   H18316941   0.295   3.314   3.927 -0.7690  0.7577 -0.5560
   50MOL   H18416942   0.163   3.218   3.870 -1.2070 -0.1387  0.2908
   50MOL   H18516943   0.053   3.427   3.859  0.0339  2.3944  0.8809
   50MOL   H18616944   0.178   3.503   3.960 -1.1589  1.3048 -1.9102
   50MOL   H18716945   0.034   3.515   4.126 -0.7519  0.1338 -0.4487
   50MOL   H18816946   7.831   3.400   4.040 -0.6195  2.3150 -0.3839
   50MOL   C18916947   0.316   3.096   4.230  0.0764  0.4276 -0.1760
   50MOL   C19016948   0.421   3.204   4.238  0.1765  0.0558  0.1206
   50MOL   N19116949   0.490   3.208   4.368  0.1820  0.0179 -0.0712
   50MOL   C19216950   0.462   3.324   4.447  0.0577  0.2354  0.7294
   50MOL   C19316951   0.543   3.309   4.572  0.4836 -0.0499 -0.5797
   50MOL   C19416952   0.568   3.155   4.580 -0.3249 -0.1471 -0.7346
   50MOL   C19516953   0.548   3.111   4.440  0.5677  0.8369  0.0180
   50MOL   O19616954   0.586   3.000   4.398  0.7644 -0.4028 -0.1009
   50MOL   H19716955   0.377   3.006   4.235 -0.1678  0.3271  1.4742
   50MOL   H19816956   0.253   3.101   4.319 -0.3169  1.5711 -0.5099
   50MOL   H19916957   0.371   3.298   4.215 -1.2993 -0.6195  0.5349
   50MOL   H20016958   0.487   3.420   4.403  1.4164  0.1970  1.3836
   50MOL   H20116959   0.356   3.314   4.468 -0.6021  1.1698 -1.9584
   50MOL   H20216960   0.641   3.359   4.571  0.3741  0.3366  2.5836
   50MOL   H20316961   0.496   3.349   4.661 -0.0591  0.1284 -0.9427
   50MOL   H20416962   0.667   3.124   4.614 -0.2963  0.6331 -0.0974
   50MOL   H20516963   0.487   3.112   4.639  0.3173 -0.7299 -0.2604
   50MOL   C20616964   0.525   3.184   4.129  0.8350  0.5026 -0.8707
   50MOL   C20716965   0.644   3.287   4.119 -0.4194  0.0413 -0.3027
   50MOL   N20816966   0.720   3.251   4.001  0.0311 -0.1817  0.3836
   50MOL   C20916967   0.834   3.164   4.021  0.0006 -0.0539  0.3088
   50MOL   C21016968   0.894   3.157   3.877  0.9088 -0.2099  0.3102
   50MOL   C21116969   0.786   3.189   3.774  0.3803 -0.3590 -0.6189
   50MOL   C21216970   0.688   3.261   3.864  0.0015 -0.3170 -0.6374
   50MOL   O21316971   0.586   3.309   3.823  0.0527  0.5172  0.2699
   50MOL   H21416972   0.471   3.190   4.034 -1.8570 -0.3709  0.5511
   50MOL   H21516973   0.559   3.081   4.121  0.5532  0.1427  2.0266
   50MOL   H21616974   0.707   3.293   4.208 -0.5459  1.6890 -0.3074
   50MOL   H21716975   0.913   3.197   4.089 -0.9481  0.6335  1.0844
   50MOL   H21816976   0.792   3.072   4.062  2.3497 -1.5088 -0.4342
   50MOL   H21916977   0.975   3.228   3.862  0.2021  0.5677  0.1515
   50MOL   H22016978   0.941   3.059   3.862  3.4219  1.0716 -0.5603
   50MOL   H22116979   0.824   3.264   3.704  1.9447 -2.0131 -1.5592
   50MOL   H22216980   0.750   3.107   3.713 -0.9919 -2.1176  2.4197
   50MOL   C22316981   0.591   3.433   4.115 -0.2549 -0.5059 -0.1038
   50MOL   C22416982   0.669   3.550   4.050  0.6397  0.2350 -0.8487
   50MOL   N22516983   0.573   3.662   4.023  0.8391  0.3664 -0.1909
   50MOL   C22616984   0.540   3.696   3.881  0.9345  0.7319  0.1832
   50MOL   C22716985   0.434   3.811   3.889 -0.1847  0.9499  0.7001
   50MOL   C22816986   0.416   3.834   4.039 -0.2015  0.7283  0.2960
   50MOL   C22916987   0.491   3.722   4.112  0.7612 -1.0702 -0.3406
   50MOL   O23016988   0.460   3.689   4.225  0.1585 -0.3213  0.2107
   50MOL   H23116989   0.556   3.460   4.214  1.1552  2.7829 -0.4627
   50MOL   H23216990   0.501   3.423   4.054 -0.1502 -1.1153 -0.1647
   50MOL   H23316991   0.714   3.512   3.958  2.5750 -0.2401  0.2596
   50MOL   H23416992   0.620   3.729   3.815  1.4543 -0.7337  0.0694
   50MOL   H23516993   0.496   3.613   3.825  1.6106 -1.0410  2.2133
   50MOL   H23616994   0.464   3.903   3.838  0.6589  0.6690  0.6856
   50MOL   H23716995   0.352   3.775   3.827  0.1165 -1.9206  1.8994
   50MOL   H23816996   0.458   3.932   4.061  0.5731  0.1979  1.2037
   50MOL   H23916997   0.312   3.820   4.068 -0.6045  0.7282 -1.0808
   50MOL   C24016998   0.787   3.580   4.143  0.4676 -0.0158  0.0967
   50MOL   C24116999   0.904   3.657   4.090 -0.0288 -0.0223 -0.0839
   50MOL   N24217000   0.988   3.585   3.987  0.1377  0.6625  0.2760
   50MOL   C24317001   1.101   3.512   4.029  0.1370  0.5791  0.1410
   50MOL   C24417002   1.163   3.457   3.902 -0.0615  0.8854 -0.6335
   50MOL   C24517003   1.074   3.502   3.782 -0.4814 -0.4771  0.3733
   50MOL   C24617004   0.976   3.588   3.849  1.1472 -0.4638  0.1339
   50MOL   O24717005   0.878   3.637   3.791  0.1403 -0.7219  0.3547
   50MOL   H24817006   0.836   3.492   4.185 -1.6872 -1.5917 -0.5752
   50MOL   H24917007   0.753   3.644   4.224 -1.6585  1.2915 -1.7854
   50MOL   H25017008   0.973   3.665   4.174 -0.7384  0.1981  0.4875
   50MOL   H25117009   1.167   3.587   4.072  0.5802 -1.1509  2.6005
   50MOL   H25217010   1.066   3.437   4.100 -0.2656  0.8253  0.2066
   50MOL   H25317011   1.256   3.510   3.884 -0.5193  0.7214 -3.6762
   50MOL   H25417012   1.187   3.351   3.894 -1.7189  0.2409  2.0679
   50MOL   H25517013   1.123   3.554   3.700  1.2548  0.1238  1.7594
   50MOL   H25617014   1.027   3.415   3.738 -0.6663  0.2377 -0.8761
   50MOL   C25717015   0.866   3.804   4.047 -0.0916  0.3498 -0.1064
   50MOL   C25817016   0.958   3.923   4.090  0.2093  0.4715  0.4054
   50MOL   N25917017   1.097   3.892   4.054  0.1156 -0.0859 -0.4972
   50MOL   C26017018   1.195   3.886   4.163  0.5863 -0.1482  0.1915
   50MOL   C26117019   1.328   3.888   4.085  0.6222  0.0506  0.6943
   50MOL   C26217020   1.297   3.853   3.936  0.2054 -0.2171 -0.2768
   50MOL   C26317021   1.148   3.870   3.929  0.0251  0.3381 -0.1756
   50MOL   O26417022   1.084   3.870   3.826  0.2457 -0.1711 -0.2433
   50MOL   H26517023   0.770   3.825   4.094  1.1343 -1.0775  3.1656
   50MOL   H26617024   0.837   3.804   3.942 -0.0814 -0.4489 -0.1088
   50MOL   H26717025   0.948   3.932   4.198 -1.2917  0.2909  0.3039
   50MOL   H26817026   1.198   3.963   4.240  0.1988 -0.5002  0.5635
   50MOL   H26917027   1.176   3.792   4.216  0.9466  0.0097  0.6067
   50MOL   H27017028   1.379   3.984   4.099 -1.3555  1.2466 -0.0567
   50MOL   H27117029   1.400   3.825   4.138 -1.0224 -1.3024  1.3544
   50MOL   H27217030   1.348   3.919   3.865  0.4724  1.4327  1.4046
   50MOL   H27317031   1.322   3.749   3.917  2.2231 -0.2401  2.2639
   50MOL   C27417032   0.914   4.047   4.019 -0.6522  0.1510  0.3119
   50MOL   C27517033   0.773   4.100   4.055  0.1172 -0.5513  0.0005
   50MOL   N27617034   0.756   4.127   4.197 -0.6366  0.0552 -0.0288
   50MOL   C27717035   0.660   4.048   4.275 -0.6385  0.4048 -0.3389
   50MOL   C27817036   0.684   4.087   4.423  0.2340  0.4922  0.1003
   50MOL   C27917037   0.798   4.183   4.424 -0.3548 -0.3028  0.7038
   50MOL   C28017038   0.829   4.208   4.276  0.4769 -0.1374 -0.6612
   50MOL   O28117039   0.916   4.289   4.243 -0.7198 -0.3063  0.2233
   50MOL   H28217040   0.923   4.032   3.912  2.7297 -0.1361  0.5854
   50MOL   H28317041   0.977   4.135   4.030 -0.8163  0.5156 -1.5992
   50MOL   H28417042   0.693   4.029   4.032 -0.0007 -0.3091 -0.3350
   50MOL   H28517043   0.559   4.080   4.249 -2.3919 -1.5624  3.6157
   50MOL   H28617044   0.675   3.942   4.260 -1.8456  0.3714 -1.3848
   50MOL   H28717045   0.593   4.135   4.461  1.0219  0.1688  2.4668
   50MOL   H28817046   0.688   3.995   4.480  2.4634 -0.3968 -1.4359
   50MOL   H28917047   0.767   4.283   4.456 -0.9266 -0.4164  0.5176
   50MOL   H29017048   0.884   4.163   4.487 -1.2239 -0.0612  1.9704
   50MOL   C29117049   0.731   4.228   3.969  0.1184 -0.5883 -0.0983
   50MOL   C29217050   0.731   4.231   3.812  0.9488  0.1241  0.3318
   50MOL   N29317051   0.620   4.311   3.758  0.0810 -0.2118 -0.2221
   50MOL   C29417052   0.625   4.460   3.764  0.0846 -0.0177 -0.0991
   50MOL   C29517053   0.496   4.508   3.686 -0.3071 -0.4841  0.7347
   50MOL   C29617054   0.417   4.372   3.663  0.3577 -0.1809 -0.1028
   50MOL   C29717055   0.500   4.263   3.720 -0.4779 -0.2217  0.3303
   50MOL   O29817056   0.463   4.146   3.723  0.5709  0.4443 -0.0965
   50MOL   H29917057   0.801   4.310   3.988 -1.5436  0.9273 -0.3865
   50MOL   H30017058   0.634   4.264   4.003  0.5421  0.3750  0.1143
   50MOL   H30117059   0.698   4.128   3.795  0.1202  0.8026 -2.3407
   50MOL   H30217060   0.632   4.496   3.867 -0.8444 -1.0823  0.3550
   50MOL   H30317061   0.717   4.486   3.712  0.3077  1.8362  1.1860
   50MOL   H30417062   0.444   4.580   3.748  2.5137  2.1782  0.1606
   50MOL   H30517063   0.527   4.556   3.593  0.2953 -0.0579  1.1473
   50MOL   H30617064   0.326   4.376   3.723 -0.0511 -0.7194 -0.6876
   50MOL   H30717065   0.392   4.357   3.559 -0.2225 -1.0955  0.1685
   50MOL   C30817066   0.868   4.267   3.740 -0.4610  0.2768  0.0820
   50MOL   C30917067   0.865   4.228   3.593  0.0773  0.2922  0.1051
   50MOL   N31017068   0.971   4.301   3.515  0.3730 -0.1994 -0.6010
   50MOL   C31117069   0.922   4.378   3.401 -0.3922 -0.4596  0.2209
   50MOL   C31217070   1.061   4.416   3.331 -0.3192  0.5219 -0.0244
   50MOL   C31317071   1.181   4.378   3.423  0.1513 -0.0312 -0.5815
   50MOL   C31417072   1.106   4.309   3.535 -0.3195  0.0113 -0.3886
   50MOL   O31517073   1.169   4.267   3.634  0.2383  0.0127 -0.1336
   50MOL   H31617074   0.940   4.203   3.793  0.3616  0.2298 -1.0767
   50MOL   H31717075   0.895   4.371   3.760  0.4088  0.1064 -0.1735
   50MOL   H31817076   0.766   4.247   3.553  1.4454  1.0687 -3.1141
   50MOL   H31917077   0.855   4.318   3.339 -0.7162  0.9818 -0.8515
   50MOL   H32017078   0.864   4.467   3.426 -0.2420 -0.9220  2.2795
   50MOL   H32117079   1.070   4.367   3.234  0.8318  0.4473  0.1099
   50MOL   H32217080   1.081   4.519   3.299 -1.0038  2.1712  4.4930
   50MOL   H32317081   1.247   4.311   3.368 -2.1387 -2.0421 -1.0202
   50MOL   H32417082   1.243   4.462   3.452 -0.2931  0.8753 -2.1701
   50MOL   C32517083   0.885   4.073   3.577  0.5076  0.3877  0.3432
   50MOL   C32617084   0.880   4.033   3.430 -0.2684 -0.1709 -0.0129
   50MOL   N32717085   0.900   3.890   3.415 -0.4761  0.4925  0.2878
   50MOL   C32817086   0.781   3.803   3.411 -0.0133 -0.1106 -0.4789
   50MOL   C32917087   0.834   3.667   3.445 -0.0001  0.1032  0.1448
   50MOL   C33017088   0.984   3.677   3.430 -1.0931  0.1604  0.2660
   50MOL   C33117089   1.007   3.816   3.388 -0.4365  0.7858 -0.8739
   50MOL   O33217090   1.119   3.858   3.361 -0.4131 -0.4588 -0.0250
   50MOL   H33317091   0.798   4.024   3.622 -1.0451  1.4086 -1.4603
   50MOL   H33417092   0.973   4.028   3.622  0.0736  0.8665  1.7228
   50MOL   H33517093   0.948   4.093   3.369  1.1482 -0.3387  1.3753
   50MOL   H33617094   0.711   3.833   3.489 -0.7447 -0.9911 -0.7945
   50MOL   H33717095   0.735   3.808   3.313 -0.0008 -2.0208 -0.5865
   50MOL   H33817096   0.816   3.637   3.548 -0.4694 -0.7762 -0.1955
   50MOL   H33917097   0.793   3.595   3.374 -3.2172  0.5920  1.4203
   50MOL   H34017098   1.043   3.645   3.516  1.7606  1.0334 -1.2784
   50MOL   H34117099   1.010   3.611   3.347  1.1707 -0.0882  1.1198
   50MOL   H34217100   0.787   4.062   3.381 -0.2075  1.5537  0.8484
   51MOL     C117101   0.794   1.688   1.273 -0.5065 -0.2561 -0.0248
   51MOL     C217102   0.850   1.748   1.399  0.4719  0.0232 -0.2221
   51MOL     N317103   0.962   1.835   1.373 -0.3562  0.4255 -0.2217
   51MOL     C417104   1.096   1.805   1.420 -0.4043 -0.4028 -0.0574
   51MOL     C517105   1.195   1.909   1.362  0.4629 -0.0066 -0.2203
   51MOL     C617106   1.092   2.013   1.312 -0.0414 -0.3462 -0.0156
   51MOL     C717107   0.965   1.953   1.310  0.3297  0.2708  0.3259
   51MOL     O817108   0.860   2.008   1.267 -0.4479  0.8888  0.3748
   51MOL     H917109   0.747   1.767   1.214  1.3371 -1.3914 -3.1209
   51MOL    H1017110   0.866   1.640   1.207  1.8815 -1.4450  3.3239
   51MOL    H1117111   0.885   1.671   1.468 -0.1577  0.6382  0.8027
   51MOL    H1217112   1.079   1.811   1.528 -1.2838  2.0743 -0.2880
   51MOL    H1317113   1.116   1.700   1.400 -1.2441 -1.0962  2.4946
   51MOL    H1417114   1.247   1.967   1.438  0.1750  0.6674 -0.5389
   51MOL    H1517115   1.267   1.868   1.291 -0.9077  0.4638 -1.8842
   51MOL    H1617116   1.082   2.098   1.380  0.1886 -1.6229  1.6402
   51MOL    H1717117   1.119   2.051   1.213 -5.0843  0.4789 -1.2154
   51MOL    H1817118   0.720   1.610   1.289 -0.4993 -0.1887  0.3515
   51MOL    C1917119   0.748   1.813   1.485 -0.0909  0.4603  0.7167
   51MOL    C2017120   0.632   1.716   1.533 -0.2638  0.3238  0.3548
   51MOL    N2117121   0.686   1.593   1.595 -0.1382  0.2840 -0.2586
   51MOL    C2217122   0.634   1.461   1.552  0.0903  0.5750 -0.7441
   51MOL    C2317123   0.709   1.360   1.641  0.5398  0.5534 -0.9913
   51MOL    C2417124   0.769   1.438   1.753  0.4013  0.0542  0.0405
   51MOL    C2517125   0.756   1.584   1.708  0.0182 -0.3032 -0.3738
   51MOL    O2617126   0.802   1.677   1.776 -0.2909 -0.1963  0.4550
   51MOL    H2717127   0.701   1.892   1.428 -0.5695 -0.9513 -0.8971
   51MOL    H2817128   0.807   1.857   1.565  2.0085 -1.0411  0.0586
   51MOL    H2917129   0.583   1.671   1.447  1.6093  0.5291 -0.8454
   51MOL    H3017130   0.525   1.456   1.561  0.3297 -1.0652  1.7195
   51MOL    H3117131   0.656   1.436   1.448 -0.9668 -1.8014 -0.4361
   51MOL    H3217132   0.645   1.277   1.671  2.5345  0.0545  2.1837
   51MOL    H3317133   0.785   1.307   1.583 -0.5311 -1.6694 -0.4109
   51MOL    H3417134   0.719   1.428   1.850  4.3497 -2.8696  1.9107
   51MOL    H3517135   0.874   1.414   1.770  0.4230  0.2976  0.2529
   51MOL    C3617136   0.534   1.788   1.629 -0.1598 -0.4808  0.2555
   51MOL    C3717137   0.462   1.906   1.574 -0.2677 -0.9813  0.3247
   51MOL    N3817138   0.382   1.884   1.454  0.0346 -0.6644  0.0573
   51MOL    C3917139   0.367   1.996   1.363 -0.2677 -0.6252 -1.0143
   51MOL    C4017140   0.296   1.928   1.243  0.2597 -0.3690 -0.0648
   51MOL    C4117141   0.243   1.792   1.284  0.7852  0.3884 -0.2640
   51MOL    C4217142   0.309   1.776   1.427 -0.2672  0.3846  0.1318
   51MOL    O4317143   0.305   1.672   1.489  0.5217 -0.1129 -0.1415
   51MOL    H4417144   0.585   1.827   1.717 -0.6636 -0.4823  0.5499
   51MOL    H4517145   0.468   1.705   1.654 -0.7506 -0.0440  0.1721
   51MOL    H4617146   0.525   1.986   1.535 -2.4896  1.1700  0.9184
   51MOL    H4717147   0.297   2.063   1.414  0.6971 -0.3337 -0.0644
   51MOL    H4817148   0.458   2.048   1.333 -1.5483  2.9849  1.1091
   51MOL    H4917149   0.220   1.997   1.206 -1.0501 -1.2785  0.8918
   51MOL    H5017150   0.383   1.915   1.179 -0.5230 -2.5291 -0.7076
   51MOL    H5117151   0.136   1.796   1.307  0.5229 -2.6032 -0.7807
   51MOL    H5217152   0.260   1.705   1.221 -1.6804 -0.3368 -0.0013
   51MOL    C5317153   0.372   1.958   1.696 -0.0666  0.5942  0.1660
   51MOL    C5417154   0.436   2.063   1.783 -0.2840 -0.6152  0.3840
   51MOL    N5517155   0.468   2.187   1.705 -0.1564 -0.1588 -0.3100
   51MOL    C5617156   0.603   2.232   1.703  0.1910  0.5674 -0.0735
   51MOL    C5717157   0.598   2.361   1.641  0.5304  0.1539  0.3135
   51MOL    C5817158   0.460   2.384   1.587  0.0008 -0.4257 -0.2657
   51MOL    C5917159   0.379   2.272   1.647  0.7447  0.9078 -0.1487
   51MOL    O6017160   0.255   2.256   1.644  0.6523 -0.0122  0.8771
   51MOL    H6117161   0.350   1.867   1.751  0.4306  0.9001  0.8800
   51MOL    H6217162   0.279   2.005   1.665 -0.3878  0.9550  1.6381
   51MOL    H6317163   0.533   2.022   1.809 -0.2695 -1.7868 -1.4335
   51MOL    H6417164   0.651   2.249   1.800 -0.5844  1.4224  0.1698
   51MOL    H6517165   0.665   2.162   1.647  0.2593  0.1685  0.4930
   51MOL    H6617166   0.622   2.445   1.705  1.6581  0.8523 -0.9944
   51MOL    H6717167   0.676   2.362   1.565  0.7493  0.0708  0.5369
   51MOL    H6817168   0.428   2.478   1.630 -1.4445 -1.2615  0.5226
   51MOL    H6917169   0.454   2.387   1.478  1.4841 -0.9731 -0.3826
   51MOL    C7017170   0.360   2.105   1.910 -0.3056 -0.1749 -0.3044
   51MOL    C7117171   0.340   1.977   2.005  0.1042  0.0796 -0.1631
   51MOL    N7217172   0.463   1.898   2.038  0.4187 -0.1348 -1.0925
   51MOL    C7317173   0.467   1.758   2.002 -0.4594  0.2494  0.1504
   51MOL    C7417174   0.588   1.713   2.075 -0.0016  0.4913  0.0543
   51MOL    C7517175   0.647   1.825   2.164 -0.7720  0.6712  1.2023
   51MOL    C7617176   0.570   1.942   2.111  0.0361 -0.3889  0.8149
   51MOL    O7717177   0.574   2.060   2.150  0.2299 -0.7058  0.4333
   51MOL    H7817178   0.264   2.149   1.885 -0.6268 -0.4683  0.3974
   51MOL    H7917179   0.407   2.183   1.970 -1.0317  0.0558 -0.0282
   51MOL    H8017180   0.261   1.919   1.959  1.0848 -0.3212 -1.3737
   51MOL    H8117181   0.378   1.700   2.027  0.2441 -0.9785 -0.1014
   51MOL    H8217182   0.487   1.759   1.895 -0.0855  2.0185  0.2339
   51MOL    H8317183   0.583   1.619   2.129  0.2253 -0.5573 -1.7012
   51MOL    H8417184   0.669   1.694   2.005 -0.3497 -0.2794 -0.1472
   51MOL    H8517185   0.639   1.804   2.271  1.4729 -3.4912  0.6807
   51MOL    H8617186   0.754   1.840   2.146 -1.0195  0.6601 -0.3774
   51MOL    C8717187   0.272   2.017   2.141 -0.2649 -0.1044  0.2306
   51MOL    C8817188   0.123   2.065   2.127 -0.3148  0.2716  0.0488
   51MOL    N8917189   0.028   1.948   2.122 -0.4019 -0.1554  0.4516
   51MOL    C9017190   7.809   1.967   2.047 -0.3177 -1.0490  0.5116
   51MOL    C9117191   7.714   1.852   2.079 -0.3187  0.1713 -0.4918
   51MOL    C9217192   7.778   1.775   2.191  0.1302  0.0543  0.7044
   51MOL    C9317193   0.001   1.854   2.213  0.0399  0.1834 -0.0163
   51MOL    O9417194   0.068   1.832   2.314  0.8229 -0.0114 -0.0163
   51MOL    H9517195   0.320   2.098   2.197  0.3781 -0.7631  0.6391
   51MOL    H9617196   0.281   1.931   2.208 -0.3667  0.0899  0.4949
   51MOL    H9717197   0.106   2.125   2.038 -0.4281 -2.2969 -1.6999
   51MOL    H9817198   7.761   2.058   2.083  1.5178  0.1897 -0.1103
   51MOL    H9917199   7.835   1.984   1.942 -1.9527  3.0263  0.7048
   51MOL   H10017200   7.612   1.884   2.098 -0.0712 -0.0365  1.2331
   51MOL   H10117201   7.721   1.778   1.999  0.9094 -1.9845  1.5282
   51MOL   H10217202   7.729   1.748   2.285 -0.1603  1.3693  0.9304
   51MOL   H10317203   7.812   1.678   2.153 -1.0749 -0.5442  1.1047
   51MOL   C10417204   0.093   2.149   2.248 -0.2354 -0.5789  0.3747
   51MOL   C10517205   0.103   2.300   2.230 -0.6735 -0.7104 -0.2669
   51MOL   N10617206   7.890   2.359   2.162 -0.1847 -0.6818 -0.7295
   51MOL   C10717207   7.888   2.400   2.022 -0.1273 -0.2343  0.4110
   51MOL   C10817208   7.745   2.444   1.987  0.1089  0.5359 -0.3147
   51MOL   C10917209   7.674   2.428   2.121 -0.1545  0.6750  0.5281
   51MOL   C11017210   7.768   2.366   2.214  0.0575 -0.4410 -0.7682
   51MOL   O11117211   7.719   2.323   2.320 -0.1429  0.6422  0.4074
   51MOL   H11217212   0.157   2.103   2.324 -1.0226 -0.2963  1.2083
   51MOL   H11317213   7.897   2.124   2.275 -0.6354  0.9810  0.3297
   51MOL   H11417214   0.180   2.327   2.158 -2.5781  0.2704 -1.9456
   51MOL   H11517215   0.055   2.479   2.001  1.6036 -1.2160  2.4673
   51MOL   H11617216   0.013   2.311   1.968  1.1954 -0.9931  2.3282
   51MOL   H11717217   7.744   2.544   1.945 -2.1718  0.2783 -0.9245
   51MOL   H11817218   7.703   2.383   1.907  0.0002 -0.1186  0.2343
   51MOL   H11917219   7.590   2.360   2.116 -1.3326  2.2668 -2.6818
   51MOL   H12017220   7.641   2.526   2.157 -0.1451  1.2021 -0.8654
   51MOL   C12117221   0.130   2.370   2.368 -0.1153  0.7518  0.1504
   51MOL   C12217222   0.277   2.388   2.411 -0.5550  0.0867 -0.2290
   51MOL   N12317223   0.337   2.489   2.325  1.0596  0.3860 -0.1897
   51MOL   C12417224   0.443   2.439   2.247  0.3966  0.2985 -1.0715
   51MOL   C12517225   0.492   2.568   2.172  0.2098 -0.7036  0.1828
   51MOL   C12617226   0.407   2.686   2.211 -0.3350  0.1698 -0.0471
   51MOL   C12717227   0.316   2.623   2.313 -0.2935  0.0730 -0.6146
   51MOL   O12817228   0.221   2.680   2.368  0.1187  0.0888  0.1684
   51MOL   H12917229   0.072   2.323   2.448 -0.6054 -1.1885 -1.2974
   51MOL   H13017230   0.088   2.469   2.353 -1.5332  0.4113  1.6572
   51MOL   H13117231   0.335   2.299   2.386 -0.7081 -0.1331  0.1837
   51MOL   H13217232   0.429   2.345   2.194  0.3607 -1.1890  1.4898
   51MOL   H13317233   0.526   2.412   2.313 -1.1527  0.4311  0.9744
   51MOL   H13417234   0.597   2.593   2.183  0.3111 -0.6915 -0.7464
   51MOL   H13517235   0.485   2.553   2.064 -0.5239  2.1139 -0.1972
   51MOL   H13617236   0.460   2.772   2.252  0.1029 -0.5578  0.9492
   51MOL   H13717237   0.351   2.739   2.134 -1.2243  0.3776  0.7291
   51MOL   C13817238   0.294   2.429   2.562 -0.3745 -0.0543 -0.4046
   51MOL   C13917239   0.266   2.314   2.669 -0.2232 -0.2517  0.1965
   51MOL   N14017240   0.336   2.189   2.650  0.1294  0.3514  0.2282
   51MOL   C14117241   0.259   2.073   2.612  0.6449  0.2532  0.6231
   51MOL   C14217242   0.356   1.983   2.536  0.2787  0.2851  0.6247
   51MOL   C14317243   0.493   2.035   2.575  0.1423  0.0050 -0.6080
   51MOL   C14417244   0.467   2.170   2.629  0.1527 -0.1139 -0.2429
   51MOL   O14517245   0.561   2.250   2.644  0.5618 -0.5507 -0.0821
   51MOL   H14617246   0.232   2.515   2.585  0.7447  0.8686 -0.7597
   51MOL   H14717247   0.400   2.450   2.580 -0.9876  1.5425  1.5299
   51MOL   H14817248   0.158   2.310   2.669 -0.4208  3.2671 -0.0533
   51MOL   H14917249   0.223   2.021   2.701  3.8315 -2.0609  0.6311
   51MOL   H15017250   0.162   2.092   2.564 -0.1805 -1.5203  1.5453
   51MOL   H15117251   0.335   1.880   2.564  0.4411 -0.1574 -0.7977
   51MOL   H15217252   0.336   1.978   2.429  2.3119 -0.8304  0.2632
   51MOL   H15317253   0.569   2.029   2.497 -0.8899 -0.8584 -1.5686
   51MOL   H15417254   0.534   1.986   2.663 -0.9722 -0.5741 -0.3925
   51MOL   C15517255   0.307   2.366   2.811  0.0247 -0.7861  0.0047
   51MOL   C15617256   0.259   2.273   2.927 -0.0877  0.1221 -0.5093
   51MOL   N15717257   0.351   2.298   3.042 -0.4105 -0.3715  0.7334
   51MOL   C15817258   0.355   2.432   3.101 -0.0917  0.1200 -0.3017
   51MOL   C15917259   0.463   2.431   3.201  0.5538  0.0289 -0.4599
   51MOL   C16017260   0.462   2.282   3.249  0.6687  0.1871  0.1643
   51MOL   C16117261   0.404   2.210   3.128  0.4803 -0.3280  0.2431
   51MOL   O16217262   0.411   2.086   3.110 -0.2287  0.5485 -0.0645
   51MOL   H16317263   0.250   2.459   2.814  0.2546 -0.6631  0.8576
   51MOL   H16417264   0.412   2.389   2.826  0.6460 -3.7959  0.6652
   51MOL   H16517265   0.275   2.167   2.905  1.0323 -0.2887  2.0856
   51MOL   H16617266   0.382   2.507   3.027  0.3516  1.0034  0.7242
   51MOL   H16717267   0.260   2.466   3.141  0.8768  0.1319  2.1261
   51MOL   H16817268   0.559   2.465   3.164  1.4160 -0.3108  1.3841
   51MOL   H16917269   0.433   2.499   3.281  0.3332 -1.4442  0.7178
   51MOL   H17017270   0.563   2.243   3.264  0.3523 -0.0142  1.7675
   51MOL   H17117271   0.395   2.257   3.331  0.4784 -1.6867 -0.5335
   51MOL   C17217272   0.112   2.295   2.963 -0.6397  0.5080  0.0275
   51MOL   C17317273   0.012   2.191   2.908  0.0377  0.5188  0.4972
   51MOL   N17417274   0.010   2.081   3.007 -0.5771 -0.0312  0.2590
   51MOL   C17517275   0.035   1.944   2.954  0.0169 -0.5430 -0.0066
   51MOL   C17617276   7.883   1.849   3.056 -0.4298  0.0349 -0.1678
   51MOL   C17717277   7.847   1.934   3.181  0.6766  0.2436 -0.4115
   51MOL   C17817278   7.850   2.076   3.125  0.5299 -0.5687  0.0377
   51MOL   O17917279   7.800   2.175   3.183 -0.1310  0.1139 -0.4491
   51MOL   H18017280   0.093   2.390   2.914 -1.2262  0.1534 -0.4289
   51MOL   H18117281   0.096   2.307   3.070 -0.1623 -2.9677  0.5559
   51MOL   H18217282   0.056   2.148   2.818 -1.1355 -0.1019  0.2181
   51MOL   H18317283   7.888   1.925   2.860 -0.9085 -1.9578  0.7829
   51MOL   H18417284   0.143   1.936   2.943  0.1664  2.9817 -2.1900
   51MOL   H18517285   0.051   1.776   3.088 -0.2662 -0.9704 -2.7354
   51MOL   H18617286   7.797   1.790   3.024 -0.3092 -1.1400  1.5769
   51MOL   H18717287   7.744   1.917   3.214  0.4330  1.6073 -0.4398
   51MOL   H18817288   0.010   1.921   3.264  0.1212  1.6032  0.2740
   51MOL   C18917289   7.777   2.250   2.860 -0.1751  0.8593  0.1294
   51MOL   C19017290   7.735   2.218   2.712  0.1076  0.5706  0.2439
   51MOL   N19117291   7.709   2.071   2.696  0.6781 -0.0571  0.0417
   51MOL   C19217292   7.758   2.005   2.575  0.4544 -0.0681 -0.0127
   51MOL   C19317293   7.716   1.857   2.573  0.1532  0.3580 -0.3033
   51MOL   C19417294   7.647   1.841   2.708  0.4201 -0.3563  0.2627
   51MOL   C19517295   7.637   1.984   2.769 -0.5027 -0.0128  1.0321
   51MOL   O19617296   7.589   2.006   2.880  0.6843 -0.4153 -0.4035
   51MOL   H19717297   7.774   2.356   2.885  2.1865  1.0076 -0.1471
   51MOL   H19817298   7.705   2.204   2.928  0.4896  0.6461  0.6957
   51MOL   H19917299   7.801   2.256   2.633  0.9241 -1.1455  0.0654
   51MOL   H20017300   7.715   2.061   2.492 -1.6636 -2.0478 -0.3059
   51MOL   H20117301   7.863   2.025   2.556  0.4533  0.0416  0.0957
   51MOL   H20217302   7.645   1.843   2.491 -0.6142 -0.4149  0.4771
   51MOL   H20317303   7.804   1.795   2.556  0.2979  0.3675  0.3942
   51MOL   H20417304   7.549   1.796   2.697  0.8042 -0.8500 -1.2213
   51MOL   H20517305   7.706   1.790   2.786  2.3466  0.2356 -0.7760
   51MOL   C20617306   7.600   2.295   2.674 -0.3834 -0.1466  0.1600
   51MOL   C20717307   7.610   2.437   2.619  0.0330  0.0342  0.1719
   51MOL   N20817308   7.468   2.479   2.582  0.6080 -0.2177 -0.8312
   51MOL   C20917309   7.406   2.424   2.460  0.0039  0.0839  0.4585
   51MOL   C21017310   7.252   2.446   2.477  0.0577  0.1376 -0.4300
   51MOL   C21117311   7.232   2.504   2.623  0.3104 -0.3118  0.3298
   51MOL   C21217312   7.374   2.524   2.672  0.0379  0.0665  0.2988
   51MOL   O21317313   7.393   2.564   2.787 -0.0943  0.0280  0.2419
   51MOL   H21417314   7.523   2.284   2.751  0.8067 -1.5823  1.1971
   51MOL   H21517315   7.555   2.229   2.600  1.5593  0.6336 -1.7649
   51MOL   H21617316   7.668   2.428   2.528 -1.9910 -1.3480 -1.0147
   51MOL   H21717317   7.446   2.470   2.370  2.1820 -0.7548  0.9602
   51MOL   H21817318   7.413   2.315   2.450  0.7127  0.2306 -0.6544
   51MOL   H21917319   7.231   2.529   2.410 -0.6879 -0.5359 -1.0387
   51MOL   H22017320   7.189   2.359   2.459 -0.1592  0.5265 -1.6407
   51MOL   H22117321   7.183   2.601   2.618  2.2003  0.6595  0.1695
   51MOL   H22217322   7.198   2.439   2.703  0.0248  1.2941  1.5374
   51MOL   C22317323   7.691   2.528   2.711  0.7470 -0.2817  0.0420
   51MOL   C22417324   7.705   2.667   2.665  0.6334 -0.1526  0.5966
   51MOL   N22517325   7.760   2.754   2.765  0.8331  0.4312 -0.4620
   51MOL   C22617326   7.677   2.864   2.822  0.7223 -0.0097 -0.0942
   51MOL   C22717327   7.764   2.934   2.925  0.5837 -0.2037 -0.3984
   51MOL   C22817328   0.001   2.885   2.888  0.4216  0.4743  0.7709
   51MOL   C22917329   7.888   2.764   2.804  0.2492  0.2866  0.1272
   51MOL   O23017330   0.069   2.696   2.753  0.3975  0.4877 -0.0684
   51MOL   H23117331   7.795   2.494   2.708  0.2972 -1.6131 -0.7073
   51MOL   H23217332   7.659   2.538   2.815 -0.6886 -2.5894 -0.1582
   51MOL   H23317333   7.600   2.692   2.655  1.2969  2.9186  0.8944
   51MOL   H23417334   7.645   2.935   2.747  0.9516  0.6809  0.4552
   51MOL   H23517335   7.590   2.811   2.861  1.2514 -1.4688 -0.8289
   51MOL   H23617336   7.750   3.042   2.921  1.6017 -0.0347  0.3576
   51MOL   H23717337   7.742   2.879   3.016 -0.0587  1.1223  0.2654
   51MOL   H23817338   0.046   2.972   2.840  2.6860 -0.8708  0.3606
   51MOL   H23917339   0.070   2.869   2.971  0.9530 -2.0478 -0.1141
   51MOL   C24017340   7.765   2.692   2.523 -0.4904  0.5066  0.2297
   51MOL   C24117341   7.692   2.808   2.447  0.0804 -0.1711  0.9249
   51MOL   N24217342   7.786   2.879   2.364 -0.1537  0.3533 -0.9103
   51MOL   C24317343   7.846   2.995   2.431  0.2168 -0.6702  0.6984
   51MOL   C24417344   0.052   3.036   2.326  0.0058  0.6476  0.2096
   51MOL   C24517345   0.050   2.927   2.217  0.1578  0.8301  0.2399
   51MOL   C24617346   7.835   2.839   2.249 -0.5461 -0.2462  0.0444
   51MOL   O24717347   7.800   2.743   2.185 -0.3085 -0.0525  0.2509
   51MOL   H24817348   7.763   2.598   2.468  0.4108 -0.2853  1.5178
   51MOL   H24917349   7.871   2.716   2.536 -0.4437  0.4959 -0.1222
   51MOL   H25017350   7.665   2.873   2.529  1.5592  1.6639 -0.0147
   51MOL   H25117351   7.771   3.074   2.443  0.9644  0.1581 -0.0289
   51MOL   H25217352   7.903   2.963   2.518  1.1002 -0.2768  0.2672
   51MOL   H25317353   0.019   3.127   2.275 -3.3429 -0.3526  0.4500
   51MOL   H25417354   0.147   3.038   2.378 -0.7360 -2.5079  1.8161
   51MOL   H25517355   0.040   2.969   2.116 -2.4619  0.9040  0.4937
   51MOL   H25617356   0.139   2.864   2.211 -0.9219 -0.9258  2.0384
   51MOL   C25717357   7.557   2.774   2.382 -0.4052  0.5549  0.1844
   51MOL   C25817358   7.480   2.895   2.314 -0.3274 -0.3121 -0.6440
   51MOL   N25917359   7.519   2.919   2.171 -0.2582 -0.3076 -0.6845
   51MOL   C26017360   7.578   3.045   2.139  0.3124  0.0116  0.8744
   51MOL   C26117361   7.625   3.050   1.995  0.9892 -0.2022 -0.7867
   51MOL   C26217362   7.577   2.916   1.939  0.5936  0.1536  0.3554
   51MOL   C26317363   7.523   2.841   2.062 -0.0141 -0.7626  0.8434
   51MOL   O26417364   7.479   2.727   2.058  0.2960  0.7947 -0.0404
   51MOL   H26517365   7.496   2.728   2.460 -1.6382 -2.7572 -2.5978
   51MOL   H26617366   7.574   2.698   2.305 -1.7680  0.2536  0.1731
   51MOL   H26717367   7.512   2.979   2.375 -0.4915  0.3961 -1.5196
   51MOL   H26817368   7.501   3.113   2.175 -1.2008 -1.0761 -0.2734
   51MOL   H26917369   7.666   3.072   2.198 -0.8494  2.2986  1.6375
   51MOL   H27017370   7.582   3.128   1.932 -0.2743  0.0047  0.3023
   51MOL   H27117371   7.733   3.059   1.983  1.1518  0.0131  0.7222
   51MOL   H27217372   7.501   2.922   1.861  1.0181  0.7467 -0.0124
   51MOL   H27317373   7.664   2.864   1.900 -0.8680 -2.4864  0.5003
   51MOL   C27417374   7.325   2.879   2.315  0.2132 -0.6043 -0.8630
   51MOL   C27517375   7.267   2.863   2.457  0.2327  0.0316 -0.5124
   51MOL   N27617376   7.306   2.963   2.560 -0.0189  0.4708  0.1697
   51MOL   C27717377   7.330   2.907   2.689 -0.0519  0.3776 -0.1039
   51MOL   C27817378   7.365   3.017   2.784  0.6723 -0.0307  0.1574
   51MOL   C27917379   7.395   3.138   2.689  0.2064 -0.4759  0.3976
   51MOL   C28017380   7.326   3.094   2.557 -0.0415 -0.7639 -0.0790
   51MOL   O28117381   7.305   3.162   2.454 -0.2373  0.0261 -0.7639
   51MOL   H28217382   7.295   2.799   2.248 -0.1688 -1.6972  0.5900
   51MOL   H28317383   7.289   2.972   2.269  0.3090  0.1228  0.5122
   51MOL   H28417384   7.297   2.761   2.481  0.1538  0.2072  0.3236
   51MOL   H28517385   7.234   2.868   2.722  0.7564 -2.3858 -0.8911
   51MOL   H28617386   7.399   2.822   2.689 -2.2812 -1.5047 -1.4840
   51MOL   H28717387   7.276   3.040   2.844 -0.2332  1.1997 -1.6256
   51MOL   H28817388   7.449   2.984   2.846 -0.1800 -2.4740  0.0370
   51MOL   H28917389   7.344   3.230   2.718  1.2574  0.2872 -0.1628
   51MOL   H29017390   7.504   3.142   2.682  0.3436  1.1721  2.8947
   51MOL   C29117391   7.111   2.854   2.460  0.0222 -0.3340 -0.5175
   51MOL   C29217392   7.018   2.976   2.437 -0.0155  0.2365  0.7455
   51MOL   N29317393   7.009   3.003   2.292 -0.5081  0.0787 -0.1657
   51MOL   C29417394   7.064   3.128   2.229 -0.5121  0.0528 -0.2457
   51MOL   C29517395   7.054   3.099   2.080  0.1088 -1.2084  0.3585
   51MOL   C29617396   6.985   2.972   2.060  0.1260 -0.5581 -0.1539
   51MOL   C29717397   6.945   2.928   2.199  0.8566 -0.5460  0.7958
   51MOL   O29817398   6.873   2.834   2.223  0.1789  0.0579 -0.2292
   51MOL   H29917399   7.092   2.827   2.564  0.2636 -0.3038 -0.4654
   51MOL   H30017400   7.085   2.777   2.387  0.9022 -1.9080  0.7971
   51MOL   H30117401   7.061   3.068   2.475 -0.7426  1.5168 -1.4319
   51MOL   H30217402   7.005   3.213   2.264 -1.4028 -0.9660  0.7350
   51MOL   H30317403   7.171   3.144   2.247 -0.2681  0.9169 -2.2348
   51MOL   H30417404   6.991   3.180   2.042 -0.7529 -1.7690  0.5792
   51MOL   H30517405   7.155   3.102   2.040  0.2449 -2.4859  0.5930
   51MOL   H30617406   6.913   2.977   1.979 -0.8451 -2.4354  0.5706
   51MOL   H30717407   7.053   2.896   2.022 -0.5930 -1.1323 -0.3021
   51MOL   C30817408   6.879   2.960   2.494  0.1324 -0.8530  0.2903
   51MOL   C30917409   6.882   3.000   2.643 -0.0302  1.1612  0.7308
   51MOL   N31017410   6.898   3.145   2.658  0.0006  0.1338 -0.1459
   51MOL   C31117411   7.021   3.198   2.733  0.9966  0.5971 -0.4518
   51MOL   C31217412   7.022   3.352   2.707  0.1012 -0.3310  0.0247
   51MOL   C31317413   6.908   3.372   2.603 -0.3945  0.7008  0.7598
   51MOL   C31417414   6.832   3.245   2.596 -0.2428 -0.3718  0.0553
   51MOL   O31517415   6.730   3.239   2.528 -0.2261 -0.4351  0.0776
   51MOL   H31617416   6.860   2.853   2.483  1.9605 -1.0276 -1.4098
   51MOL   H31717417   6.801   3.011   2.437  2.8718 -0.3106 -3.1276
   51MOL   H31817418   6.958   2.950   2.703  0.3126 -0.9749 -1.4154
   51MOL   H31917419   7.012   3.173   2.839  1.4431 -0.2831 -0.6152
   51MOL   H32017420   7.106   3.143   2.691  0.1525 -2.0176  1.0927
   51MOL   H32117421   7.009   3.419   2.792 -3.3404 -0.3215 -0.4408
   51MOL   H32217422   7.123   3.378   2.675  1.2151 -2.5789  1.6194
   51MOL   H32317423   6.842   3.447   2.646 -0.8686  1.0393 -0.5385
   51MOL   H32417424   6.939   3.406   2.504 -2.7724  1.0556  0.1060
   51MOL   C32517425   6.752   2.944   2.713  0.0818  0.0562 -0.7473
   51MOL   C32617426   6.744   2.989   2.867  0.1828  0.4116 -0.0112
   51MOL   N32717427   6.688   2.887   2.960  0.4912 -0.2669 -0.4668
   51MOL   C32817428   6.722   2.907   3.101 -0.4785  0.2556 -0.2451
   51MOL   C32917429   6.646   2.800   3.174  0.0789  0.0247  0.2914
   51MOL   C33017430   6.557   2.717   3.069 -0.7943 -0.2543 -0.4167
   51MOL   C33117431   6.585   2.797   2.941 -0.3442 -0.8031 -0.1331
   51MOL   O33217432   6.517   2.779   2.840 -0.4050 -0.3677  0.4818
   51MOL   H33317433   6.720   2.841   2.697  1.5276 -0.9781  2.6410
   51MOL   H33417434   6.664   2.999   2.677  0.3803  0.3828 -0.9772
   51MOL   H33517435   6.665   3.063   2.872  0.6350  1.2027 -3.1914
   51MOL   H33617436   6.829   2.887   3.107 -0.1849  1.3487 -1.6415
   51MOL   H33717437   6.703   3.007   3.139 -0.8588  0.7869 -1.7960
   51MOL   H33817438   6.707   2.733   3.233 -1.8458  0.6974  3.1643
   51MOL   H33917439   6.574   2.851   3.238  0.3063 -0.2674  0.7783
   51MOL   H34017440   6.617   2.627   3.052 -0.8735 -0.6415  1.2374
   51MOL   H34117441   6.452   2.697   3.087 -0.4535 -2.5536 -0.7541
   51MOL   H34217442   6.836   3.029   2.910  1.3821 -0.9216 -1.2712
   52MOL     C117443   0.195   6.967   2.710  0.7428  0.1439  0.6074
   52MOL     C217444   0.093   6.868   2.774  0.1817 -0.5438  0.3242
   52MOL     N317445   0.001   6.826   2.661 -0.7123 -0.6292 -0.1278
   52MOL     C417446   7.779   6.892   2.637 -0.5891  0.0593 -0.9440
   52MOL     C517447   7.719   6.817   2.526 -0.2416 -0.9433 -0.1272
   52MOL     C617448   7.828   6.731   2.457 -0.1751 -0.2776 -0.1253
   52MOL     C717449   0.032   6.740   2.562  1.0159 -0.0317  0.1485
   52MOL     O817450   0.131   6.669   2.554  0.4854 -0.8881  0.3176
   52MOL     H917451   0.243   6.920   2.624 -0.0125 -0.5508  0.5672
   52MOL    H1017452   0.133   7.055   2.695 -1.5742 -1.1557  2.2116
   52MOL    H1117453   0.024   6.922   2.839 -1.2109 -0.6228 -1.0533
   52MOL    H1217454   7.726   6.888   2.732  1.4142  0.3864  0.2142
   52MOL    H1317455   7.801   6.996   2.610  1.4374  0.4388  1.9559
   52MOL    H1417456   7.640   6.756   2.570 -2.0931  1.2175 -0.3888
   52MOL    H1517457   7.673   6.887   2.456  0.2313  0.0521  0.5431
   52MOL    H1617458   7.787   6.631   2.447 -0.2899 -0.0223 -2.4149
   52MOL    H1717459   7.859   6.778   2.364  0.9544  0.7804  0.7599
   52MOL    H1817460   0.273   6.981   2.785  0.9663  1.8389  0.0876
   52MOL    C1917461   0.152   6.753   2.853  0.1323 -0.4939 -0.0604
   52MOL    C2017462   0.084   6.739   2.990 -0.3698  0.1726 -0.0467
   52MOL    N2117463   7.848   6.722   2.981 -0.6674  0.0719 -0.0489
   52MOL    C2217464   7.760   6.818   3.052  0.1654  0.1327  0.3467
   52MOL    C2317465   7.619   6.763   3.036 -0.0475 -0.0207 -0.0352
   52MOL    C2417466   7.629   6.639   2.949 -0.3096 -0.5280  0.4683
   52MOL    C2517467   7.780   6.628   2.916  0.1954 -0.6749  0.4531
   52MOL    O2617468   7.823   6.558   2.831  0.1285  0.1088  0.3681
   52MOL    H2717469   0.259   6.759   2.868  0.2260  0.6421 -1.0618
   52MOL    H2817470   0.144   6.655   2.804 -1.3171 -0.1045 -0.6372
   52MOL    H2917471   0.098   6.828   3.052  0.2274  1.2418 -1.7058
   52MOL    H3017472   7.796   6.808   3.154 -1.0243  1.1346  0.8832
   52MOL    H3117473   7.760   6.918   3.007  1.2602  0.2994  0.7123
   52MOL    H3217474   7.580   6.741   3.135 -0.3819  0.1499 -0.1273
   52MOL    H3317475   7.553   6.841   2.997 -1.8494 -1.5119 -0.0255
   52MOL    H3417476   7.604   6.547   3.001  0.0559 -0.6888  0.3614
   52MOL    H3517477   7.564   6.647   2.863 -0.3031 -2.5480  0.2575
   52MOL    C3617478   0.142   6.620   3.078 -0.5306  0.7659  0.7713
   52MOL    C3717479   0.264   6.648   3.167  0.0793 -0.3600  0.8452
   52MOL    N3817480   0.298   6.526   3.245  0.0625 -0.4156 -0.5061
   52MOL    C3917481   0.261   6.531   3.385  0.5316 -0.5097 -0.3795
   52MOL    C4017482   0.285   6.389   3.429  0.6100 -0.0719  0.0374
   52MOL    C4117483   0.338   6.305   3.317 -0.5814  0.2686 -0.0818
   52MOL    C4217484   0.349   6.408   3.206  0.0417 -0.0870  0.2866
   52MOL    O4317485   0.399   6.379   3.098  0.1198 -0.0489  0.1824
   52MOL    H4417486   0.163   6.536   3.012 -1.5416 -0.1969  1.6592
   52MOL    H4517487   0.067   6.572   3.141 -0.0384 -2.2494 -0.8564
   52MOL    H4617488   0.224   6.722   3.237 -2.6308 -1.8387  0.9050
   52MOL    H4717489   0.334   6.588   3.442 -0.2466 -1.6102  1.7683
   52MOL    H4817490   0.156   6.558   3.395  1.1761  1.8193  0.4208
   52MOL    H4917491   0.362   6.395   3.506  1.3175  0.5329 -0.6970
   52MOL    H5017492   0.196   6.343   3.472 -1.2434  0.7824 -2.7702
   52MOL    H5117493   0.430   6.254   3.345 -1.0598 -0.2971  0.4695
   52MOL    H5217494   0.268   6.227   3.285  0.5536 -0.2497 -1.3187
   52MOL    C5317495   0.391   6.701   3.093  0.4366  0.2755 -0.3113
   52MOL    C5417496   0.529   6.701   3.161  0.7331  0.0114 -0.0574
   52MOL    N5517497   0.629   6.756   3.069  0.1406 -0.4095  0.4264
   52MOL    C5617498   0.749   6.684   3.036 -0.3273 -0.2933  0.1224
   52MOL    C5717499   0.797   6.765   2.913 -0.0587  0.0634  0.4534
   52MOL    C5817500   0.750   6.902   2.926  0.3000 -0.0928 -0.1786
   52MOL    C5917501   0.635   6.881   3.025  0.2796  0.7520 -0.4524
   52MOL    O6017502   0.552   6.967   3.053  0.1316 -0.4338  0.2912
   52MOL    H6117503   0.370   6.802   3.058 -0.3264 -0.5776 -2.3842
   52MOL    H6217504   0.393   6.646   3.000  0.5503 -0.9373  0.4034
   52MOL    H6317505   0.549   6.594   3.176 -1.5734 -0.3563  0.6443
   52MOL    H6417506   0.822   6.708   3.113 -0.5679 -0.5010  0.4181
   52MOL    H6517507   0.741   6.576   3.022 -1.3578 -0.1106 -0.7715
   52MOL    H6617508   0.905   6.770   2.901 -0.1073  0.1294  0.0418
   52MOL    H6717509   0.758   6.717   2.823  0.9324  0.7168 -0.3335
   52MOL    H6817510   0.833   6.952   2.976  0.6416 -0.6829 -0.1477
   52MOL    H6917511   0.732   6.930   2.822  0.5397 -2.7156 -0.9440
   52MOL    C7017512   0.533   6.769   3.295  0.3914  0.4574 -0.1382
   52MOL    C7117513   0.659   6.752   3.373  0.0167 -0.2941  1.6978
   52MOL    N7217514   0.629   6.826   3.497 -1.1656  0.4559  0.2179
   52MOL    C7317515   0.656   6.975   3.501 -0.1986  0.2236  0.0048
   52MOL    C7417516   0.610   7.014   3.641 -0.4300  0.2931  0.3382
   52MOL    C7517517   0.536   6.899   3.703 -0.0096 -0.6127 -0.6441
   52MOL    C7617518   0.556   6.787   3.596 -0.9089  0.2091 -0.7950
   52MOL    O7717519   0.501   6.676   3.604  0.4218 -0.1275  0.0048
   52MOL    H7817520   0.442   6.745   3.350  0.1165  1.0615 -0.3319
   52MOL    H7917521   0.517   6.876   3.284  1.5016  0.6402 -0.0457
   52MOL    H8017522   0.744   6.805   3.331 -1.2300 -0.5305 -1.2737
   52MOL    H8117523   0.759   7.009   3.485 -0.6190  0.5878 -1.9956
   52MOL    H8217524   0.590   7.010   3.422  0.4137  1.7930  0.1826
   52MOL    H8317525   0.697   7.031   3.704  0.0137 -0.4235 -0.0808
   52MOL    H8417526   0.546   7.103   3.641 -0.8436  0.0139  2.2494
   52MOL    H8517527   0.577   6.860   3.795 -1.6866 -0.3133  0.2533
   52MOL    H8617528   0.429   6.904   3.727  0.1679  0.8214 -0.1627
   52MOL    C8717529   0.708   6.606   3.396 -1.1192  0.4716 -0.4818
   52MOL    C8817530   0.829   6.589   3.493 -0.8746  0.3900 -0.0812
   52MOL    N8917531   0.835   6.453   3.549  0.0019 -0.1867 -0.0427
   52MOL    C9017532   0.774   6.439   3.681  0.4162 -0.2927  0.5983
   52MOL    C9117533   0.805   6.296   3.726 -0.0545 -0.7154  0.3282
   52MOL    C9217534   0.846   6.226   3.601  0.2639  0.8512 -0.3507
   52MOL    C9317535   0.873   6.336   3.503  0.6245 -0.0047 -0.2196
   52MOL    O9417536   0.920   6.312   3.391  0.0023  0.1846  0.0185
   52MOL    H9517537   0.741   6.573   3.297  0.5251 -2.1191  0.8648
   52MOL    H9617538   0.625   6.542   3.425  0.8329 -0.8112  2.5820
   52MOL    H9717539   0.820   6.657   3.578  1.3900  0.1234  0.4110
   52MOL    H9817540   0.813   6.506   3.758  0.2696 -0.0106  0.4270
   52MOL    H9917541   0.668   6.462   3.679 -0.0907 -2.4446  1.3612
   52MOL   H10017542   0.884   6.307   3.801  0.5153 -0.2019 -0.3474
   52MOL   H10117543   0.724   6.244   3.777 -0.6312 -0.5660 -0.4403
   52MOL   H10217544   0.944   6.184   3.623 -0.0286  0.8656  1.0098
   52MOL   H10317545   0.769   6.150   3.584 -0.0460  1.5635 -2.2302
   52MOL   C10417546   0.973   6.633   3.437 -0.1018  0.4566 -0.7900
   52MOL   C10517547   1.048   6.749   3.516  0.5078  0.0957 -0.5306
   52MOL   N10617548   1.074   6.711   3.658  0.2914  0.0413 -0.4256
   52MOL   C10717549   1.029   6.792   3.765  0.1247  0.5767  0.8836
   52MOL   C10817550   1.083   6.737   3.895 -0.5439  0.8463 -0.0957
   52MOL   C10917551   1.156   6.607   3.856  0.2696  0.4009 -0.0881
   52MOL   C11017552   1.144   6.606   3.706 -0.2872 -0.0142  0.8563
   52MOL   O11117553   1.189   6.512   3.643  0.0169  0.7068 -0.3008
   52MOL   H11217554   0.952   6.663   3.334 -1.5436  0.5033 -0.4934
   52MOL   H11317555   1.038   6.546   3.444 -1.9972 -0.7965  1.8196
   52MOL   H11417556   0.995   6.844   3.509  0.5755  0.1690 -0.0670
   52MOL   H11517557   1.064   6.894   3.748  0.7694  0.2602  0.3282
   52MOL   H11617558   0.920   6.783   3.770  0.2225 -1.7223 -0.3443
   52MOL   H11717559   1.159   6.812   3.916  1.0515 -0.7475 -0.1113
   52MOL   H11817560   1.021   6.726   3.984  0.7432 -0.6225  0.6438
   52MOL   H11917561   1.098   6.525   3.898  0.1427  0.7156  0.3529
   52MOL   H12017562   1.261   6.609   3.884  0.2235  3.2150 -0.0152
   52MOL   C12117563   1.182   6.776   3.443 -0.2606  0.1665 -0.2104
   52MOL   C12217564   1.172   6.844   3.303 -0.5203 -0.8655  0.0183
   52MOL   N12317565   1.104   6.977   3.305  0.0199 -0.2838 -0.3930
   52MOL   C12417566   0.983   7.015   3.232 -1.3148 -0.6256 -0.1029
   52MOL   C12517567   0.936   7.155   3.274  0.7974 -0.2912 -0.2430
   52MOL   C12617568   1.059   7.200   3.357 -0.1629  0.0603 -0.7834
   52MOL   C12717569   1.155   7.084   3.369  0.2859 -0.3405 -0.0353
   52MOL   O12817570   1.255   7.092   3.437  0.5502  0.4269  0.4223
   52MOL   H12917571   1.239   6.684   3.433 -1.4776 -0.7190  0.8297
   52MOL   H13017572   1.251   6.837   3.502  1.5395 -1.4081 -0.6354
   52MOL   H13117573   1.098   6.790   3.245 -0.0837 -1.7771  0.2971
   52MOL   H13217574   0.901   6.949   3.261  0.2061 -2.8909 -0.8072
   52MOL   H13317575   0.997   7.016   3.124  0.0417 -1.4562  0.0493
   52MOL   H13417576   0.905   7.218   3.192  2.4107 -1.6024 -1.9071
   52MOL   H13517577   0.851   7.141   3.341  0.2922  0.6893 -0.6857
   52MOL   H13617578   1.102   7.289   3.311 -0.4761  0.7003  0.1634
   52MOL   H13717579   1.029   7.228   3.457  0.7348 -1.0866 -0.1758
   52MOL   C13817580   1.303   6.854   3.219 -0.0889  0.4845 -0.2661
   52MOL   C13917581   1.351   6.724   3.153  0.3331  0.1191  0.1867
   52MOL   N14017582   1.252   6.629   3.089 -0.5615  0.4546 -0.0776
   52MOL   C14117583   1.257   6.484   3.133  0.4936  0.8429  0.6187
   52MOL   C14217584   1.185   6.419   3.015  0.5445 -0.4222  0.1122
   52MOL   C14317585   1.105   6.526   2.948  0.4808  0.7360 -0.2450
   52MOL   C14417586   1.165   6.660   2.997 -0.4609 -0.1206  0.3054
   52MOL   O14517587   1.143   6.767   2.943  0.2338  0.2979  0.2126
   52MOL   H14617588   1.393   6.878   3.275 -1.2647  0.0767  1.8553
   52MOL   H14717589   1.289   6.935   3.146  0.5008 -1.5002 -2.6662
   52MOL   H14817590   1.405   6.657   3.220  0.8032  1.3861  1.0933
   52MOL   H14917591   1.354   6.435   3.137  0.5337  0.8893  0.1913
   52MOL   H15017592   1.203   6.450   3.222 -0.9969  0.0051 -0.5843
   52MOL   H15117593   1.258   6.380   2.944  0.8880  0.7109 -0.1725
   52MOL   H15217594   1.127   6.332   3.045 -0.5766  0.0301 -0.7482
   52MOL   H15317595   1.008   6.542   2.997  0.8131  4.2092 -0.5801
   52MOL   H15417596   1.090   6.523   2.840 -0.3621 -0.7080 -0.1058
   52MOL   C15517597   1.459   6.744   3.042  0.2021  0.2477 -0.2660
   52MOL   C15617598   1.593   6.668   3.064  0.3632  0.2786  0.5289
   52MOL   N15717599   1.664   6.626   2.947 -0.5460  0.0802  0.5362
   52MOL   C15817600   1.637   6.490   2.891  0.0627 -0.3793 -0.5228
   52MOL   C15917601   1.707   6.481   2.758  0.0394 -0.6949 -0.0371
   52MOL   C16017602   1.778   6.612   2.741 -0.3806 -0.3058  0.5093
   52MOL   C16117603   1.742   6.701   2.859 -0.0550  0.2968  0.2084
   52MOL   O16217604   1.761   6.822   2.869  0.0420 -0.4319 -0.0979
   52MOL   H16317605   1.469   6.852   3.034 -1.4269  0.4756  0.5673
   52MOL   H16417606   1.420   6.716   2.945 -1.7532 -1.2519  0.9169
   52MOL   H16517607   1.561   6.572   3.105  2.9374 -0.3026  1.2473
   52MOL   H16617608   1.669   6.407   2.954  3.1257  0.1835 -1.2884
   52MOL   H16717609   1.530   6.468   2.881 -0.4591  1.2743  0.9841
   52MOL   H16817610   1.782   6.403   2.739 -0.3157 -0.6460 -1.7161
   52MOL   H16917611   1.622   6.478   2.691  0.7788 -0.0903 -1.0221
   52MOL   H17017612   1.887   6.606   2.734 -0.4241  0.3014 -0.9149
   52MOL   H17117613   1.754   6.660   2.646  2.1332  0.1840  0.0738
   52MOL   C17217614   1.688   6.744   3.164 -0.0141 -1.0777 -0.9002
   52MOL   C17317615   1.765   6.649   3.259  0.4478 -0.8912 -0.2159
   52MOL   N17417616   1.680   6.593   3.368  0.2448  0.5340 -0.6903
   52MOL   C17517617   1.657   6.683   3.484 -0.6769  1.2733 -0.2090
   52MOL   C17617618   1.559   6.591   3.569 -0.1532 -0.6540 -0.1635
   52MOL   C17717619   1.519   6.471   3.482  0.3434  0.6483 -0.9345
   52MOL   C17817620   1.610   6.483   3.365 -0.5685 -0.2784 -0.5426
   52MOL   O17917621   1.614   6.397   3.283  0.2427  0.3815 -0.4332
   52MOL   H18017622   1.619   6.803   3.225 -1.9314 -2.6511 -1.4649
   52MOL   H18117623   1.754   6.820   3.125  1.0708 -1.3110  0.4220
   52MOL   H18217624   1.825   6.726   3.307 -1.6324  0.2275  0.6372
   52MOL   H18317625   1.746   6.718   3.535 -0.3659 -0.7721  0.6937
   52MOL   H18417626   1.607   6.772   3.446 -2.0634  0.6318  0.0370
   52MOL   H18517627   1.471   6.647   3.603 -0.1399 -0.2958 -0.7221
   52MOL   H18617628   1.602   6.549   3.660 -1.1395 -0.4891  0.3840
   52MOL   H18717629   1.530   6.381   3.542 -1.9895  0.3475 -0.9113
   52MOL   H18817630   1.418   6.477   3.442  0.4320 -0.3076 -1.3296
   52MOL   C18917631   1.861   6.550   3.189  0.3732  0.0882  0.0878
   52MOL   C19017632   1.947   6.477   3.290 -0.9875  0.8073 -0.3342
   52MOL   N19117633   1.974   6.338   3.241  0.0197 -0.1315 -0.3261
   52MOL   C19217634   1.954   6.226   3.328 -0.1814  0.4099  1.1452
   52MOL   C19317635   2.020   6.115   3.251  0.3609 -0.3650  0.4061
   52MOL   C19417636   2.019   6.158   3.102 -0.4952 -0.5001  0.3694
   52MOL   C19517637   2.012   6.309   3.116 -0.0609  0.2119  0.1013
   52MOL   O19617638   2.035   6.392   3.023 -0.0961  0.0034 -0.0808
   52MOL   H19717639   1.934   6.601   3.126  3.4513 -1.8077  1.9455
   52MOL   H19817640   1.800   6.477   3.135 -0.1539  0.2441  0.4710
   52MOL   H19917641   1.896   6.458   3.384  1.1864 -0.9980  0.5357
   52MOL   H20017642   1.989   6.233   3.431  2.0539  1.4314  0.3510
   52MOL   H20117643   1.845   6.231   3.321 -0.3251 -3.6745 -0.3593
   52MOL   H20217644   2.126   6.112   3.276  0.9668  0.0757 -1.9755
   52MOL   H20317645   1.960   6.027   3.272  0.5255 -0.1906  1.6412
   52MOL   H20417646   2.108   6.125   3.046  0.7822  0.0606  2.0420
   52MOL   H20517647   1.931   6.129   3.045 -1.1649  1.3702  0.4507
   52MOL   C20617648   2.078   6.545   3.309  0.0325  0.8622 -0.2252
   52MOL   C20717649   2.154   6.531   3.442  0.5428  0.4699 -0.0053
   52MOL   N20817650   2.291   6.564   3.418  0.5522  0.4236  0.3703
   52MOL   C20917651   2.378   6.445   3.424 -0.4410  0.4549 -0.2787
   52MOL   C21017652   2.531   6.495   3.397 -0.4122  0.1471  0.4538
   52MOL   C21117653   2.506   6.639   3.351 -0.5971  0.7636 -0.6078
   52MOL   C21217654   2.357   6.673   3.386  0.2384  0.0082 -0.5932
   52MOL   O21317655   2.309   6.787   3.381  0.6374 -0.5297 -0.5079
   52MOL   H21417656   2.045   6.649   3.308 -1.2672  0.4794  1.6115
   52MOL   H21517657   2.141   6.533   3.221  0.9658  0.0547  0.5480
   52MOL   H21617658   2.136   6.426   3.465 -2.3444  0.7903 -0.5978
   52MOL   H21717659   2.369   6.401   3.523  1.2761  1.1566  0.2137
   52MOL   H21817660   2.353   6.381   3.339 -0.8737 -0.7868  0.7762
   52MOL   H21917661   2.598   6.494   3.484 -0.7877 -1.9778  0.7366
   52MOL   H22017662   2.586   6.441   3.320 -0.3486  0.0778  0.5477
   52MOL   H22117663   2.580   6.707   3.394 -0.9282 -0.1440  1.4595
   52MOL   H22217664   2.529   6.638   3.244  1.5872 -0.7018 -0.1442
   52MOL   C22317665   2.085   6.619   3.554  0.0820  0.2986  0.0157
   52MOL   C22417666   2.148   6.616   3.699 -0.1627  0.1144  0.1403
   52MOL   N22517667   2.246   6.727   3.721  0.7514  0.1368  0.2957
   52MOL   C22617668   2.389   6.705   3.733 -0.2004 -0.0237  0.5084
   52MOL   C22717669   2.444   6.849   3.752 -0.0572  0.9717 -0.0766
   52MOL   C22817670   2.324   6.938   3.783  0.0137  0.8723 -0.1032
   52MOL   C22917671   2.205   6.853   3.736 -0.1238  0.3256  0.8395
   52MOL   O23017672   2.090   6.897   3.713  0.4907  0.1546  0.7066
   52MOL   H23117673   1.982   6.584   3.563  0.3093 -0.3685  0.0912
   52MOL   H23217674   2.078   6.722   3.518 -1.4348  0.3342  0.3683
   52MOL   H23317675   2.194   6.517   3.703  1.7743  0.8366 -2.4500
   52MOL   H23417676   2.406   6.639   3.818  0.3464 -0.4252  0.0902
   52MOL   H23517677   2.444   6.660   3.651  0.7283 -1.7477  2.0399
   52MOL   H23617678   2.513   6.868   3.835  1.0941 -0.3407 -0.7124
   52MOL   H23717679   2.488   6.895   3.664  0.6686 -1.5243 -1.0793
   52MOL   H23817680   2.306   6.966   3.887  0.1545 -0.6235  0.3381
   52MOL   H23917681   2.329   7.034   3.731 -1.2829  0.5587 -0.8253
   52MOL   C24017682   2.043   6.614   3.809  0.5352 -0.3503 -0.3344
   52MOL   C24117683   1.967   6.475   3.819 -0.1459 -0.3912  0.8652
   52MOL   N24217684   2.048   6.365   3.872 -0.1660 -0.5554  0.4872
   52MOL   C24317685   2.084   6.257   3.786  0.0621  0.5039 -0.3598
   52MOL   C24417686   2.172   6.171   3.876 -0.3639  0.2399  0.5452
   52MOL   C24517687   2.198   6.252   4.005 -0.0619 -0.4243  0.4722
   52MOL   C24617688   2.097   6.367   3.997 -0.5297 -0.1260 -0.2104
   52MOL   O24717689   2.079   6.443   4.096 -1.0378 -1.0292  0.1830
   52MOL   H24817690   1.976   6.698   3.790 -0.3510 -0.6568  1.3690
   52MOL   H24917691   2.088   6.631   3.907  0.8784 -0.9365 -0.3867
   52MOL   H25017692   1.939   6.445   3.718  1.4489 -1.1898  0.6431
   52MOL   H25117693   1.992   6.204   3.761 -0.6396  0.4710  2.1635
   52MOL   H25217694   2.127   6.294   3.693 -0.8874 -0.5648 -1.2344
   52MOL   H25317695   2.114   6.081   3.894 -0.7287  0.9044  2.8694
   52MOL   H25417696   2.265   6.148   3.825  0.0449  4.3337 -0.7509
   52MOL   H25517697   2.186   6.195   4.097 -0.0357  1.9087  1.9726
   52MOL   H25617698   2.302   6.283   4.018  0.5203 -2.7475  1.5910
   52MOL   C25717699   1.834   6.479   3.890  0.0152 -0.0209  0.6718
   52MOL   C25817700   1.757   6.345   3.905 -0.3065 -0.2079 -0.2522
   52MOL   N25917701   1.648   6.364   4.006  0.0930  0.2403  0.2868
   52MOL   C26017702   1.638   6.276   4.113 -0.5307 -0.5359 -0.0887
   52MOL   C26117703   1.507   6.319   4.187  0.5765 -0.6373  0.6769
   52MOL   C26217704   1.462   6.454   4.126 -1.5077  0.0721  0.4288
   52MOL   C26317705   1.554   6.463   4.003  0.0524 -0.0384  0.1263
   52MOL   O26417706   1.533   6.541   3.908 -0.5554  0.2415 -0.3418
   52MOL   H26517707   1.782   6.552   3.828  1.9402  1.7254  1.0711
   52MOL   H26617708   1.847   6.530   3.986  0.2023 -1.1588  1.2597
   52MOL   H26717709   1.811   6.264   3.953  0.6233  1.0659  0.8810
   52MOL   H26817710   1.622   6.174   4.078 -1.4460 -1.2753  2.3338
   52MOL   H26917711   1.726   6.300   4.173 -0.7321 -0.0581  0.0205
   52MOL   H27017712   1.424   6.253   4.162  0.8020 -0.3103 -1.0268
   52MOL   H27117713   1.514   6.329   4.295  0.5852  0.7767  0.5501
   52MOL   H27217714   1.360   6.455   4.088 -0.8577 -2.2841 -1.5168
   52MOL   H27317715   1.487   6.544   4.182 -0.9095  0.6458 -0.7456
   52MOL   C27417716   1.711   6.282   3.773  0.3711  0.5008 -0.1414
   52MOL   C27517717   1.622   6.161   3.786 -0.3752  0.2362  0.5018
   52MOL   N27617718   1.542   6.126   3.666 -0.0228 -0.5000  0.5025
   52MOL   C27717719   1.396   6.143   3.663  0.1906 -0.5625 -0.4039
   52MOL   C27817720   1.345   6.071   3.534 -0.8773 -0.4105 -0.3756
   52MOL   C27917721   1.469   6.000   3.475 -0.5223 -0.6351  0.1406
   52MOL   C28017722   1.588   6.062   3.556 -0.6966  0.0238 -0.0000
   52MOL   O28117723   1.707   6.040   3.522  1.0272 -0.5173 -0.1731
   52MOL   H28217724   1.801   6.260   3.715  1.9240 -0.0317  2.4097
   52MOL   H28317725   1.659   6.366   3.727  0.5883  0.1076 -1.1132
   52MOL   H28417726   1.543   6.185   3.858 -0.5541  2.2910 -0.3494
   52MOL   H28517727   1.339   6.115   3.751 -1.0234  0.9388 -0.7049
   52MOL   H28617728   1.372   6.249   3.660 -2.4860 -1.1784 -2.5008
   52MOL   H28717729   1.270   6.002   3.571  0.5995 -1.7432  0.2057
   52MOL   H28817730   1.306   6.142   3.461 -0.8142 -0.4719 -0.4698
   52MOL   H28917731   1.483   5.895   3.501  0.2997 -0.1839  1.5906
   52MOL   H29017732   1.480   6.012   3.368  0.2646 -2.8167 -0.0554
   52MOL   C29117733   1.694   6.036   3.839  0.8693 -0.3255 -0.4462
   52MOL   C29217734   1.617   5.906   3.857 -0.2208  0.1718 -0.1844
   52MOL   N29317735   1.708   5.795   3.856  0.4044  0.8132  0.2078
   52MOL   C29417736   1.729   5.708   3.737 -0.0979 -0.3238  0.1482
   52MOL   C29517737   1.792   5.581   3.793 -0.4517 -0.2523 -0.2435
   52MOL   C29617738   1.849   5.623   3.929 -0.0636 -0.3090 -1.2988
   52MOL   C29717739   1.784   5.754   3.959  0.4184 -0.2259 -0.4421
   52MOL   O29817740   1.793   5.812   4.064  0.6285 -0.0748 -0.3476
   52MOL   H29917741   1.743   6.057   3.935 -0.3095 -2.1891  0.5827
   52MOL   H30017742   1.778   6.021   3.771  0.3717 -2.2139 -0.6531
   52MOL   H30117743   1.551   5.893   3.771 -0.4200 -4.4904  0.5061
   52MOL   H30217744   1.638   5.699   3.678  0.4771 -4.7918 -0.2679
   52MOL   H30317745   1.800   5.764   3.676  0.5365 -0.8549  0.3918
   52MOL   H30417746   1.706   5.521   3.823 -1.5342  1.7088  0.6480
   52MOL   H30517747   1.861   5.525   3.730 -1.5875 -1.9687  0.0208
   52MOL   H30617748   1.831   5.549   4.007 -0.0162 -0.0760 -1.0663
   52MOL   H30717749   1.956   5.640   3.934  0.1839 -1.8675 -1.0086
   52MOL   C30817750   1.514   5.900   3.984  0.0913 -0.4806  0.5163
   52MOL   C30917751   1.447   5.767   4.017  0.0520  0.6894 -0.6822
   52MOL   N31017752   1.377   5.788   4.147  0.3655 -0.0685  0.1416
   52MOL   C31117753   1.399   5.675   4.239 -0.1130  0.3148  0.1933
   52MOL   C31217754   1.312   5.699   4.358 -0.1381 -0.0241 -0.0161
   52MOL   C31317755   1.237   5.833   4.334 -0.6992  0.0730 -0.2976
   52MOL   C31417756   1.295   5.882   4.192 -0.2801 -0.1943 -0.6454
   52MOL   O31517757   1.266   5.993   4.151  0.5881 -0.1970 -0.2398
   52MOL   H31617758   1.435   5.973   3.968 -1.3458 -2.3245 -0.9770
   52MOL   H31717759   1.565   5.932   4.075  0.4841  0.3437  0.0203
   52MOL   H31817760   1.520   5.689   4.037 -1.2323 -0.3305  0.0808
   52MOL   H31917761   1.391   5.574   4.198  0.8930  0.1508  0.3849
   52MOL   H32017762   1.499   5.686   4.281 -0.4749  2.7095  0.4840
   52MOL   H32117763   1.243   5.615   4.367 -0.3756  0.3490  1.8787
   52MOL   H32217764   1.364   5.705   4.454 -1.6633  0.8230  0.7871
   52MOL   H32317765   1.128   5.824   4.329 -0.7113 -1.5385  2.0710
   52MOL   H32417766   1.270   5.909   4.405  1.3307 -1.4306  0.3996
   52MOL   C32517767   1.355   5.720   3.897 -0.7884 -0.5647  0.0684
   52MOL   C32617768   1.280   5.587   3.907 -0.2062  0.5071  0.0968
   52MOL   N32717769   1.227   5.541   3.774  0.7482 -0.2346  0.7291
   52MOL   C32817770   1.082   5.547   3.738  0.1787  0.2450 -0.0924
   52MOL   C32917771   1.080   5.481   3.606 -0.1181  0.6497  0.2821
   52MOL   C33017772   1.220   5.444   3.564  0.1607  0.0110  0.5802
   52MOL   C33117773   1.307   5.490   3.678  0.6085  0.3413 -0.6129
   52MOL   O33217774   1.428   5.472   3.680 -0.4406  0.3828  0.1237
   52MOL   H33317775   1.421   5.714   3.811  0.5812  0.3625  1.0308
   52MOL   H33417776   1.287   5.805   3.890  0.1146  0.2001  0.4303
   52MOL   H33517777   1.195   5.599   3.975  1.0284  0.9508  1.6154
   52MOL   H33617778   1.007   5.504   3.805 -0.6221  0.4420 -0.8604
   52MOL   H33717779   1.057   5.653   3.737 -1.7709 -0.1877 -2.6329
   52MOL   H33817780   1.014   5.394   3.608  0.1550  0.4520  0.8361
   52MOL   H33917781   1.031   5.561   3.550 -1.9510  0.1037  1.0514
   52MOL   H34017782   1.233   5.337   3.549  1.8169 -0.1575  2.9523
   52MOL   H34117783   1.252   5.491   3.471  0.7675 -0.0410  0.7637
   52MOL   H34217784   1.352   5.516   3.948  0.8282  1.8010  0.5870
   53MOL     C117785   6.228   1.991   5.959 -0.9249  1.0415  0.1330
   53MOL     C217786   6.275   1.976   5.809  0.3267 -0.0010  0.5913
   53MOL     N317787   6.366   2.085   5.771 -0.2612 -0.8622  0.5156
   53MOL     C417788   6.512   2.088   5.795  0.3577  0.5374  0.3348
   53MOL     C517789   6.547   2.228   5.743 -0.5534  0.9849  0.7673
   53MOL     C617790   6.423   2.311   5.731  0.0551  0.0708 -0.3658
   53MOL     C717791   6.317   2.206   5.726 -0.0530 -0.4541 -0.5495
   53MOL     O817792   6.198   2.229   5.709 -0.0962 -0.4784  0.0165
   53MOL     H917793   6.170   2.083   5.966  0.1629  1.9246 -1.9640
   53MOL    H1017794   6.162   1.910   5.991  0.6417 -0.1156  0.5281
   53MOL    H1117795   6.186   1.987   5.748  0.6408 -1.3186 -0.1353
   53MOL    H1217796   6.538   2.082   5.900  0.1185 -1.0769  0.3041
   53MOL    H1317797   6.569   2.011   5.745  0.0111  0.1150  0.5893
   53MOL    H1417798   6.600   2.279   5.824 -3.0113  1.0225  2.4160
   53MOL    H1517799   6.600   2.244   5.649  1.2700 -0.2582  1.5552
   53MOL    H1617800   6.398   2.382   5.810 -0.2984 -0.7713  0.2873
   53MOL    H1717801   6.415   2.366   5.637  0.3573 -1.1279 -1.0955
   53MOL    H1817802   6.318   1.999   6.021 -2.2091 -1.9639  2.5026
   53MOL    C1917803   6.336   1.828   5.785  0.2113  0.3509 -0.3468
   53MOL    C2017804   6.259   1.727   5.699  0.9710 -0.0703 -0.6775
   53MOL    N2117805   6.355   1.616   5.664  0.1068  0.0631 -0.6807
   53MOL    C2217806   6.441   1.639   5.547  0.1856 -0.1726 -0.2517
   53MOL    C2317807   6.536   1.522   5.538 -0.6523  0.6290  0.0023
   53MOL    C2417808   6.498   1.429   5.654  0.1541  0.3730 -0.1377
   53MOL    C2517809   6.379   1.495   5.716 -0.3532 -0.7632 -0.2456
   53MOL    O2617810   6.315   1.439   5.806  0.4979  0.1919  0.4927
   53MOL    H2717811   6.361   1.785   5.882 -0.9335  0.1717 -0.1185
   53MOL    H2817812   6.430   1.838   5.732  0.0593  0.6893 -0.5564
   53MOL    H2917813   6.218   1.777   5.611  0.2142  0.3540 -0.0946
   53MOL    H3017814   6.369   1.647   5.466 -1.3234 -1.4102  0.9201
   53MOL    H3117815   6.492   1.735   5.549 -0.0407 -0.0157 -1.4998
   53MOL    H3217816   6.531   1.479   5.437 -1.5037  0.7971 -0.0297
   53MOL    H3317817   6.645   1.528   5.545 -0.5869 -0.8364  0.4704
   53MOL    H3417818   6.487   1.329   5.612 -2.6025  0.8649 -0.6675
   53MOL    H3517819   6.586   1.433   5.718  0.3966 -0.7584 -0.4003
   53MOL    C3617820   6.133   1.681   5.778  0.2296 -0.1319  0.1732
   53MOL    C3717821   6.021   1.613   5.697 -0.6734  0.1985 -0.2387
   53MOL    N3817822   5.952   1.520   5.791  0.2866  0.6643  0.2993
   53MOL    C3917823   5.967   1.373   5.768  0.0125 -0.0721 -0.8738
   53MOL    C4017824   5.911   1.310   5.901 -0.2097  0.2844  0.1959
   53MOL    C4117825   5.855   1.430   5.985 -0.1332  0.7558 -0.1917
   53MOL    C4217826   5.891   1.550   5.909 -0.1279  0.1417 -0.4473
   53MOL    O4317827   5.870   1.658   5.957  0.1376 -0.3562 -0.1876
   53MOL    H4417828   6.089   1.773   5.817  0.8218  0.3145 -0.1815
   53MOL    H4517829   6.161   1.632   5.871 -0.4426 -1.0369 -0.1042
   53MOL    H4617830   6.069   1.560   5.615  0.7037  1.4739 -0.2609
   53MOL    H4717831   5.921   1.335   5.677  0.2897  0.3695 -1.2026
   53MOL    H4817832   6.072   1.345   5.753  0.3993  0.1216  1.3603
   53MOL    H4917833   5.844   1.231   5.866  0.9772 -1.6367  2.1835
   53MOL    H5017834   5.992   1.258   5.951 -1.9035 -1.8575  0.7999
   53MOL    H5117835   5.748   1.414   5.988  0.1859 -2.3821 -2.4197
   53MOL    H5217836   5.899   1.428   6.085  0.5292  0.1508 -0.4821
   53MOL    C5317837   5.924   1.711   5.640  0.1307  0.4375  0.1641
   53MOL    C5417838   5.835   1.667   5.522 -0.5444  0.4597 -0.4601
   53MOL    N5517839   5.747   1.553   5.549  0.4017  0.1540  0.0125
   53MOL    C5617840   5.745   1.455   5.444  0.2155  0.6166 -0.0622
   53MOL    C5717841   5.608   1.388   5.448 -0.2942 -0.2644  0.4518
   53MOL    C5817842   5.549   1.432   5.585  0.0341  0.1740 -0.4163
   53MOL    C5917843   5.646   1.542   5.632  1.1330 -0.5944  0.1514
   53MOL    O6017844   5.615   1.619   5.726  0.4011 -0.2389  0.0451
   53MOL    H6117845   5.977   1.805   5.626 -0.4249  1.1080  2.2771
   53MOL    H6217846   5.859   1.755   5.716  0.5212  0.6951  0.3498
   53MOL    H6317847   5.908   1.637   5.447  0.2301  0.9619  0.0716
   53MOL    H6417848   5.777   1.494   5.348 -1.5182  4.0858  0.6678
   53MOL    H6517849   5.822   1.385   5.478  2.0759  2.4110 -0.5338
   53MOL    H6617850   5.544   1.419   5.366  1.2479 -0.2232 -0.7654
   53MOL    H6717851   5.602   1.280   5.435 -0.6787 -0.0603 -1.1306
   53MOL    H6817852   5.444   1.461   5.590 -1.3335 -4.3867  0.5112
   53MOL    H6917853   5.572   1.362   5.666  0.3906 -0.0998 -0.7524
   53MOL    C7017854   5.739   1.783   5.475 -0.2167  0.0551 -0.5065
   53MOL    C7117855   5.798   1.907   5.409  0.6379  0.0040  0.2232
   53MOL    N7217856   5.903   1.868   5.316 -0.1590 -0.0839 -0.3288
   53MOL    C7317857   6.038   1.933   5.327 -0.0753  0.0655 -0.2940
   53MOL    C7417858   6.119   1.856   5.219 -0.5548 -1.1044 -0.4509
   53MOL    C7517859   6.016   1.790   5.124 -0.0341 -0.2606 -0.9237
   53MOL    C7617860   5.890   1.789   5.206  0.3212 -0.8398 -0.2449
   53MOL    O7717861   5.797   1.721   5.175 -0.2218 -0.0174 -0.7353
   53MOL    H7817862   5.683   1.807   5.566 -0.4563 -1.0101 -0.3568
   53MOL    H7917863   5.663   1.737   5.411 -1.0963  0.5024  0.1940
   53MOL    H8017864   5.848   1.950   5.495  0.7840  0.4629 -0.0909
   53MOL    H8117865   6.026   2.035   5.293  1.0198  0.3639  0.1729
   53MOL    H8217866   6.090   1.938   5.423 -1.0356  0.6005  0.2005
   53MOL    H8317867   6.178   1.925   5.158 -3.1220  1.5600  0.0086
   53MOL    H8417868   6.181   1.773   5.253  2.4860  0.6003 -1.6211
   53MOL    H8517869   6.004   1.863   5.044  2.6215  1.5134  0.2429
   53MOL    H8617870   6.044   1.691   5.087  0.5410  0.3966 -2.2526
   53MOL    C8717871   5.698   2.016   5.343 -0.5375  0.4113  0.9817
   53MOL    C8817872   5.701   2.153   5.404 -0.7697  0.2522  0.0019
   53MOL    N8917873   5.822   2.226   5.371 -0.2830 -0.1215 -0.3677
   53MOL    C9017874   5.877   2.303   5.485  0.5142  0.4569 -0.2183
   53MOL    C9117875   5.990   2.388   5.428  0.3327  0.2747  0.2991
   53MOL    C9217876   5.984   2.375   5.269  0.8591 -0.3925  0.1334
   53MOL    C9317877   5.881   2.260   5.253  0.6246  0.0940 -0.5803
   53MOL    O9417878   5.841   2.222   5.140 -0.2833 -0.4367 -0.0761
   53MOL    H9517879   5.598   1.974   5.346 -0.2383 -0.3935  0.1332
   53MOL    H9617880   5.718   2.020   5.236  1.2145 -0.3841  1.2511
   53MOL    H9717881   5.702   2.122   5.508 -0.3649  2.1196  0.5667
   53MOL    H9817882   5.804   2.362   5.539 -1.1082 -0.6585 -1.1463
   53MOL    H9917883   5.933   2.257   5.566  3.5683  1.7944 -1.4962
   53MOL   H10017884   5.974   2.491   5.460 -2.3638  0.6884 -2.1050
   53MOL   H10117885   6.087   2.350   5.461  0.3332  0.5416  0.6040
   53MOL   H10217886   5.947   2.468   5.227  0.0590 -1.4538 -1.5824
   53MOL   H10317887   6.081   2.363   5.220  1.8218 -0.3920  2.0093
   53MOL   C10417888   5.579   2.242   5.362 -0.0335  0.6039  0.1785
   53MOL   C10517889   5.437   2.197   5.404  0.8631 -0.0576 -0.3935
   53MOL   N10617890   5.431   2.153   5.544 -0.8270 -0.1739  0.4487
   53MOL   C10717891   5.406   2.014   5.567 -0.0969 -0.6847 -0.2647
   53MOL   C10817892   5.426   1.992   5.721 -0.8622  0.7241 -0.4765
   53MOL   C10917893   5.461   2.125   5.785  0.0014 -0.0685 -0.4131
   53MOL   C11017894   5.462   2.219   5.656 -0.5134  0.1691  0.6491
   53MOL   O11117895   5.501   2.334   5.662  0.2504 -0.7295  0.3874
   53MOL   H11217896   5.567   2.246   5.253  0.3597  1.2442  0.1607
   53MOL   H11317897   5.606   2.344   5.387  1.4846  0.2424  0.0448
   53MOL   H11417898   5.416   2.117   5.333 -0.1042  2.1318 -2.6607
   53MOL   H11517899   5.302   1.999   5.541 -0.3192 -0.4256  0.4649
   53MOL   H11617900   5.473   1.946   5.514 -0.0271  0.1079 -1.2007
   53MOL   H11717901   5.338   1.949   5.767 -0.1918  0.6686  0.7635
   53MOL   H11817902   5.498   1.911   5.735 -2.7540 -0.9166 -0.0042
   53MOL   H11917903   5.550   2.121   5.848 -1.4640 -0.2029  1.6968
   53MOL   H12017904   5.372   2.164   5.835  1.4096  0.3417  1.8497
   53MOL   C12117905   5.330   2.312   5.382  0.3935  0.5873  0.5226
   53MOL   C12217906   5.338   2.394   5.247  0.0819  0.1963  0.6377
   53MOL   N12317907   5.290   2.321   5.130 -0.1006  0.2581  0.6552
   53MOL   C12417908   5.368   2.310   5.006  0.2448  0.9570  0.1142
   53MOL   C12517909   5.282   2.234   4.905 -0.0586  0.4358 -0.0231
   53MOL   C12617910   5.150   2.194   4.977  0.7070  0.3856 -0.5506
   53MOL   C12717911   5.170   2.258   5.114  0.4118  1.0102  0.0458
   53MOL   O12817912   5.084   2.267   5.201  0.1792  0.3270 -0.4318
   53MOL   H12917913   5.336   2.387   5.462 -0.1597  0.2910  0.8439
   53MOL   H13017914   5.237   2.265   5.415  1.9134 -0.2671  3.8923
   53MOL   H13117915   5.441   2.428   5.234 -0.2952  1.5409  1.0428
   53MOL   H13217916   5.468   2.270   5.017 -0.5306 -1.1380 -0.3145
   53MOL   H13317917   5.374   2.411   4.964  0.1669  1.3407  0.9969
   53MOL   H13417918   5.268   2.293   4.814 -0.0152 -0.0565 -0.3492
   53MOL   H13517919   5.337   2.145   4.876 -1.8946 -0.6837 -0.1417
   53MOL   H13617920   5.066   2.249   4.934  0.7267 -0.4704 -1.6809
   53MOL   H13717921   5.118   2.090   4.983  0.7395  0.4115  0.1910
   53MOL   C13817922   5.247   2.518   5.274  0.3166 -0.0106  0.4639
   53MOL   C13917923   5.306   2.625   5.373 -1.0351  0.2444 -0.2726
   53MOL   N14017924   5.452   2.649   5.343 -0.0111 -0.4609  0.4905
   53MOL   C14117925   5.557   2.640   5.447 -0.9640 -1.0096  0.0829
   53MOL   C14217926   5.693   2.646   5.375 -0.4714 -0.2885 -0.3781
   53MOL   C14317927   5.655   2.673   5.234  0.6902  0.0946  0.3493
   53MOL   C14417928   5.505   2.678   5.224  0.9053 -0.5641 -0.2254
   53MOL   O14517929   5.448   2.713   5.130 -0.1947  0.3096 -0.0792
   53MOL   H14617930   5.152   2.477   5.309  1.3167 -1.5754  1.4516
   53MOL   H14717931   5.219   2.569   5.182  0.6962 -0.8996 -0.1514
   53MOL   H14817932   5.300   2.595   5.477 -1.0587  0.3714 -0.2385
   53MOL   H14917933   5.542   2.709   5.531 -4.3008  0.2839 -1.4690
   53MOL   H15017934   5.555   2.541   5.492 -1.4256 -0.4211  1.3976
   53MOL   H15117935   5.752   2.725   5.422 -0.3033 -0.6089 -0.0402
   53MOL   H15217936   5.745   2.551   5.389 -0.3172 -0.3379 -1.2600
   53MOL   H15317937   5.702   2.607   5.161  0.5999 -0.1884  0.5483
   53MOL   H15417938   5.693   2.774   5.217  1.5783 -0.2642  0.1713
   53MOL   C15517939   5.227   2.759   5.377  0.4995 -0.5688 -0.3547
   53MOL   C15617940   5.078   2.741   5.431  0.4621 -0.1661  0.7283
   53MOL   N15717941   5.090   2.757   5.574 -0.0437  0.0493  0.3319
   53MOL   C15817942   5.008   2.662   5.651 -0.0423  0.1899  0.0845
   53MOL   C15917943   5.024   2.704   5.798  0.1890 -0.3329  0.0126
   53MOL   C16017944   5.085   2.847   5.801  0.3830  0.2408  0.0077
   53MOL   C16117945   5.117   2.864   5.654 -0.4302  0.0577  0.2011
   53MOL   O16217946   5.169   2.967   5.616 -0.2532  0.4992  0.3645
   53MOL   H16317947   5.229   2.811   5.281  2.8195  1.7947  0.8735
   53MOL   H16417948   5.279   2.833   5.438  0.0699 -0.1218 -0.5333
   53MOL   H16517949   5.049   2.639   5.404 -0.9415  0.1421  0.9982
   53MOL   H16617950   4.903   2.662   5.620  0.6831  0.0854 -2.4773
   53MOL   H16717951   5.043   2.561   5.632  1.3365  0.8910 -1.1791
   53MOL   H16817952   4.924   2.702   5.841 -0.2899  1.8597 -0.8918
   53MOL   H16917953   5.078   2.629   5.856  2.1873  1.6389  0.7870
   53MOL   H17017954   5.005   2.915   5.829  0.2809 -0.0832  0.5230
   53MOL   H17117955   5.170   2.856   5.869  1.1917  1.8213 -1.1969
   53MOL   C17217956   4.975   2.830   5.357 -0.5533  0.1527 -0.7334
   53MOL   C17317957   4.923   2.762   5.226  0.2440 -0.6176  0.9793
   53MOL   N17417958   4.825   2.660   5.253 -0.0344 -0.0381 -0.2433
   53MOL   C17517959   4.848   2.519   5.237 -0.6938 -0.3861 -0.3153
   53MOL   C17617960   4.710   2.453   5.246  0.0833  0.2091 -0.2305
   53MOL   C17717961   4.625   2.550   5.330  0.2823  0.4285 -1.0108
   53MOL   C17817962   4.706   2.682   5.310  0.7614  0.5646 -0.2540
   53MOL   O17917963   4.658   2.792   5.348  0.1327  0.0472  0.0100
   53MOL   H18017964   5.016   2.925   5.325  0.7219  0.0289  0.4832
   53MOL   H18117965   4.897   2.869   5.423 -0.6763 -1.0770 -0.1423
   53MOL   H18217966   5.021   2.720   5.200  0.6298 -0.0534  1.4969
   53MOL   H18317967   4.899   2.487   5.146  0.1141 -1.8512  0.6344
   53MOL   H18417968   4.911   2.476   5.314 -0.9402 -2.1001 -1.0286
   53MOL   H18517969   4.708   2.350   5.282  1.3625  0.4815  0.6494
   53MOL   H18617970   4.677   2.443   5.142 -0.2252 -1.1321 -0.0143
   53MOL   H18717971   4.525   2.576   5.297 -0.0495 -1.6476 -1.7154
   53MOL   H18817972   4.611   2.526   5.435  1.2663 -0.8396 -1.1502
   53MOL   C18917973   4.879   2.868   5.122  0.2045  0.0525 -0.0577
   53MOL   C19017974   4.994   2.901   5.020 -0.0950 -0.5940  0.5116
   53MOL   N19117975   5.039   2.785   4.945  0.2122  0.3912  0.6277
   53MOL   C19217976   5.179   2.749   4.928 -0.1099 -0.1266 -0.5361
   53MOL   C19317977   5.177   2.640   4.827  0.2927 -0.2325 -0.7019
   53MOL   C19417978   5.047   2.569   4.863 -0.1244 -0.8336  0.1254
   53MOL   C19517979   4.960   2.689   4.894  0.4033 -0.7474  0.1713
   53MOL   O19617980   4.838   2.694   4.870  0.4377 -0.1144 -0.2158
   53MOL   H19717981   4.874   2.962   5.178 -1.2008 -0.6334  0.9991
   53MOL   H19817982   4.778   2.857   5.082  1.1251 -1.6832 -1.9725
   53MOL   H19917983   5.079   2.937   5.077  1.4186 -2.4972 -0.4878
   53MOL   H20017984   5.231   2.838   4.894 -2.3318  1.4124 -0.0780
   53MOL   H20117985   5.222   2.725   5.025 -0.8143  0.2356 -0.1263
   53MOL   H20217986   5.173   2.670   4.723 -0.4026 -2.0087 -1.1960
   53MOL   H20317987   5.272   2.587   4.840  0.5602  0.5415  0.6063
   53MOL   H20417988   5.004   2.506   4.786 -2.3221 -2.7960  2.8768
   53MOL   H20517989   5.061   2.517   4.958  0.0901 -2.7845 -0.9650
   53MOL   C20617990   4.952   3.013   4.918  0.2341 -0.6376  0.0400
   53MOL   C20717991   4.978   3.157   4.971  0.4890  0.1620  0.6621
   53MOL   N20817992   5.123   3.178   4.979 -0.1493 -0.1999  0.0744
   53MOL   C20917993   5.187   3.194   5.109  1.0630  0.2020 -0.0888
   53MOL   C21017994   5.343   3.189   5.083  0.2075 -0.2716 -0.1024
   53MOL   C21117995   5.358   3.169   4.931  0.3385 -0.0325 -0.3569
   53MOL   C21217996   5.217   3.168   4.881 -0.0547  0.3969  0.4631
   53MOL   O21317997   5.194   3.149   4.762 -0.1767  0.3618  0.3249
   53MOL   H21417998   4.850   2.992   4.886 -0.1319  0.9513  0.1366
   53MOL   H21517999   5.011   2.999   4.827 -1.8502  0.3831 -1.5052
   53MOL   H21618000   4.929   3.172   5.067  0.2328  1.5923  0.3116
   53MOL   H21718001   5.164   3.290   5.155 -1.4997 -0.1621 -0.5515
   53MOL   H21818002   5.151   3.115   5.174  1.9741  0.2071  0.4373
   53MOL   H21918003   5.389   3.283   5.114 -1.9832  1.0113 -0.6015
   53MOL   H22018004   5.384   3.105   5.140  3.7831  1.2589 -0.3008
   53MOL   H22118005   5.425   3.242   4.886  0.5323 -0.8282 -1.3669
   53MOL   H22218006   5.394   3.067   4.916  2.0942  0.6202 -0.6742
   53MOL   C22318007   4.910   3.257   4.867  0.5900 -0.3275 -0.1831
   53MOL   C22418008   4.908   3.411   4.892  0.0424 -0.3517 -0.0457
   53MOL   N22518009   5.017   3.477   4.816 -0.1071  0.4818  1.1609
   53MOL   C22618010   5.114   3.547   4.897  0.8398  0.1975  0.7167
   53MOL   C22718011   5.239   3.544   4.800 -0.0325 -0.1247  0.1249
   53MOL   C22818012   5.179   3.535   4.658  0.3292 -0.1838  0.2111
   53MOL   C22918013   5.041   3.483   4.682  0.6118  0.3454 -0.0306
   53MOL   O23018014   4.960   3.448   4.591  0.5387  0.0767  0.0746
   53MOL   H23118015   4.805   3.229   4.875  0.4299 -0.4658 -2.4774
   53MOL   H23218016   4.937   3.229   4.765  0.3351 -0.1450 -0.3015
   53MOL   H23318017   4.929   3.420   4.999  1.0290  1.6885 -0.3730
   53MOL   H23418018   5.091   3.653   4.914 -1.7723  0.2126 -2.4136
   53MOL   H23518019   5.130   3.489   4.987 -0.1135 -2.4483 -0.7685
   53MOL   H23618020   5.308   3.626   4.823 -1.0230  1.3445 -1.9901
   53MOL   H23718021   5.308   3.461   4.809 -1.3349 -0.9345  3.2204
   53MOL   H23818022   5.154   3.632   4.615  1.2064  0.1116  0.3527
   53MOL   H23918023   5.234   3.465   4.595 -1.7463 -1.6539 -0.0071
   53MOL   C24018024   4.775   3.480   4.865  0.1905  0.1871  0.0750
   53MOL   C24118025   4.732   3.607   4.942  0.1912  0.8224 -0.1968
   53MOL   N24218026   4.618   3.669   4.879 -0.4784  0.4705  0.1876
   53MOL   C24318027   4.628   3.802   4.826  0.1869  0.0535  0.0170
   53MOL   C24418028   4.494   3.829   4.746 -0.4497  0.2065 -0.4017
   53MOL   C24518029   4.402   3.722   4.790  0.7394  0.7008 -0.1247
   53MOL   C24618030   4.488   3.623   4.863 -0.2349  0.0546 -0.4730
   53MOL   O24718031   4.435   3.520   4.907 -0.2399 -0.4137 -0.6900
   53MOL   H24818032   4.698   3.403   4.863  2.2219 -1.8972 -1.4629
   53MOL   H24918033   4.776   3.510   4.760  2.6207  0.9656  0.2932
   53MOL   H25018034   4.809   3.684   4.953  1.1383 -0.3808  1.7845
   53MOL   H25118035   4.630   3.876   4.906 -0.5292  0.2258 -0.1204
   53MOL   H25218036   4.722   3.824   4.775  0.4902 -2.5706 -0.6292
   53MOL   H25318037   4.447   3.922   4.776  1.3351  1.3646 -1.1074
   53MOL   H25418038   4.496   3.820   4.637  0.1108  0.5566 -0.4220
   53MOL   H25518039   4.329   3.758   4.862  1.5596 -1.8405  2.0691
   53MOL   H25618040   4.338   3.674   4.717 -1.5744  3.6676 -0.1549
   53MOL   C25718041   4.691   3.563   5.090  0.1259 -0.3440  0.0859
   53MOL   C25818042   4.620   3.675   5.172  0.4033  0.6910 -0.2056
   53MOL   N25918043   4.548   3.620   5.287 -0.2821  0.3983  0.1052
   53MOL   C26018044   4.404   3.634   5.295  0.8451  1.3421 -0.4320
   53MOL   C26118045   4.381   3.598   5.439 -0.0822 -0.3774  0.5864
   53MOL   C26218046   4.520   3.542   5.498  0.7256  0.5380  0.2180
   53MOL   C26318047   4.614   3.563   5.385  0.4682  0.3156 -1.1374
   53MOL   O26418048   4.732   3.538   5.397 -0.5387 -0.4920  0.0364
   53MOL   H26518049   4.783   3.542   5.144  1.5287  0.8121 -1.7744
   53MOL   H26618050   4.638   3.468   5.089  1.0450 -0.8669  0.8018
   53MOL   H26718051   4.534   3.714   5.117  0.5132  0.7570 -0.3305
   53MOL   H26818052   4.374   3.739   5.286 -1.2901  0.9790  1.8149
   53MOL   H26918053   4.346   3.568   5.230  0.8088  0.2761  0.6601
   53MOL   H27018054   4.346   3.680   5.502 -1.1760  1.0504 -1.8189
   53MOL   H27118055   4.305   3.520   5.435  0.6046 -0.9995 -0.6655
   53MOL   H27218056   4.549   3.592   5.591  1.4452  1.2311 -0.3783
   53MOL   H27318057   4.521   3.434   5.515  1.7153  0.5643  0.3481
   53MOL   C27418058   4.715   3.790   5.211  1.0037 -0.1351 -0.0353
   53MOL   C27518059   4.655   3.899   5.302 -0.5865  0.1263 -0.0683
   53MOL   N27618060   4.761   3.984   5.360 -0.4565  0.5822 -0.6622
   53MOL   C27718061   4.806   3.964   5.493 -0.7665 -0.6073  0.8447
   53MOL   C27818062   4.927   4.054   5.515 -0.0631 -0.3456 -0.3413
   53MOL   C27918063   4.951   4.131   5.380  0.4341  0.1608 -0.0496
   53MOL   C28018064   4.840   4.073   5.294  0.0578 -1.0616  0.2182
   53MOL   O28118065   4.827   4.105   5.176 -0.4679  0.5463 -0.1845
   53MOL   H28218066   4.759   3.834   5.121 -2.1339 -0.0570 -1.6005
   53MOL   H28318067   4.799   3.761   5.274  0.5855 -0.0321  0.5748
   53MOL   H28418068   4.614   3.854   5.392 -0.9906 -1.2867 -0.9333
   53MOL   H28518069   4.729   3.978   5.569 -1.4101 -0.8843  0.2534
   53MOL   H28618070   4.839   3.861   5.507 -0.1822 -0.5032  0.2886
   53MOL   H28718071   4.924   4.121   5.601 -1.8601  0.2782 -0.8929
   53MOL   H28818072   5.013   3.988   5.533  0.6060  0.1859 -1.5607
   53MOL   H28918073   4.920   4.235   5.389 -2.3802 -0.5852 -0.7043
   53MOL   H29018074   5.052   4.138   5.340  1.5602 -1.2722  2.3894
   53MOL   C29118075   4.539   3.986   5.233  0.7861  0.1701  0.2544
   53MOL   C29218076   4.470   4.102   5.313  0.5835 -0.4573 -0.8794
   53MOL   N29318077   4.366   4.170   5.231  0.1046 -0.7354  0.2677
   53MOL   C29418078   4.348   4.313   5.246  0.0309  0.4028 -0.3403
   53MOL   C29518079   4.201   4.333   5.241 -0.1578 -0.1819 -0.0857
   53MOL   C29618080   4.147   4.216   5.162  0.2564  0.2049  0.0954
   53MOL   C29718081   4.261   4.116   5.174 -0.6013 -0.2294  0.6281
   53MOL   O29818082   4.244   3.999   5.145  0.6570 -0.2604  0.0668
   53MOL   H29918083   4.470   3.907   5.203 -0.5028  1.4040 -0.0904
   53MOL   H30018084   4.572   4.038   5.143 -1.0571  1.4939  0.3306
   53MOL   H30118085   4.547   4.176   5.336  0.3920 -0.9014  1.2772
   53MOL   H30218086   4.398   4.338   5.340 -1.8476  0.7901  0.5726
   53MOL   H30318087   4.415   4.364   5.177  1.6534  1.8569  2.2414
   53MOL   H30418088   4.163   4.338   5.342  1.2775  1.4782  0.4020
   53MOL   H30518089   4.173   4.434   5.211 -1.7349 -0.4421  0.4681
   53MOL   H30618090   4.062   4.173   5.215  0.1636 -0.8333 -0.8569
   53MOL   H30718091   4.130   4.252   5.061  0.7283  2.8321  0.9114
   53MOL   C30818092   4.413   4.042   5.448  0.1572 -0.4389 -0.0455
   53MOL   C30918093   4.347   4.144   5.538 -0.1050  0.1193  0.3472
   53MOL   N31018094   4.231   4.073   5.601  0.3897 -0.3097 -0.0294
   53MOL   C31118095   4.098   4.131   5.605  0.2920  0.2006  0.3790
   53MOL   C31218096   4.025   4.056   5.715 -0.2084  0.4433  0.0883
   53MOL   C31318097   4.116   3.942   5.755  0.5271  0.5811  0.3741
   53MOL   C31418098   4.244   3.966   5.684 -1.1150  0.3949  0.2805
   53MOL   O31518099   4.343   3.894   5.691  0.3069  0.5078  0.3785
   53MOL   H31618100   4.491   3.981   5.494 -0.1845 -1.4089 -0.7536
   53MOL   H31718101   4.338   3.967   5.423  1.8658 -1.9769 -0.7027
   53MOL   H31818102   4.298   4.225   5.485  1.4916  1.9533  1.5873
   53MOL   H31918103   4.111   4.235   5.634 -1.0822  1.0418 -1.9501
   53MOL   H32018104   4.060   4.123   5.504  1.5266 -1.6361  0.0328
   53MOL   H32118105   4.019   4.119   5.803  0.5281 -0.0121  0.4661
   53MOL   H32218106   3.925   4.024   5.684  0.9141 -3.0323 -0.1969
   53MOL   H32318107   4.127   3.921   5.862  0.2522 -0.1448  0.2620
   53MOL   H32418108   4.092   3.844   5.714  2.1238 -0.1077  1.0061
   53MOL   C32518109   4.442   4.214   5.638  0.3073 -0.0850  0.1555
   53MOL   C32618110   4.562   4.285   5.569 -0.1230 -0.9920 -0.1354
   53MOL   N32718111   4.649   4.368   5.657  0.0286 -0.4871  0.4709
   53MOL   C32818112   4.627   4.382   5.795 -0.0228 -0.1147  1.1598
   53MOL   C32918113   4.761   4.441   5.854  0.0290 -0.1491 -0.2778
   53MOL   C33018114   4.840   4.474   5.741 -0.3898 -0.1466 -0.2089
   53MOL   C33118115   4.765   4.420   5.621  0.1069 -0.5579  0.0194
   53MOL   O33218116   4.801   4.434   5.502 -0.2536  0.2052 -0.2262
   53MOL   H33318117   4.477   4.135   5.705 -1.5505 -1.9239 -0.9717
   53MOL   H33418118   4.380   4.273   5.706 -2.1140  0.5664 -2.5141
   53MOL   H33518119   4.534   4.365   5.501  0.2667  1.7303  2.7460
   53MOL   H33618120   4.538   4.444   5.797 -0.1681 -0.1992 -0.9602
   53MOL   H33718121   4.608   4.290   5.850  1.7827 -0.0161  1.9895
   53MOL   H33818122   4.726   4.525   5.914 -1.7684 -0.5368 -0.7505
   53MOL   H33918123   4.807   4.370   5.923  1.0759  0.3159 -0.4778
   53MOL   H34018124   4.838   4.581   5.722 -0.5961  0.0132  0.7233
   53MOL   H34118125   4.944   4.443   5.751  0.4362  2.2147 -1.2373
   53MOL   H34218126   4.629   4.216   5.518 -0.9768 -0.6184 -1.7778
   54MOL     C118127   1.585   3.035   3.761 -0.5794 -0.7880 -0.4159
   54MOL     C218128   1.477   2.926   3.739  0.5783 -0.1496  0.3150
   54MOL     N318129   1.488   2.873   3.601  0.5123 -0.5302  0.0957
   54MOL     C418130   1.368   2.849   3.525 -0.4323 -0.8369 -0.1195
   54MOL     C518131   1.405   2.779   3.400 -0.3622 -0.5597  0.0559
   54MOL     C618132   1.559   2.768   3.407 -0.4519 -0.2343  0.4100
   54MOL     C718133   1.592   2.835   3.535  0.3862  0.1768  0.4378
   54MOL     O818134   1.708   2.850   3.573 -0.0440  0.1017  0.4486
   54MOL     H918135   1.590   3.103   3.676  1.4299 -1.2858 -0.7221
   54MOL    H1018136   1.560   3.092   3.850  1.5278 -0.0852 -0.2543
   54MOL    H1118137   1.376   2.969   3.737  0.6264 -0.0084  1.0406
   54MOL    H1218138   1.287   2.798   3.577 -0.7939 -0.1579 -0.0223
   54MOL    H1318139   1.332   2.949   3.502  1.0348 -0.1638  0.4410
   54MOL    H1418140   1.360   2.681   3.385 -1.4591  0.0647 -0.8239
   54MOL    H1518141   1.365   2.841   3.320  0.4528  0.4105  0.3904
   54MOL    H1618142   1.591   2.664   3.422 -3.8340 -1.3943  0.0078
   54MOL    H1718143   1.611   2.799   3.317 -1.8104 -0.6559 -0.5302
   54MOL    H1818144   1.682   2.989   3.783 -0.8116 -0.7296  0.7489
   54MOL    C1918145   1.479   2.805   3.839 -0.2142  0.2925 -0.6593
   54MOL    C2018146   1.505   2.833   3.987 -0.0105  0.2614  0.2623
   54MOL    N2118147   1.436   2.944   4.045 -0.4315  0.1694 -0.4014
   54MOL    C2218148   1.498   3.028   4.149  0.1670  0.5902  0.4357
   54MOL    C2318149   1.389   3.118   4.206 -0.1358  0.5776 -0.2262
   54MOL    C2418150   1.260   3.086   4.125  0.3774 -0.2025 -0.4464
   54MOL    C2518151   1.303   2.962   4.041  0.1661  0.4288  0.7297
   54MOL    O2618152   1.224   2.892   3.973 -0.7331  0.3857  0.2902
   54MOL    H2718153   1.564   2.740   3.819 -1.8473 -2.3721  0.8263
   54MOL    H2818154   1.388   2.745   3.831 -0.0852 -0.6470  3.5307
   54MOL    H2918155   1.608   2.868   3.993  0.0810 -0.0176  0.3235
   54MOL    H3018156   1.542   2.958   4.220 -0.5048  0.1404  0.4181
   54MOL    H3118157   1.580   3.088   4.110 -0.1027 -0.3751 -1.6609
   54MOL    H3218158   1.392   3.114   4.315  0.2296  2.3081 -0.1457
   54MOL    H3318159   1.418   3.221   4.183  2.6182 -0.0556  0.2478
   54MOL    H3418160   1.196   3.037   4.199 -0.0387  0.5383 -0.3163
   54MOL    H3518161   1.209   3.160   4.064 -2.1028 -1.0823  0.5034
   54MOL    C3618162   1.481   2.705   4.079 -0.2231  0.4096 -0.3240
   54MOL    C3718163   1.595   2.597   4.042 -0.0631  0.4041  0.0435
   54MOL    N3818164   1.730   2.653   4.026  0.0657  0.4702  0.4255
   54MOL    C3918165   1.802   2.624   3.904  0.6489 -0.5787 -0.5484
   54MOL    C4018166   1.952   2.655   3.938 -0.2066 -0.0156  0.5247
   54MOL    C4118167   1.946   2.732   4.069  0.3546  0.7201  0.0967
   54MOL    C4218168   1.805   2.704   4.121  0.0710 -0.4232 -0.1273
   54MOL    O4318169   1.773   2.737   4.238  0.4270 -0.3819 -0.2686
   54MOL    H4418170   1.382   2.666   4.057 -0.9280  1.9229  0.0915
   54MOL    H4518171   1.495   2.732   4.184 -0.0941  0.8386 -0.4510
   54MOL    H4618172   1.557   2.569   3.943 -0.1687 -0.1555  0.2431
   54MOL    H4718173   1.779   2.524   3.867 -1.7028 -0.2273 -0.0868
   54MOL    H4818174   1.772   2.691   3.824  1.4972  0.7522  0.2381
   54MOL    H4918175   1.997   2.558   3.958  0.3733  0.0597 -0.3828
   54MOL    H5018176   2.013   2.696   3.858 -2.2038 -0.8222 -1.4632
   54MOL    H5118177   2.028   2.688   4.126 -0.2265 -1.5524 -0.7538
   54MOL    H5218178   1.973   2.837   4.060 -1.5778  1.1569 -1.0017
   54MOL    C5318179   1.596   2.483   4.144  0.5020  1.2727 -0.2041
   54MOL    C5418180   1.485   2.381   4.132 -0.7725  0.3302  0.0940
   54MOL    N5518181   1.455   2.348   3.995 -0.1153 -0.1456 -0.3161
   54MOL    C5618182   1.334   2.385   3.935 -0.7519  0.7086 -0.8556
   54MOL    C5718183   1.372   2.400   3.787  0.0805 -0.2579 -0.1204
   54MOL    C5818184   1.494   2.311   3.764 -0.2853 -0.6289 -0.5413
   54MOL    C5918185   1.538   2.292   3.909 -0.1359 -0.4562  0.3162
   54MOL    O6018186   1.647   2.245   3.943  0.1252 -0.4523  0.5940
   54MOL    H6118187   1.588   2.529   4.242 -2.3926 -0.7338  0.5921
   54MOL    H6218188   1.691   2.433   4.127 -1.8203 -2.6543 -2.5359
   54MOL    H6318189   1.402   2.438   4.174 -0.8909 -0.8974  1.5516
   54MOL    H6418190   1.263   2.305   3.950 -0.6010  0.6385 -0.5151
   54MOL    H6518191   1.301   2.479   3.979 -2.0895 -1.0096  1.9834
   54MOL    H6618192   1.287   2.375   3.723  0.7579  2.0563 -2.0218
   54MOL    H6718193   1.405   2.503   3.771  1.7060 -0.2737  2.8949
   54MOL    H6818194   1.456   2.225   3.708 -0.8312 -1.2874  0.7999
   54MOL    H6918195   1.565   2.365   3.702  0.1790 -1.0927 -0.4164
   54MOL    C7018196   1.504   2.250   4.222  0.1582 -0.0706 -0.1273
   54MOL    C7118197   1.406   2.140   4.213 -0.4397 -0.1179 -0.3026
   54MOL    N7218198   1.448   2.030   4.122 -0.4401 -0.0275 -0.0530
   54MOL    C7318199   1.547   1.931   4.162  0.4633 -0.1132  0.1954
   54MOL    C7418200   1.567   1.842   4.037 -0.5170 -0.3463 -0.0220
   54MOL    C7518201   1.472   1.897   3.935  0.0157  0.1583  0.3031
   54MOL    C7618202   1.389   2.002   4.006 -0.2252  0.2063  1.1932
   54MOL    O7718203   1.284   2.052   3.966  0.3735  0.3022 -0.0791
   54MOL    H7818204   1.503   2.296   4.322 -0.8494  1.6790 -0.9165
   54MOL    H7918205   1.605   2.214   4.204  0.6326  1.5681 -0.9069
   54MOL    H8018206   1.317   2.179   4.163  0.0892  1.0040 -0.3837
   54MOL    H8118207   1.636   1.988   4.189  1.1415 -1.0566 -0.0353
   54MOL    H8218208   1.505   1.880   4.249  0.6877 -0.4843  0.0867
   54MOL    H8318209   1.665   1.849   3.990  0.2974 -0.3979  1.6375
   54MOL    H8418210   1.556   1.738   4.067  0.1705 -0.4887 -0.2514
   54MOL    H8518211   1.520   1.945   3.849 -0.6547  1.0107  0.3900
   54MOL    H8618212   1.392   1.830   3.901 -2.3728  3.1537 -0.2592
   54MOL    C8718213   1.353   2.087   4.352  0.2250 -0.1423 -0.8647
   54MOL    C8818214   1.253   2.185   4.414  0.6947 -0.0907  0.5453
   54MOL    N8918215   1.137   2.207   4.326 -0.0654 -0.3388  0.2587
   54MOL    C9018216   1.041   2.102   4.316  1.0154  0.3914  0.4333
   54MOL    C9118217   0.928   2.164   4.219 -0.0742 -0.1396  0.8018
   54MOL    C9218218   0.973   2.308   4.189 -0.1571 -0.1358  0.3244
   54MOL    C9318219   1.097   2.326   4.271 -0.5098 -0.1138 -0.5773
   54MOL    O9418220   1.157   2.432   4.290 -0.2202  0.5257  0.3556
   54MOL    H9518221   1.440   2.067   4.413  0.4423  0.5221 -0.9616
   54MOL    H9618222   1.309   1.987   4.338 -0.6294  0.5011 -3.0182
   54MOL    H9718223   1.306   2.279   4.426  0.4478  0.3891 -1.8632
   54MOL    H9818224   1.078   2.013   4.264 -3.5718 -0.9376 -0.7669
   54MOL    H9918225   0.994   2.073   4.410 -1.5039 -0.6771 -1.1077
   54MOL   H10018226   0.921   2.104   4.129 -0.3831  1.8180 -0.4922
   54MOL   H10118227   0.840   2.165   4.283 -1.4297 -1.4164 -1.0158
   54MOL   H10218228   0.998   2.317   4.084  0.0174 -0.9025  0.3002
   54MOL   H10318229   0.898   2.378   4.226  1.3914  2.6385 -1.6163
   54MOL   C10418230   1.205   2.147   4.560 -0.5556 -0.4574 -0.7309
   54MOL   C10518231   1.089   2.226   4.625 -0.4842  0.1258 -0.2989
   54MOL   N10618232   1.040   2.141   4.741 -0.2528 -0.2116  0.2397
   54MOL   C10718233   0.905   2.085   4.717  0.0149  0.5799 -1.4967
   54MOL   C10818234   0.875   2.006   4.849  0.1188  0.2252  0.8291
   54MOL   C10918235   0.975   2.051   4.948 -0.6427  0.3964 -0.7261
   54MOL   C11018236   1.075   2.127   4.869  1.1072  0.1205 -0.0188
   54MOL   O11118237   1.183   2.170   4.915  0.1793  0.3030 -0.0915
   54MOL   H11218238   1.296   2.158   4.619 -1.6228  0.4685  0.7738
   54MOL   H11318239   1.183   2.040   4.558  2.5956 -1.1307 -1.9616
   54MOL   H11418240   1.007   2.240   4.555 -0.4211  0.4946 -0.3026
   54MOL   H11518241   0.845   2.172   4.693  0.9766  1.2775 -1.4265
   54MOL   H11618242   0.908   2.010   4.637 -1.0382 -3.4332  2.0119
   54MOL   H11718243   0.771   2.005   4.882 -0.5267 -0.4904 -1.1376
   54MOL   H11818244   0.892   1.900   4.833  0.6673  0.1616  1.7972
   54MOL   H11918245   1.024   1.967   4.999  0.3009  1.1135 -0.4397
   54MOL   H12018246   0.927   2.116   5.021  1.7596  0.7698  0.5847
   54MOL   C12118247   1.140   2.362   4.680 -0.1673 -0.0083  1.0040
   54MOL   C12218248   1.019   2.459   4.703 -0.1173  0.7447 -0.6776
   54MOL   N12318249   1.019   2.507   4.840  0.3812  0.3381  0.2794
   54MOL   C12418250   0.896   2.487   4.917 -0.8007  0.4227 -1.2025
   54MOL   C12518251   0.909   2.568   5.036  0.1899  0.4343 -0.1189
   54MOL   C12618252   1.060   2.597   5.046 -0.2977  0.6637  0.2118
   54MOL   C12718253   1.117   2.567   4.909 -0.0463  0.2391 -0.0856
   54MOL   O12818254   1.233   2.587   4.882  0.2838 -0.8485 -0.0770
   54MOL   H12918255   1.207   2.406   4.606  1.2965 -0.6964  1.8959
   54MOL   H13018256   1.204   2.338   4.765 -0.1680  1.8782  1.5623
   54MOL   H13118257   0.925   2.404   4.694 -1.5481  2.8420  0.8497
   54MOL   H13218258   0.891   2.380   4.936  0.1681  1.0142  3.0386
   54MOL   H13318259   0.800   2.505   4.869 -1.0994 -1.1969 -1.2243
   54MOL   H13418260   0.849   2.659   5.034 -1.8215 -0.8560 -0.2199
   54MOL   H13518261   0.869   2.504   5.115 -0.7927 -0.5384 -1.3806
   54MOL   H13618262   1.079   2.700   5.076  1.3035 -0.3146  2.7401
   54MOL   H13718263   1.096   2.522   5.116 -1.6447 -0.3535 -0.1557
   54MOL   C13818264   1.016   2.568   4.589 -0.0451 -0.0040 -0.3059
   54MOL   C13918265   0.884   2.654   4.595 -0.3294  0.1547 -0.7250
   54MOL   N14018266   0.897   2.768   4.503  0.3526 -0.3649  0.7999
   54MOL   C14118267   0.900   2.906   4.553 -0.4361  0.9280  0.6409
   54MOL   C14218268   0.905   2.993   4.423  0.0753  0.3487  0.3010
   54MOL   C14318269   0.901   2.900   4.307 -0.2596  0.3000  0.2333
   54MOL   C14418270   0.900   2.763   4.370 -0.5409  0.7227 -0.5648
   54MOL   O14518271   0.906   2.664   4.300  0.2393 -0.0242 -0.2131
   54MOL   H14618272   1.020   2.519   4.492  0.6633  1.0071 -0.8023
   54MOL   H14718273   1.107   2.626   4.601  0.1363 -0.2785 -0.3632
   54MOL   H14818274   0.865   2.699   4.692  2.2693 -0.7975  0.2816
   54MOL   H14918275   0.816   2.932   4.618  0.1627  2.4244  0.8273
   54MOL   H15018276   0.995   2.920   4.604  0.8470  0.4283 -1.5660
   54MOL   H15118277   0.821   3.062   4.421  0.9685  1.4766  1.3070
   54MOL   H15218278   1.001   3.044   4.425 -0.2623  1.1087 -1.8337
   54MOL   H15318279   0.991   2.911   4.246 -0.7852  2.5991 -0.1980
   54MOL   H15418280   0.809   2.912   4.250 -1.1599 -2.0322  1.1456
   54MOL   C15518281   0.756   2.569   4.554  0.3893  0.0202 -0.9586
   54MOL   C15618282   0.625   2.655   4.532 -0.1433 -1.1275 -0.5289
   54MOL   N15718283   0.544   2.590   4.431 -0.2222 -0.0190  0.3844
   54MOL   C15818284   0.523   2.670   4.307 -0.3138 -0.3664  0.2169
   54MOL   C15918285   0.476   2.572   4.205  0.3773 -0.4526  0.0206
   54MOL   C16018286   0.465   2.440   4.271  0.0357  0.0030 -0.0684
   54MOL   C16118287   0.515   2.461   4.414  0.6999 -0.4786 -0.0425
   54MOL   O16218288   0.523   2.365   4.489  0.3767  0.3064 -0.1438
   54MOL   H16318289   0.749   2.479   4.615  1.4308  0.9076  0.4880
   54MOL   H16418290   0.783   2.533   4.455  1.6728 -0.6156 -0.3967
   54MOL   H16518291   0.650   2.755   4.497 -1.4567 -1.2389 -1.8069
   54MOL   H16618292   0.453   2.750   4.330  0.1832 -0.4548  2.1896
   54MOL   H16718293   0.619   2.716   4.281 -0.9415 -0.0337 -1.5580
   54MOL   H16818294   0.375   2.605   4.181 -0.4137 -2.9622 -0.3517
   54MOL   H16918295   0.537   2.579   4.115  0.6489 -1.6552  0.0916
   54MOL   H17018296   0.367   2.392   4.269  0.4645 -0.9745  1.5501
   54MOL   H17118297   0.541   2.373   4.230 -1.0632  0.6647 -3.2914
   54MOL   C17218298   0.544   2.674   4.669  0.2741  0.1193 -0.7776
   54MOL   C17318299   0.446   2.790   4.684 -0.0090 -0.1544  0.3118
   54MOL   N17418300   0.318   2.768   4.615 -0.3576  0.1598 -0.2143
   54MOL   C17518301   0.263   2.879   4.535 -0.3942 -0.2657  0.0326
   54MOL   C17618302   0.111   2.847   4.523 -0.3635 -1.0468  0.4729
   54MOL   C17718303   0.099   2.701   4.553 -0.3287  0.1064  0.1958
   54MOL   C17818304   0.235   2.662   4.617 -0.0448  0.3754  0.2425
   54MOL   O17918305   0.260   2.553   4.670  0.1986 -0.3612  0.4472
   54MOL   H18018306   0.620   2.684   4.746 -0.5336 -1.8700  0.3006
   54MOL   H18118307   0.495   2.581   4.698 -0.6135  0.8547  0.1276
   54MOL   H18218308   0.498   2.874   4.638  0.9086 -1.6506 -1.4573
   54MOL   H18318309   0.277   2.976   4.581  2.1164 -1.0866  1.0988
   54MOL   H18418310   0.291   2.892   4.431 -0.2190  1.9287  0.3434
   54MOL   H18518311   0.078   2.869   4.421 -0.4919 -2.0148  0.2974
   54MOL   H18618312   0.050   2.906   4.592 -0.4063  1.0938 -1.3383
   54MOL   H18718313   0.017   2.685   4.623 -0.7322 -0.6153 -0.4346
   54MOL   H18818314   0.077   2.634   4.470 -0.5662  0.2430  0.1495
   54MOL   C18918315   0.401   2.802   4.835 -0.0514 -0.4154 -0.1167
   54MOL   C19018316   0.451   2.926   4.913 -0.0397  0.4798 -0.1317
   54MOL   N19118317   0.416   2.896   5.052  0.1242 -0.2866 -0.1081
   54MOL   C19218318   0.310   2.966   5.120 -0.2104  0.4313 -0.9298
   54MOL   C19318319   0.278   2.879   5.247 -0.8171 -0.3633  0.5072
   54MOL   C19418320   0.374   2.754   5.247  0.3771  0.3832  0.7073
   54MOL   C19518321   0.466   2.797   5.133 -0.9553 -0.4631 -0.4033
   54MOL   O19618322   0.587   2.754   5.122  0.1134 -0.2571  0.6143
   54MOL   H19718323   0.438   2.717   4.892 -1.2065 -1.6364 -1.1339
   54MOL   H19818324   0.294   2.802   4.851 -0.2575 -0.8967 -1.4275
   54MOL   H19918325   0.394   3.007   4.867 -1.5579  0.0259  0.8925
   54MOL   H20018326   0.341   3.066   5.150 -0.5579  0.6610 -1.3325
   54MOL   H20118327   0.218   2.967   5.062 -0.6192  2.1849 -0.2670
   54MOL   H20218328   0.279   2.934   5.340 -3.7573  0.5130  0.0739
   54MOL   H20318329   0.175   2.843   5.250 -0.5422 -1.0278  2.1067
   54MOL   H20418330   0.433   2.742   5.337 -0.1605 -1.7238  0.7842
   54MOL   H20518331   0.329   2.657   5.228 -1.2722  1.3828 -0.6206
   54MOL   C20618332   0.604   2.962   4.896 -0.0682 -0.1230 -0.0363
   54MOL   C20718333   0.650   3.087   4.983 -0.1407  0.1342 -0.1616
   54MOL   N20818334   0.792   3.086   4.985 -0.4062 -0.1547  0.2647
   54MOL   C20918335   0.853   3.006   5.093  0.7007 -1.1398  0.3356
   54MOL   C21018336   1.002   2.989   5.051 -0.2498  0.2733  0.2310
   54MOL   C21118337   1.016   3.061   4.919 -0.3575 -0.0864 -0.1729
   54MOL   C21218338   0.880   3.115   4.887 -0.4610 -0.1823  0.0818
   54MOL   O21318339   0.858   3.174   4.783 -0.0216 -0.7895  0.1237
   54MOL   H21418340   0.631   2.980   4.792 -2.2374 -0.8907 -0.7653
   54MOL   H21518341   0.661   2.871   4.914 -1.0751 -0.7145  0.2416
   54MOL   H21618342   0.616   3.063   5.084 -0.3069  0.9001 -0.0255
   54MOL   H21718343   0.852   3.063   5.186 -0.0227 -3.8102  2.0206
   54MOL   H21818344   0.800   2.911   5.107 -0.8486 -0.6081 -1.7017
   54MOL   H21918345   1.078   3.010   5.126  2.2962 -3.6158 -1.1231
   54MOL   H22018346   1.031   2.887   5.028 -0.4910  0.0774  0.7841
   54MOL   H22118347   1.080   3.146   4.942 -3.9226  1.6266  4.1375
   54MOL   H22218348   1.050   2.997   4.837  1.0602  1.9645 -1.2408
   54MOL   C22318349   0.589   3.223   4.943 -0.3806 -0.5471  0.1592
   54MOL   C22418350   0.655   3.355   4.987 -0.1934  0.4855 -0.5897
   54MOL   N22518351   0.593   3.464   4.910  0.1918  0.0417  0.5553
   54MOL   C22618352   0.679   3.546   4.824  0.1813 -0.0898  0.2687
   54MOL   C22718353   0.587   3.633   4.747 -0.0828 -0.0285  0.0107
   54MOL   C22818354   0.445   3.583   4.784 -0.2033 -0.0099  0.5026
   54MOL   C22918355   0.464   3.483   4.885  0.1514 -0.1803  0.8225
   54MOL   O23018356   0.369   3.421   4.931  0.6892  0.1012 -0.6449
   54MOL   H23118357   0.482   3.222   4.965 -0.3615 -3.2187  0.2758
   54MOL   H23218358   0.578   3.216   4.835 -1.0987 -0.9283  0.2494
   54MOL   H23318359   0.760   3.360   4.958  0.2483  1.8994  1.1956
   54MOL   H23418360   0.753   3.605   4.877  1.5392 -0.6671 -0.9483
   54MOL   H23518361   0.735   3.481   4.757 -0.2330 -1.5228  1.2795
   54MOL   H23618362   0.597   3.741   4.762  0.0984  0.0312 -0.5236
   54MOL   H23718363   0.601   3.628   4.639 -0.3765  1.0854 -0.0892
   54MOL   H23818364   0.369   3.656   4.810 -0.1100  0.3197 -0.1467
   54MOL   H23918365   0.392   3.525   4.708 -1.5376  0.4174  1.1065
   54MOL   C24018366   0.638   3.375   5.142  0.0408 -0.4860  0.1603
   54MOL   C24118367   0.733   3.476   5.209 -0.0724  0.6347  0.2068
   54MOL   N24218368   0.720   3.460   5.356  0.2753 -0.1492 -0.4563
   54MOL   C24318369   0.654   3.568   5.429  0.5201  0.2266 -0.0777
   54MOL   C24418370   0.634   3.520   5.572  0.2041  0.0439  0.2597
   54MOL   C24518371   0.677   3.374   5.569  0.1968 -0.2350  0.0185
   54MOL   C24618372   0.725   3.348   5.433 -0.2965 -0.4331 -0.0836
   54MOL   O24718373   0.765   3.244   5.389  0.1844 -0.2920  0.4947
   54MOL   H24818374   0.660   3.277   5.183  0.1276 -0.2406  0.6979
   54MOL   H24918375   0.535   3.388   5.176 -0.2306  1.6323 -1.3214
   54MOL   H25018376   0.693   3.575   5.185 -0.6931  0.2586 -0.3305
   54MOL   H25118377   0.712   3.660   5.426 -1.1582  1.3541  1.3935
   54MOL   H25218378   0.557   3.570   5.379  0.3290  1.2685  0.3302
   54MOL   H25318379   0.681   3.573   5.655  0.0405  0.8561 -0.1634
   54MOL   H25418380   0.530   3.528   5.601  0.0892  1.6298 -0.5522
   54MOL   H25518381   0.751   3.361   5.648  0.1336 -0.3701  0.0573
   54MOL   H25618382   0.589   3.315   5.597 -0.9127  0.5105 -1.7887
   54MOL   C25718383   0.879   3.471   5.162  0.5319 -0.0615  0.0908
   54MOL   C25818384   1.003   3.496   5.251  0.1444  0.1370  0.0677
   54MOL   N25918385   1.116   3.420   5.197  0.5638  0.0832  0.4087
   54MOL   C26018386   1.210   3.358   5.287 -0.1698 -0.1207  0.4100
   54MOL   C26118387   1.312   3.285   5.205  0.2075  1.1075  0.1882
   54MOL   C26218388   1.293   3.334   5.059 -0.0830  0.2495  0.2950
   54MOL   C26318389   1.164   3.408   5.070 -0.2229 -0.0504 -0.4130
   54MOL   O26418390   1.114   3.459   4.968 -0.1183  0.0866 -0.3402
   54MOL   H26518391   0.884   3.523   5.067  1.0486 -1.6158 -0.7562
   54MOL   H26618392   0.891   3.371   5.119 -0.3415  0.3459 -1.1148
   54MOL   H26718393   0.974   3.453   5.346 -0.7522  0.1789 -0.1843
   54MOL   H26818394   1.266   3.432   5.344 -0.3330  0.1740  0.1889
   54MOL   H26918395   1.156   3.298   5.361 -0.6263  0.6385  0.6968
   54MOL   H27018396   1.414   3.287   5.242  0.4184  1.9570 -0.4334
   54MOL   H27118397   1.287   3.178   5.206 -0.4791  1.2380 -1.2996
   54MOL   H27218398   1.366   3.414   5.042  0.0367  0.1132  0.1728
   54MOL   H27318399   1.298   3.256   4.983 -1.4402  1.3392 -0.9382
   54MOL   C27418400   1.032   3.643   5.278 -0.2884  0.1968  0.0332
   54MOL   C27518401   1.075   3.737   5.159  0.7748  0.5225  0.1709
   54MOL   N27618402   0.961   3.770   5.064 -0.2870  0.2870 -0.0073
   54MOL   C27718403   0.989   3.790   4.925 -1.3535  0.1301  0.0817
   54MOL   C27818404   0.891   3.891   4.873 -0.1068  0.1699 -0.8199
   54MOL   C27918405   0.782   3.896   4.976 -0.0513  0.2740  0.1559
   54MOL   C28018406   0.841   3.824   5.095  0.0885  0.0101  0.2268
   54MOL   O28118407   0.785   3.819   5.204 -0.2775 -0.2920 -0.0881
   54MOL   H28218408   1.112   3.644   5.353 -1.3991 -0.1762  1.2558
   54MOL   H28318409   0.946   3.690   5.326  0.4390  2.5090 -0.8654
   54MOL   H28418410   1.146   3.675   5.104  0.1785 -0.1269  0.1223
   54MOL   H28518411   1.088   3.832   4.912 -1.4732 -0.5076 -3.2779
   54MOL   H28618412   0.980   3.697   4.869 -1.0104  0.2079 -0.0972
   54MOL   H28718413   0.924   3.994   4.869 -2.5502  1.1192  1.5090
   54MOL   H28818414   0.843   3.868   4.778  0.0811  0.3082 -0.9468
   54MOL   H28918415   0.750   3.995   5.010 -2.9130 -0.8781  0.9875
   54MOL   H29018416   0.692   3.840   4.953  0.0328  0.4004 -0.4740
   54MOL   C29118417   1.135   3.866   5.214 -0.2156 -0.5555 -0.9960
   54MOL   C29218418   1.275   3.854   5.269  0.1643 -0.3916  0.3405
   54MOL   N29318419   1.368   3.794   5.171 -0.0962  0.0511  0.1150
   54MOL   C29418420   1.450   3.679   5.211  0.1260  0.4961  0.5969
   54MOL   C29518421   1.545   3.653   5.093  0.4930 -0.3415 -0.1862
   54MOL   C29618422   1.513   3.766   4.989  0.3454  0.2047  0.2007
   54MOL   C29718423   1.399   3.843   5.053 -0.1807 -0.7495 -0.0630
   54MOL   O29818424   1.351   3.945   4.997 -0.1862  0.0370 -0.0260
   54MOL   H29918425   1.070   3.902   5.293  0.2412  5.1225 -2.9719
   54MOL   H30018426   1.131   3.941   5.136  0.5127  1.3598  0.7449
   54MOL   H30118427   1.268   3.788   5.355 -3.0132  1.7531  1.8544
   54MOL   H30218428   1.511   3.697   5.300  0.0394 -1.4911  1.0951
   54MOL   H30318429   1.399   3.587   5.239  1.1190 -0.3772 -0.4036
   54MOL   H30418430   1.646   3.659   5.132  1.7663  1.4265 -3.5521
   54MOL   H30518431   1.546   3.551   5.054  2.0428 -0.1402 -0.6749
   54MOL   H30618432   1.594   3.833   4.963  1.1306 -1.1191 -0.8190
   54MOL   H30718433   1.476   3.717   4.898  0.6610  1.6387 -0.7074
   54MOL   C30818434   1.320   3.994   5.320 -0.1377  0.4676 -0.0196
   54MOL   C30918435   1.266   4.033   5.461  0.1141  0.0552 -0.4487
   54MOL   N31018436   1.285   3.923   5.553  0.4940 -0.1056 -0.0940
   54MOL   C31118437   1.179   3.890   5.646 -0.0436  0.1458 -0.8647
   54MOL   C31218438   1.240   3.783   5.742  0.0066  0.5104 -0.0691
   54MOL   C31318439   1.384   3.764   5.703 -0.6457 -0.1554 -0.3023
   54MOL   C31418440   1.399   3.867   5.595 -0.1245  0.3459  0.1089
   54MOL   O31518441   1.510   3.884   5.547 -0.4370 -0.3692  0.5108
   54MOL   H31618442   1.286   4.070   5.250 -1.5661  0.0727  0.2253
   54MOL   H31718443   1.429   4.002   5.330 -0.2364 -0.2958  1.8483
   54MOL   H31818444   1.158   4.042   5.456  0.1575  0.2771 -1.0498
   54MOL   H31918445   1.154   3.977   5.705  2.6846  0.7068 -0.5134
   54MOL   H32018446   1.089   3.853   5.595 -0.0602 -0.1562 -0.6193
   54MOL   H32118447   1.233   3.820   5.845  1.3744 -1.8153  0.9046
   54MOL   H32218448   1.191   3.686   5.739 -0.7913  0.8735  0.7239
   54MOL   H32318449   1.447   3.803   5.783 -0.7448  0.3111 -0.4492
   54MOL   H32418450   1.416   3.671   5.657 -2.9457 -1.9490  1.6275
   54MOL   C32518451   1.314   4.168   5.504  0.5246 -1.0758  0.0513
   54MOL   C32618452   1.278   4.285   5.415 -0.2134 -0.8505  0.3100
   54MOL   N32718453   1.322   4.411   5.483  0.2823 -0.2133  0.2533
   54MOL   C32818454   1.462   4.454   5.484  0.3814 -0.0749 -0.5589
   54MOL   C32918455   1.463   4.581   5.570  0.0241 -0.0092  0.0776
   54MOL   C33018456   1.322   4.602   5.612 -0.3094 -0.5117 -0.3146
   54MOL   C33118457   1.239   4.500   5.541 -0.2936 -0.6647 -0.1685
   54MOL   O33218458   1.117   4.511   5.530 -0.5875  0.6792 -0.6543
   54MOL   H33318459   1.421   4.155   5.519  0.2713 -0.4519  2.7214
   54MOL   H33418460   1.273   4.188   5.603  2.4612  0.4723  0.5612
   54MOL   H33518461   1.171   4.284   5.398 -0.1855  0.0677  0.0127
   54MOL   H33618462   1.523   4.375   5.526 -0.7792  0.4199  2.1170
   54MOL   H33718463   1.490   4.475   5.380 -0.7337  1.6977 -0.5152
   54MOL   H33818464   1.530   4.561   5.654  1.8764  0.6609 -1.1960
   54MOL   H33918465   1.515   4.668   5.530 -0.1358  0.2559  0.4364
   54MOL   H34018466   1.311   4.578   5.717 -0.5395 -1.1024 -0.4694
   54MOL   H34118467   1.289   4.705   5.594 -0.2301 -0.3514  0.4468
   54MOL   H34218468   1.335   4.272   5.323  0.5885  1.7759  0.3911
   55MOL     C118469   1.237   5.068   7.856  0.1302 -0.2319 -0.1681
   55MOL     C218470   1.113   5.109   0.032  0.4237 -0.1174  0.4109
   55MOL     N318471   1.147   5.132   0.176 -0.2768  0.2385 -0.0327
   55MOL     C418472   1.079   5.052   0.278 -0.3262  0.0806 -0.1906
   55MOL     C518473   1.127   5.105   0.416  0.1814  0.1599 -0.7005
   55MOL     C618474   1.222   5.216   0.385 -0.1371  0.4898  0.0427
   55MOL     C718475   1.220   5.230   0.230 -0.7709  0.1377  0.9230
   55MOL     O818476   1.284   5.315   0.165  0.2887  0.3550 -0.4393
   55MOL     H918477   1.221   5.048   7.750  1.4461 -0.1182 -0.3981
   55MOL    H1018478   1.307   5.150   7.869 -0.2110  0.0069  0.1592
   55MOL    H1118479   1.054   5.017   0.029  1.2780 -0.6511 -0.2993
   55MOL    H1218480   0.970   5.054   0.277 -0.3697 -1.1819  0.4607
   55MOL    H1318481   1.112   4.948   0.275  0.8206  0.3801  1.1720
   55MOL    H1418482   1.047   5.161   0.465  1.0325 -0.6527  1.7032
   55MOL    H1518483   1.169   5.032   0.485  2.4449  0.2818 -1.9245
   55MOL    H1618484   1.179   5.312   0.416 -1.5061 -0.1154  0.0387
   55MOL    H1718485   1.320   5.196   0.429  0.0380  1.0463 -0.0826
   55MOL    H1818486   1.282   4.976   7.893 -3.3760 -2.3704 -0.9671
   55MOL    C1918487   1.029   5.226   7.876  0.3380 -0.0656 -0.3797
   55MOL    C2018488   0.970   5.187   7.736  0.1835 -0.0199 -0.1989
   55MOL    N2118489   0.879   5.076   7.736  0.1350 -0.0911 -0.2670
   55MOL    C2218490   0.771   5.079   7.834  0.2551  0.1027 -0.0451
   55MOL    C2318491   0.698   4.944   7.817 -0.0420 -0.3706 -0.0564
   55MOL    C2418492   0.798   4.856   7.729  0.6153  0.0250 -0.1379
   55MOL    C2518493   0.897   4.961   7.677  0.0513  0.2549  0.0735
   55MOL    O2618494   0.995   4.922   7.606  0.4069 -0.1090  0.4351
   55MOL    H2718495   1.100   5.308   7.874  1.4457 -0.9706  0.9784
   55MOL    H2818496   0.947   5.258   0.035  1.5158  0.1907  0.9975
   55MOL    H2918497   1.058   5.157   7.679  0.0326 -2.2453  0.6908
   55MOL    H3018498   0.807   5.091   0.030 -0.0255  1.1361 -0.0700
   55MOL    H3118499   0.706   5.164   7.815  0.7464  0.0943 -1.8521
   55MOL    H3218500   0.656   4.891   7.903  2.5955 -0.7628  1.0545
   55MOL    H3318501   0.616   4.982   7.757 -0.5295  2.8585  2.4793
   55MOL    H3418502   0.845   4.777   7.788  1.1495  0.3484 -0.1263
   55MOL    H3518503   0.758   4.809   7.639 -2.8638  0.2666  1.2083
   55MOL    C3618504   0.910   5.311   7.661  0.7909 -0.4098  0.1693
   55MOL    C3718505   1.007   5.416   7.613  0.1181 -0.4672  0.3497
   55MOL    N3818506   1.119   5.355   7.542 -0.2607  0.3463 -1.1789
   55MOL    C3918507   1.092   5.267   7.426 -0.3244 -0.4328  0.5675
   55MOL    C4018508   1.232   5.242   7.363 -0.2935 -0.0377  0.1171
   55MOL    C4118509   1.329   5.286   7.465 -0.3593 -0.0525 -0.0727
   55MOL    C4218510   1.249   5.361   7.572 -0.1145  0.2531 -0.5809
   55MOL    O4318511   1.300   5.424   7.664 -0.3220  0.0859 -0.2270
   55MOL    H4418512   0.834   5.362   7.721  2.7111  1.3798  1.1353
   55MOL    H4518513   0.871   5.275   7.566  1.8343 -0.3450 -0.2888
   55MOL    H4618514   1.049   5.462   7.702  1.9593  0.7049 -1.0857
   55MOL    H4718515   1.033   5.176   7.435 -2.0532  0.3507 -2.3530
   55MOL    H4818516   1.038   5.325   7.351 -0.8567 -2.1237 -0.3650
   55MOL    H4918517   1.246   5.138   7.333 -1.0413 -0.2266  0.4046
   55MOL    H5018518   1.244   5.305   7.274 -0.3068 -0.3002 -0.0714
   55MOL    H5118519   1.361   5.196   7.517 -1.4880 -1.9285 -2.5300
   55MOL    H5218520   1.409   5.351   7.428 -0.0684 -1.8447 -2.7989
   55MOL    C5318521   0.948   5.541   7.536 -0.1784  0.2678  0.0671
   55MOL    C5418522   1.029   5.669   7.540  0.6598 -0.9420 -0.1660
   55MOL    N5518523   1.031   5.742   7.412 -0.1521  0.8268  0.6681
   55MOL    C5618524   1.148   5.734   7.330  0.4575 -0.3796 -0.1216
   55MOL    C5718525   1.131   5.842   7.218 -0.4125 -0.5685 -0.0873
   55MOL    C5818526   0.984   5.860   7.212 -0.1056 -0.7881  0.1138
   55MOL    C5918527   0.937   5.804   7.345  0.6063  0.6094  1.1284
   55MOL    O6018528   0.824   5.832   7.387 -0.0399  0.0495  0.6082
   55MOL    H6118529   0.848   5.570   7.566  0.5757  0.0733  2.8686
   55MOL    H6218530   0.945   5.499   7.435 -1.5411 -2.5380  1.2410
   55MOL    H6318531   1.136   5.647   7.547  0.6751 -1.1843 -1.0986
   55MOL    H6418532   1.240   5.751   7.387 -0.5733 -1.0204  1.7892
   55MOL    H6518533   1.150   5.631   7.293  0.7302  0.3809 -2.2745
   55MOL    H6618534   1.180   5.938   7.237  0.5240 -1.5163  2.6558
   55MOL    H6718535   1.160   5.812   7.118  0.9194 -1.5935  0.5838
   55MOL    H6818536   0.950   5.960   7.186  0.9386 -0.1612  1.1618
   55MOL    H6918537   0.947   5.787   7.140 -1.5276 -0.6675  0.7021
   55MOL    C7018538   0.989   5.761   7.656 -0.2831 -0.1337 -0.1967
   55MOL    C7118539   1.098   5.873   7.695  0.1214  0.2932  0.0066
   55MOL    N7218540   1.094   5.978   7.596 -0.5530 -0.5092  0.2786
   55MOL    C7318541   0.979   6.068   7.595  0.1824 -0.1601 -0.0946
   55MOL    C7418542   1.030   6.185   7.502 -0.1657  0.3288  0.3623
   55MOL    C7518543   1.175   6.167   7.480 -1.2385  0.2200 -0.1699
   55MOL    C7618544   1.206   6.029   7.534  0.0589 -0.5488 -0.7074
   55MOL    O7718545   1.323   5.983   7.528 -0.1633 -0.3002 -0.0610
   55MOL    H7818546   0.984   5.685   7.733  0.1364  1.2128  1.1746
   55MOL    H7918547   0.889   5.803   7.660 -1.4089 -2.7039 -0.7828
   55MOL    H8018548   1.199   5.835   7.687 -0.2288 -0.2700 -2.1002
   55MOL    H8118549   0.894   6.011   7.556  0.4389 -1.9695  1.9200
   55MOL    H8218550   0.950   6.110   7.692 -2.6037 -0.5591 -0.7169
   55MOL    H8318551   0.985   6.174   7.404 -0.9186  1.4169  0.5810
   55MOL    H8418552   1.005   6.282   7.544 -0.1597  0.5990 -0.2703
   55MOL    H8518553   1.201   6.167   7.374  1.7859  1.4409  0.5261
   55MOL    H8618554   1.239   6.226   7.545  1.3437  1.0316 -3.3068
   55MOL    C8718555   1.089   5.922   7.840 -0.1737  0.4778 -0.0014
   55MOL    C8818556   1.140   5.825   0.044  0.9709  0.3204  0.2632
   55MOL    N8918557   1.285   5.807   0.023  0.1169  0.5832 -0.7839
   55MOL    C9018558   1.335   5.669   0.013  0.0769  0.2276 -0.0430
   55MOL    C9118559   1.489   5.676   0.011 -0.3078 -0.2204 -0.2062
   55MOL    C9218560   1.523   5.827   0.024 -0.3799  0.0244  0.0712
   55MOL    C9318561   1.389   5.893   0.034  0.3690 -0.1953  0.4222
   55MOL    O9418562   1.383   6.015   0.043  0.2134  0.1869  0.0032
   55MOL    H9518563   0.984   5.950   7.848 -0.3382 -0.2371  0.4336
   55MOL    H9618564   1.140   6.015   7.865  2.1575 -0.5205 -0.9131
   55MOL    H9718565   1.095   5.727   0.027 -0.9734  1.3854 -0.8723
   55MOL    H9818566   1.300   5.600   0.090  0.5681  1.9705  1.7964
   55MOL    H9918567   1.290   5.620   7.833 -2.5102  0.9510  0.8521
   55MOL   H10018568   1.521   5.641   0.109 -0.8186  2.1851  0.8687
   55MOL   H10118569   1.532   5.613   7.840  0.5076  1.8135 -1.4689
   55MOL   H10218570   1.585   5.841   0.113  1.8165  3.1133 -1.8333
   55MOL   H10318571   1.581   5.851   7.841  0.2313 -1.0182  0.1770
   55MOL   C10418572   1.104   5.852   0.188 -0.1062  0.4416  1.0928
   55MOL   C10518573   0.955   5.869   0.224 -0.8767  0.3014  0.6090
   55MOL   N10618574   0.887   5.744   0.197  0.3264 -0.4424 -0.4410
   55MOL   C10718575   0.788   5.747   0.085  0.0968 -0.1195 -0.0300
   55MOL   C10818576   0.762   5.598   0.054 -0.0189  0.7715 -0.1794
   55MOL   C10918577   0.817   5.521   0.174  0.0208 -0.1890 -0.0525
   55MOL   C11018578   0.910   5.621   0.249  0.1708  0.4202  0.2508
   55MOL   O11118579   0.975   5.589   0.352  0.0867  0.4958  0.2268
   55MOL   H11218580   1.141   5.950   0.219  0.8723  0.0937  1.0333
   55MOL   H11318581   1.156   5.772   0.241 -0.5186 -1.3328 -1.1067
   55MOL   H11418582   0.920   5.948   0.158 -1.2334 -0.3217  0.0518
   55MOL   H11518583   0.698   5.792   0.126 -0.0376 -1.3734  1.0860
   55MOL   H11618584   0.837   5.797   0.001 -0.2457  2.7903  1.4491
   55MOL   H11718585   0.658   5.565   0.046  0.6024 -0.7560 -2.2713
   55MOL   H11818586   0.822   5.587   7.870 -0.2248  3.2152 -0.6612
   55MOL   H11918587   0.882   5.437   0.150 -1.9596 -1.3638 -1.4724
   55MOL   H12018588   0.742   5.496   0.249  0.5547 -1.1430  0.1833
   55MOL   C12118589   0.942   5.916   0.370 -0.4482 -0.1976 -0.5440
   55MOL   C12218590   0.812   5.983   0.415 -0.3436  0.0308  0.5910
   55MOL   N12318591   0.802   6.007   0.562 -0.3721  0.5112  0.1473
   55MOL   C12418592   0.674   6.014   0.637  0.5510  0.3818  0.4110
   55MOL   C12518593   0.704   6.049   0.778  0.4961  0.5979  0.3338
   55MOL   C12618594   0.859   6.054   0.786  0.2274 -0.2625  0.2775
   55MOL   C12718595   0.906   6.041   0.641  0.0502  0.4189  0.1917
   55MOL   O12818596   1.023   6.065   0.614  0.1461  0.1586 -0.4450
   55MOL   H12918597   1.018   5.994   0.373  0.3325 -0.9422 -0.4074
   55MOL   H13018598   0.963   5.840   0.446 -0.3971 -1.1848 -1.5368
   55MOL   H13118599   0.743   5.902   0.391  0.5692 -0.0147 -2.0773
   55MOL   H13218600   0.612   5.926   0.628 -0.1814  0.8535  0.8261
   55MOL   H13318601   0.609   6.092   0.596  1.3126  0.1127 -1.3853
   55MOL   H13418602   0.668   6.149   0.802 -0.5999 -0.0530  1.4127
   55MOL   H13518603   0.651   5.984   0.847 -2.1244 -0.5476 -2.6628
   55MOL   H13618604   0.879   6.155   0.822 -0.2727 -0.2320  0.4827
   55MOL   H13718605   0.910   5.976   0.842  2.2588  0.4574 -0.5220
   55MOL   C13818606   0.763   6.108   0.337  0.0211  0.6898  0.0626
   55MOL   C13918607   0.851   6.235   0.339 -0.4095  0.4306  0.2652
   55MOL   N14018608   0.979   6.235   0.269  0.0084  0.2685 -0.6691
   55MOL   C14118609   1.093   6.295   0.335 -0.7794  0.2455 -0.0318
   55MOL   C14218610   1.186   6.338   0.225 -0.3937 -0.0411  0.0574
   55MOL   C14318611   1.136   6.272   0.096 -0.4734 -0.5333  0.2437
   55MOL   C14418612   0.999   6.222   0.141  0.2719  0.3153 -0.2684
   55MOL   O14518613   0.916   6.175   0.061  0.3871 -0.3328 -0.6944
   55MOL   H14618614   0.662   6.117   0.378  0.9632 -1.9958  3.2677
   55MOL   H14718615   0.743   6.086   0.232 -0.3144  1.9494 -0.1382
   55MOL   H14818616   0.872   6.259   0.444  1.4128  0.2723 -0.0467
   55MOL   H14918617   1.059   6.384   0.387 -0.9441 -0.3450  0.8854
   55MOL   H15018618   1.137   6.235   0.415 -0.7436  0.0453 -0.2003
   55MOL   H15118619   1.191   6.446   0.232  1.4036 -0.1896  1.5686
   55MOL   H15218620   1.285   6.307   0.261 -0.1592  1.8301  1.0731
   55MOL   H15318621   1.200   6.200   0.047  0.5197  0.4821  0.0487
   55MOL   H15418622   1.119   6.348   0.021  1.7404  0.8511  1.1144
   55MOL   C15518623   0.767   6.360   0.285  0.2424  0.1898 -0.5328
   55MOL   C15618624   0.658   6.407   0.379  0.1234  0.1019  0.3687
   55MOL   N15718625   0.702   6.481   0.502  0.3028  0.4069  0.1009
   55MOL   C15818626   0.600   6.489   0.607  0.1688 -0.4739  0.3847
   55MOL   C15918627   0.666   6.547   0.730  0.0860 -0.4818  0.2458
   55MOL   C16018628   0.807   6.584   0.689  0.2027  0.1092  0.0866
   55MOL   C16118629   0.820   6.536   0.545  0.3959  0.4617  0.5324
   55MOL   O16218630   0.917   6.552   0.474 -0.4194  0.4259  0.3037
   55MOL   H16318631   0.711   6.331   0.195 -0.9599  2.2304 -0.4569
   55MOL   H16418632   0.827   6.445   0.252  1.1991  0.1096  0.9472
   55MOL   H16518633   0.606   6.320   0.420 -0.4823  0.0139 -0.5661
   55MOL   H16618634   0.528   6.568   0.588 -0.9638 -1.2549  1.4175
   55MOL   H16718635   0.549   6.393   0.616 -1.2670  0.1249 -1.1535
   55MOL   H16818636   0.618   6.637   0.770  1.1050  0.0635  0.2507
   55MOL   H16918637   0.665   6.469   0.806  0.8398 -0.2125  0.5322
   55MOL   H17018638   0.814   6.693   0.694 -0.6471  0.1023  1.4794
   55MOL   H17118639   0.888   6.538   0.746 -0.5838 -1.1538  0.2023
   55MOL   C17218640   0.560   6.494   0.300 -0.1311  0.9618  0.5039
   55MOL   C17318641   0.466   6.412   0.199 -0.2644  0.9510 -0.2522
   55MOL   N17418642   0.391   6.297   0.261  0.3736  0.0827  0.2259
   55MOL   C17518643   0.421   6.163   0.216 -0.7156 -0.2108  0.2975
   55MOL   C17618644   0.369   6.070   0.319  0.8047 -0.3859 -0.0925
   55MOL   C17718645   0.270   6.153   0.396  0.5104  0.4863  0.3552
   55MOL   C17818646   0.308   6.295   0.362  0.4131 -0.2528 -0.5718
   55MOL   O17918647   0.254   6.380   0.429  0.6904 -0.4387  0.6985
   55MOL   H18018648   0.614   6.576   0.254  0.9685 -0.3099 -0.5243
   55MOL   H18118649   0.492   6.547   0.366 -1.8713 -1.2017  0.5351
   55MOL   H18218650   0.523   6.374   0.114  2.0822 -0.5355  1.9104
   55MOL   H18318651   0.367   6.150   0.122  0.4501  0.8303 -0.5351
   55MOL   H18418652   0.529   6.152   0.202 -0.8316 -1.1648  0.0987
   55MOL   H18518653   0.454   6.034   0.378  2.5493  1.2634 -1.5235
   55MOL   H18618654   0.326   5.982   0.271  0.2765 -0.9521  1.3833
   55MOL   H18718655   0.170   6.122   0.366  1.1692 -2.3556  1.0273
   55MOL   H18818656   0.290   6.154   0.503  0.6328 -0.6056  0.3425
   55MOL   C18918657   0.367   6.506   0.134 -0.4060 -0.8726  0.1071
   55MOL   C19018658   0.287   6.448   0.021 -0.0590  0.4651 -0.1047
   55MOL   N19118659   0.150   6.511   0.025 -0.2535  0.2995 -0.0299
   55MOL   C19218660   0.031   6.438   0.070  0.9673  0.0212  0.9404
   55MOL   C19318661   7.817   6.535   0.077 -0.1272  0.0786 -0.5709
   55MOL   C19418662   7.877   6.664   0.034 -0.0674  0.5099 -0.3260
   55MOL   C19518663   0.123   6.641   7.904 -0.7052 -0.5304  0.2454
   55MOL   O19618664   0.202   6.733   7.887  0.7145  0.2312  0.3930
   55MOL   H19718665   0.407   6.601   0.098 -2.8730  0.0068 -0.4348
   55MOL   H19818666   0.295   6.543   0.206 -0.2718 -0.3627 -0.0169
   55MOL   H19918667   0.259   6.342   0.025 -0.1615  0.5776  3.0219
   55MOL   H20018668   0.014   6.346   0.014 -1.2024  0.2510  1.1724
   55MOL   H20118669   0.050   6.410   0.173  0.0157  0.5065  1.2499
   55MOL   H20218670   7.739   6.499   0.009 -1.5561  0.6631  0.7222
   55MOL   H20318671   7.776   6.544   0.178 -0.4761  1.2297 -0.8102
   55MOL   H20418672   7.815   6.706   7.861 -3.2142  0.0314  1.7867
   55MOL   H20518673   7.864   6.746   0.105  2.1710  1.0109 -0.4681
   55MOL   C20618674   0.349   6.465   7.783  0.8385  0.3974 -0.0915
   55MOL   C20718675   0.491   6.401   7.760  0.5714  0.8929  0.2353
   55MOL   N20818676   0.490   6.253   7.765  0.4410 -0.0488 -0.1691
   55MOL   C20918677   0.599   6.176   7.817  0.6204 -0.0251 -0.6039
   55MOL   C21018678   0.565   6.029   7.799 -0.0466  0.3117  0.6421
   55MOL   C21118679   0.438   6.026   7.714 -0.9579  0.0311 -0.7533
   55MOL   C21218680   0.406   6.174   7.694 -0.0386 -0.3468 -0.1576
   55MOL   O21318681   0.309   6.210   7.629 -0.6742  0.1067  0.1226
   55MOL   H21418682   0.367   6.572   7.770  1.8394  0.4480  1.6454
   55MOL   H21518683   0.285   6.441   7.698  0.4257 -2.0205  0.8870
   55MOL   H21618684   0.557   6.445   7.835  2.2880  0.0824 -0.7780
   55MOL   H21718685   0.698   6.201   7.778  0.1459  0.4471 -1.5319
   55MOL   H21818686   0.609   6.187   0.019  0.5380 -0.7416 -0.5218
   55MOL   H21918687   0.639   5.968   7.748  0.0773  1.1090 -0.1582
   55MOL   H22018688   0.554   5.976   7.894  0.1551 -0.5184  0.2075
   55MOL   H22118689   0.441   5.963   7.625  0.7556  2.5125 -2.5145
   55MOL   H22218690   0.347   5.998   7.767 -1.0960  2.4134  0.3576
   55MOL   C22318691   0.556   6.443   7.628 -0.1228 -0.4185  0.4957
   55MOL   C22418692   0.605   6.600   7.612  0.5311  0.0783  0.1300
   55MOL   N22518693   0.702   6.633   7.716 -0.0954 -0.5912 -0.0458
   55MOL   C22618694   0.655   6.722   7.823  0.5716  0.0165 -0.3492
   55MOL   C22718695   0.776   6.760   0.015  0.4182  0.5578  0.0992
   55MOL   C22818696   0.880   6.656   7.869 -0.5137  0.5390 -0.3599
   55MOL   C22918697   0.827   6.606   7.735 -0.4350 -0.3715  0.3312
   55MOL   O23018698   0.903   6.551   7.654  0.1926  0.4049 -0.8591
   55MOL   H23118699   0.486   6.412   7.551  1.9122 -0.1104 -1.5391
   55MOL   H23218700   0.632   6.370   7.601  0.9531 -0.5853  3.7583
   55MOL   H23318701   0.520   6.668   7.618  0.7243  0.1534  2.6873
   55MOL   H23418702   0.592   6.795   7.772 -0.8259 -1.7910 -1.2744
   55MOL   H23518703   0.591   6.662   7.887  0.9085  0.1509  0.1152
   55MOL   H23618704   0.813   6.860   7.902  1.5618  0.0747 -0.2683
   55MOL   H23718705   0.760   6.742   0.122 -0.1057 -0.3480 -0.1250
   55MOL   H23818706   0.983   6.690   7.867  0.0423 -1.1420 -1.2829
   55MOL   H23918707   0.875   6.565   0.023 -0.1804  1.9340  1.8337
   55MOL   C24018708   0.644   6.620   7.464 -0.6789 -0.1290  0.3877
   55MOL   C24118709   0.532   6.603   7.359 -0.4405  0.2765 -0.1298
   55MOL   N24218710   0.415   6.690   7.398 -0.3252 -0.6897  0.3622
   55MOL   C24318711   0.284   6.632   7.426 -0.7439  0.1561  0.1409
   55MOL   C24418712   0.193   6.754   7.436  0.1847 -0.2707 -0.1725
   55MOL   C24518713   0.280   6.876   7.457  0.2795 -1.1012 -0.5425
   55MOL   C24618714   0.415   6.823   7.422 -0.3697 -1.0195 -0.4380
   55MOL   O24718715   0.512   6.895   7.410 -0.2760  0.2475  0.6845
   55MOL   H24818716   0.732   6.557   7.450 -0.3870  0.4759 -0.5594
   55MOL   H24918717   0.694   6.716   7.451 -2.8460  0.7351 -1.7521
   55MOL   H25018718   0.506   6.498   7.368  0.9632 -0.1305 -0.7195
   55MOL   H25118719   0.248   6.568   7.346 -0.5142 -1.0369  0.9828
   55MOL   H25218720   0.279   6.578   7.520 -0.2772  2.8384  1.7768
   55MOL   H25318721   0.135   6.779   7.347 -0.6668 -0.8703  0.2095
   55MOL   H25418722   0.118   6.750   7.515  0.4083  2.0520  0.1782
   55MOL   H25518723   0.259   6.971   7.406  1.0555 -0.4484  0.3416
   55MOL   H25618724   0.292   6.905   7.561  1.6970  0.3698 -1.0968
   55MOL   C25718725   0.584   6.633   7.218  0.1356  0.6755  0.5284
   55MOL   C25818726   0.699   6.548   7.157  0.2365 -0.5296  0.0490
   55MOL   N25918727   0.690   6.406   7.187  0.6038 -0.3075  0.3720
   55MOL   C26018728   0.781   6.344   7.291  0.1327 -0.7425  0.3189
   55MOL   C26118729   0.765   6.195   7.267  0.3239  0.0141 -0.3458
   55MOL   C26218730   0.647   6.174   7.180 -0.0987  0.1215  0.0431
   55MOL   C26318731   0.615   6.315   7.129 -0.1260  0.5010 -0.2653
   55MOL   O26418732   0.524   6.339   7.052  0.5497  0.1139 -0.4252
   55MOL   H26518733   0.614   6.737   7.205 -1.6250  1.1414 -0.0148
   55MOL   H26618734   0.490   6.620   7.164 -0.8062  3.7185  1.3312
   55MOL   H26718735   0.788   6.587   7.206 -1.5723  0.4136  2.7527
   55MOL   H26818736   0.886   6.372   7.277 -0.0955 -0.6938 -1.4545
   55MOL   H26918737   0.747   6.367   7.392  0.0727  0.1270  0.1029
   55MOL   H27018738   0.858   6.153   7.228  1.3332  0.8448  1.0897
   55MOL   H27118739   0.762   6.144   7.364 -1.5531  0.6721 -0.0487
   55MOL   H27218740   0.654   6.111   7.092  1.8578 -0.5199  0.6374
   55MOL   H27318741   0.560   6.136   7.233 -1.9305  3.3721 -0.4966
   55MOL   C27418742   0.729   6.575   7.003  0.5649 -0.0291 -0.0761
   55MOL   C27518743   0.823   6.691   6.970 -0.4344 -0.8327 -0.4774
   55MOL   N27618744   0.963   6.676   7.019  0.1350  1.5641 -0.7888
   55MOL   C27718745   1.025   6.776   7.107 -0.0085 -0.3395  0.7419
   55MOL   C27818746   1.165   6.732   7.135  0.5827  0.3493  0.2183
   55MOL   C27918747   1.185   6.622   7.032  0.2519 -0.2927  0.4034
   55MOL   C28018748   1.055   6.599   6.962  0.3307 -0.8153  0.2801
   55MOL   O28118749   1.039   6.528   6.869 -0.4065  0.2081 -0.1180
   55MOL   H28218750   0.635   6.585   6.949  0.6086  1.6549  0.1421
   55MOL   H28318751   0.775   6.490   6.953 -0.5034  0.0691 -1.2555
   55MOL   H28418752   0.800   6.775   7.035 -1.7673 -2.0759  0.6780
   55MOL   H28518753   1.026   6.870   7.052 -3.9022 -0.8751 -0.4345
   55MOL   H28618754   0.971   6.785   7.202 -1.9727  1.2371 -0.4852
   55MOL   H28718755   1.233   6.817   7.129 -0.1995  0.9347 -0.5602
   55MOL   H28818756   1.171   6.698   7.238 -0.2493 -0.4734  0.0122
   55MOL   H28918757   1.252   6.669   6.960 -0.1195 -1.3578 -0.6430
   55MOL   H29018758   1.218   6.526   7.071  0.2535 -0.3871  0.1724
   55MOL   C29118759   0.816   6.743   6.827 -0.4061 -0.4760 -0.1663
   55MOL   C29218760   0.679   6.811   6.781 -0.2501  0.1192  0.3172
   55MOL   N29318761   0.666   6.945   6.842 -0.0217 -0.9077 -0.0257
   55MOL   C29418762   0.576   6.963   6.955 -1.1391 -0.8165 -0.0997
   55MOL   C29518763   0.584   7.113   6.978  0.0571 -0.5792 -0.6217
   55MOL   C29618764   0.706   7.169   6.914  0.1425 -0.6778 -0.1693
   55MOL   C29718765   0.734   7.056   6.814 -0.3817 -0.7739  0.6024
   55MOL   O29818766   0.815   7.069   6.721  0.3103  0.2538 -0.6944
   55MOL   H29918767   0.840   6.652   6.773  1.3284 -0.4418  0.5015
   55MOL   H30018768   0.898   6.814   6.813 -0.5493 -0.5477 -1.4316
   55MOL   H30118769   0.602   6.751   6.828 -1.0745  0.1285 -0.9830
   55MOL   H30218770   0.482   6.912   6.933 -2.1151  1.2610 -0.8528
   55MOL   H30318771   0.601   6.902   7.042  1.0739 -0.1752 -0.2596
   55MOL   H30418772   0.501   7.163   6.928 -1.1268 -0.3724  1.4722
   55MOL   H30518773   0.579   7.135   7.085  0.5599 -3.4294  0.0473
   55MOL   H30618774   0.688   7.263   6.862  3.7363 -0.1688 -0.6716
   55MOL   H30718775   0.788   7.189   6.984  1.0848  0.0366 -1.4466
   55MOL   C30818776   0.656   6.807   6.629 -0.3786  0.2543 -0.0205
   55MOL   C30918777   0.663   6.673   6.548  1.0649  0.0756  0.6181
   55MOL   N31018778   0.591   6.554   6.602  0.2555 -0.7394  0.0867
   55MOL   C31118779   0.668   6.427   6.612  0.3205  0.3969 -0.6165
   55MOL   C31218780   0.573   6.335   6.698  0.6554 -0.9439  0.3450
   55MOL   C31318781   0.438   6.407   6.716 -0.1477  0.4546 -0.1192
   55MOL   C31418782   0.471   6.548   6.664  0.4367 -0.1163  0.0999
   55MOL   O31518783   0.380   6.636   6.672  0.2843 -0.2781 -0.3205
   55MOL   H31618784   0.718   6.882   6.579 -0.7716  0.5547 -0.0644
   55MOL   H31718785   0.556   6.849   6.615 -1.0039 -1.6446 -1.5788
   55MOL   H31818786   0.768   6.644   6.555  0.7977 -0.4963  2.5627
   55MOL   H31918787   0.705   6.382   6.520 -1.0262  0.4856 -1.2091
   55MOL   H32018788   0.760   6.455   6.662 -0.1949  0.6234  0.2113
   55MOL   H32118789   0.559   6.240   6.646 -0.3820  0.2399 -1.5848
   55MOL   H32218790   0.618   6.316   6.795  0.6299 -0.8922  0.3671
   55MOL   H32318791   0.361   6.353   6.661  0.3507 -0.5810  0.1945
   55MOL   H32418792   0.411   6.416   6.822  0.3837 -0.6360  0.1144
   55MOL   C32518793   0.621   6.704   6.404  0.1398  0.1931  0.4411
   55MOL   C32618794   0.690   6.812   6.322  0.2036  0.1288 -0.4118
   55MOL   N32718795   0.799   6.756   6.240  0.4651 -0.1612 -0.1568
   55MOL   C32818796   0.940   6.794   6.266  0.4942  0.5125 -0.3384
   55MOL   C32918797   1.014   6.747   6.135 -0.5819 -0.5834  0.2268
   55MOL   C33018798   0.912   6.667   6.054 -0.0820 -0.0538  0.2969
   55MOL   C33118799   0.781   6.688   6.128 -0.5466  0.2758  0.1446
   55MOL   O33218800   0.671   6.653   6.081 -0.5168  1.0342  0.7583
   55MOL   H33318801   0.514   6.724   6.400 -0.1245 -1.4490 -1.8557
   55MOL   H33418802   0.608   6.612   6.346  1.2604  1.2026 -1.4349
   55MOL   H33518803   0.724   6.894   6.385 -0.9693  0.4062 -0.1267
   55MOL   H33618804   0.943   6.902   6.275 -1.4029  0.9295 -3.7139
   55MOL   H33718805   0.966   6.737   6.355  1.4395  1.5424  0.0522
   55MOL   H33818806   1.033   6.839   6.080  1.0651  0.0370  1.7860
   55MOL   H33918807   1.110   6.697   6.150  0.5900  1.0926 -1.4681
   55MOL   H34018808   0.900   6.690   5.948 -0.0853  0.0549  0.3210
   55MOL   H34118809   0.951   6.566   6.048 -3.9074 -1.6555  0.9867
   55MOL   H34218810   0.619   6.863   6.257 -0.8757 -0.0806  0.5822
   56MOL     C118811   2.384   5.228   6.000  0.2980 -0.4474  0.0866
   56MOL     C218812   2.532   5.203   6.027  0.4530  0.1349  0.0506
   56MOL     N318813   2.621   5.303   5.976 -0.5937  0.7548  0.4025
   56MOL     C418814   2.709   5.272   5.865  0.4138 -0.3758 -0.2665
   56MOL     C518815   2.774   5.407   5.824  0.5969  0.2376 -0.0478
   56MOL     C618816   2.738   5.502   5.942  0.6702 -0.1385 -0.2655
   56MOL     C718817   2.627   5.429   6.017 -0.1557 -0.3242 -0.0255
   56MOL     O818818   2.565   5.484   6.111  0.1329 -0.2586 -0.3002
   56MOL     H918819   2.371   5.263   5.897  1.8404  1.2139  0.4217
   56MOL    H1018820   2.333   5.134   6.018  1.2136 -0.7419  1.1633
   56MOL    H1118821   2.541   5.113   5.966 -0.1103 -0.2316  0.4912
   56MOL    H1218822   2.787   5.204   5.898  0.3140 -0.9102 -1.1119
   56MOL    H1318823   2.663   5.224   5.779  0.9059  0.1684 -0.8407
   56MOL    H1418824   2.881   5.399   5.807  0.1908 -1.8115 -1.9332
   56MOL    H1518825   2.723   5.448   5.737  0.8983 -0.1243 -0.3928
   56MOL    H1618826   2.812   5.512   6.021 -2.0801  2.2115  2.1529
   56MOL    H1718827   2.703   5.602   5.919 -1.2315 -0.6092  0.4486
   56MOL    H1818828   2.347   5.301   6.072  1.8328  0.0440  0.3930
   56MOL    C1918829   2.561   5.189   6.182  0.6528  0.2590 -0.7594
   56MOL    C2018830   2.513   5.057   6.244 -0.7410 -0.7841 -0.8800
   56MOL    N2118831   2.568   4.945   6.167  0.0528 -0.0277 -0.2951
   56MOL    C2218832   2.472   4.836   6.153 -0.1379 -0.1399  0.7156
   56MOL    C2318833   2.551   4.725   6.090  0.2702 -0.4420  0.1682
   56MOL    C2418834   2.699   4.772   6.072  0.0117  0.2909  0.4551
   56MOL    C2518835   2.693   4.917   6.126 -0.5053  0.5429 -1.0995
   56MOL    O2618836   2.794   4.986   6.127 -0.1776 -0.0756 -0.0341
   56MOL    H2718837   2.514   5.272   6.235  0.1558  0.1765 -1.0611
   56MOL    H2818838   2.669   5.184   6.189  0.7216  0.3053 -1.6521
   56MOL    H2918839   2.404   5.056   6.238 -0.8052 -1.2295  0.2857
   56MOL    H3018840   2.446   4.814   6.256  1.1071 -0.8619  0.8946
   56MOL    H3118841   2.382   4.858   6.096  0.9014  1.0913 -0.4848
   56MOL    H3218842   2.551   4.635   6.153 -1.5088  1.1685  2.5453
   56MOL    H3318843   2.493   4.720   5.998  0.2948 -0.6763  0.1652
   56MOL    H3418844   2.771   4.710   6.126 -0.1539 -1.6643 -1.4840
   56MOL    H3518845   2.720   4.761   5.966 -1.0737 -1.1903  0.3825
   56MOL    C3618846   2.569   5.056   6.388  0.1386 -0.4357 -0.3198
   56MOL    C3718847   2.506   5.140   6.501  0.1076  0.6758 -0.1473
   56MOL    N3818848   2.359   5.124   6.517 -0.7575  0.0181  0.2620
   56MOL    C3918849   2.270   5.237   6.500  0.9758 -0.3118 -0.4374
   56MOL    C4018850   2.122   5.200   6.536 -1.0580 -0.4523  0.1517
   56MOL    C4118851   2.144   5.053   6.589 -0.7976 -0.0744 -0.1816
   56MOL    C4218852   2.292   5.016   6.565 -0.3586 -0.1335 -0.4822
   56MOL    O4318853   2.328   4.898   6.570 -0.1399 -0.1783  0.1342
   56MOL    H4418854   2.677   5.065   6.389  0.2764 -1.8060  1.8611
   56MOL    H4518855   2.546   4.959   6.432  0.3618 -0.0538  0.6600
   56MOL    H4618856   2.530   5.244   6.481  0.0596  0.8628  0.7323
   56MOL    H4718857   2.297   5.325   6.559 -1.0693  0.7238 -0.9835
   56MOL    H4818858   2.279   5.274   6.397  1.3575  0.7597 -0.0262
   56MOL    H4918859   2.065   5.263   6.604 -4.7194 -3.4149 -0.0052
   56MOL    H5018860   2.063   5.186   6.445 -1.8685  0.0620  0.5961
   56MOL    H5118861   2.127   5.047   6.696  2.3793 -0.5697  0.3276
   56MOL    H5218862   2.073   4.983   6.544 -1.2266  0.4877 -0.3804
   56MOL    C5318863   2.587   5.112   6.635  0.0833 -0.1227 -0.1688
   56MOL    C5418864   2.521   5.172   6.767 -0.3693  0.4455  0.1585
   56MOL    N5518865   2.578   5.100   6.882 -0.6807 -0.2384 -0.2774
   56MOL    C5618866   2.508   4.987   6.936  0.7893 -0.4017 -0.0614
   56MOL    C5718867   2.597   4.904   7.033 -0.2399  0.1817 -0.3848
   56MOL    C5818868   2.725   4.992   7.029 -0.3920 -0.0106  0.6307
   56MOL    C5918869   2.698   5.109   6.933 -0.6907  0.2833  0.5935
   56MOL    O6018870   2.780   5.194   6.902 -0.2739  0.3570  0.5438
   56MOL    H6118871   2.690   5.147   6.626  0.6551 -1.8182 -0.4088
   56MOL    H6218872   2.590   5.004   6.641 -0.0887 -0.1878 -1.1066
   56MOL    H6318873   2.412   5.160   6.768 -0.2440 -1.3793 -2.8019
   56MOL    H6418874   2.425   5.025   6.995  0.5350  0.0997 -0.7414
   56MOL    H6518875   2.476   4.923   6.854 -1.5840 -1.3208  1.5145
   56MOL    H6618876   2.551   4.912   7.132  2.0247  2.9764  0.5099
   56MOL    H6718877   2.614   4.800   7.005  2.4650  0.2579  0.8507
   56MOL    H6818878   2.741   5.038   7.126 -3.0955  0.1343  1.0188
   56MOL    H6918879   2.805   4.940   6.976  0.1161  3.0289 -1.7067
   56MOL    C7018880   2.543   5.333   6.781 -0.7336  0.0343 -0.4819
   56MOL    C7118881   2.464   5.400   6.897  0.0303 -0.6249  0.2893
   56MOL    N7218882   2.495   5.543   6.925 -0.4564  0.5665  0.4805
   56MOL    C7318883   2.519   5.586   7.063 -0.0380  0.2628  0.3458
   56MOL    C7418884   2.518   5.738   7.062 -0.4360 -0.1575  0.7791
   56MOL    C7518885   2.487   5.778   6.922 -0.1753  0.0024  0.3639
   56MOL    C7618886   2.488   5.647   6.846  0.6247 -0.0165 -0.7193
   56MOL    O7718887   2.479   5.645   6.728  0.1494 -0.1419 -0.2312
   56MOL    H7818888   2.518   5.370   6.682  2.8552  0.4181 -1.3249
   56MOL    H7918889   2.650   5.354   6.789 -0.8307 -0.4845  3.1387
   56MOL    H8018890   2.497   5.342   6.983  1.5848 -2.0024 -1.1718
   56MOL    H8118891   2.446   5.540   7.130 -0.3278 -1.7061 -1.2922
   56MOL    H8218892   2.611   5.542   7.103 -0.5476 -0.8475  0.2913
   56MOL    H8318893   2.440   5.773   7.129 -0.3000  0.6618  0.5191
   56MOL    H8418894   2.617   5.769   7.096  0.3219 -0.5611 -1.0164
   56MOL    H8518895   2.387   5.820   6.923  0.3665  1.3411  2.4527
   56MOL    H8618896   2.559   5.851   6.884 -0.4617  1.8341  3.1765
   56MOL    C8718897   2.313   5.384   6.877  0.6609  0.0971 -0.6575
   56MOL    C8818898   2.231   5.393   7.008 -0.0643 -0.3170 -0.0115
   56MOL    N8918899   2.087   5.422   6.980  0.2390 -0.0072 -0.9916
   56MOL    C9018900   2.023   5.543   7.032  0.2759 -0.1008  0.5687
   56MOL    C9118901   1.874   5.535   7.001  0.4268 -0.1033  0.1093
   56MOL    C9218902   1.856   5.404   6.928  0.6029  0.2293 -0.1762
   56MOL    C9318903   1.995   5.342   6.929 -0.1833 -0.4987  0.0737
   56MOL    O9418904   2.009   5.239   6.862 -0.6814  0.1941 -0.1668
   56MOL    H9518905   2.281   5.286   6.843  2.4313 -1.1441  1.1580
   56MOL    H9618906   2.275   5.454   6.803  1.5710  0.0651 -1.1713
   56MOL    H9718907   2.262   5.480   7.067  1.1549  0.3683 -1.6172
   56MOL    H9818908   2.040   5.553   7.139 -1.1459 -1.0506  0.9026
   56MOL    H9918909   2.058   5.629   6.974  0.2413  0.6708  1.6876
   56MOL   H10018910   1.808   5.547   7.087  2.3232  2.7444  1.2773
   56MOL   H10118911   1.850   5.608   6.923 -0.0632 -1.3889 -0.9628
   56MOL   H10218912   1.787   5.340   6.982  1.3468  0.5587  1.1693
   56MOL   H10318913   1.837   5.420   6.821  1.2879  0.0008 -0.3333
   56MOL   C10418914   2.248   5.267   7.095 -0.1019  0.0362 -0.0860
   56MOL   C10518915   2.186   5.281   7.230  0.0405  0.7777 -0.8457
   56MOL   N10618916   2.166   5.151   7.288  0.1528 -0.2373  0.0440
   56MOL   C10718917   2.025   5.111   7.305 -0.2959  0.0874  0.2225
   56MOL   C10818918   2.035   4.968   7.359 -0.4180  0.2437 -0.0909
   56MOL   C10918919   2.171   4.958   7.422 -0.2129  0.3504 -0.4949
   56MOL   C11018920   2.252   5.072   7.355 -0.5209  0.2031  0.7450
   56MOL   O11118921   2.375   5.083   7.363 -0.4892 -0.6615  0.2863
   56MOL   H11218922   2.353   5.252   7.116 -0.2766  1.5299  2.0048
   56MOL   H11318923   2.221   5.172   7.049  1.7548 -1.3618  1.6481
   56MOL   H11418924   2.085   5.320   7.214 -0.1352  0.9449  0.5681
   56MOL   H11518925   1.980   5.174   7.382 -1.4537 -0.5450  0.0607
   56MOL   H11618926   1.972   5.123   7.211 -0.7784  2.0983  0.7233
   56MOL   H11718927   1.957   4.944   7.431  0.8892 -1.6296  0.7524
   56MOL   H11818928   2.029   4.893   7.280  1.9591 -1.7897  1.5643
   56MOL   H11918929   2.215   4.866   7.385 -2.8815 -1.2873  0.2597
   56MOL   H12018930   2.165   4.964   7.531  0.6399 -2.4277 -0.2611
   56MOL   C12118931   2.243   5.386   7.327 -0.8181 -0.3180  0.0576
   56MOL   C12218932   2.167   5.385   7.464 -0.3309 -0.2842  0.5040
   56MOL   N12318933   2.253   5.441   7.571  0.3008  0.2655  0.3380
   56MOL   C12418934   2.324   5.345   7.652 -0.5708  0.2139 -0.5979
   56MOL   C12518935   2.416   5.428   7.745  0.2215 -0.5251 -0.2396
   56MOL   C12618936   2.367   5.577   7.730  0.0386  0.2125  0.5870
   56MOL   C12718937   2.272   5.565   7.611  0.0306 -0.7089  0.7350
   56MOL   O12818938   2.213   5.668   7.570  0.3270  0.5202 -0.1385
   56MOL   H12918939   2.248   5.485   7.281  2.0853  0.5797  2.1742
   56MOL   H13018940   2.350   5.370   7.339 -0.6124 -0.6760 -2.0549
   56MOL   H13118941   2.143   5.284   7.494 -1.5685  0.5570  2.4185
   56MOL   H13218942   2.399   5.285   7.600 -0.2427 -1.2444  1.5270
   56MOL   H13318943   2.259   5.278   7.708  2.4732 -2.5621 -0.2033
   56MOL   H13418944   2.404   5.394   7.848 -1.2725  1.5837  0.3199
   56MOL   H13518945   2.523   5.423   7.727  0.2768  0.2233 -0.1424
   56MOL   H13618946   2.295   5.604   7.808  1.6867  1.9623  1.5477
   56MOL   H13718947   2.443   5.655   7.722 -0.6828  0.9212  0.5552
   56MOL   C13818948   2.020   5.457   7.452  0.3287 -0.4595  0.2675
   56MOL   C13918949   1.928   5.457   7.579 -0.2434 -1.2473 -0.2170
   56MOL   N14018950   1.804   5.535   7.557 -0.0712 -0.3946 -0.4683
   56MOL   C14118951   1.781   5.666   7.619  0.4747 -0.2974 -0.4207
   56MOL   C14218952   1.652   5.715   7.560 -0.0256 -0.6298 -0.1988
   56MOL   C14318953   1.594   5.605   7.474 -0.1723  0.1801  0.0440
   56MOL   C14418954   1.704   5.507   7.472  0.3368  0.6242 -0.1676
   56MOL   O14518955   1.687   5.402   7.404 -0.1743 -0.3925 -0.4927
   56MOL   H14618956   1.966   5.410   7.371 -1.7906  0.2111  1.2695
   56MOL   H14718957   2.029   5.561   7.420  0.5429 -0.3590  0.6538
   56MOL   H14818958   1.969   5.513   7.663 -0.6291 -0.4918 -0.5251
   56MOL   H14918959   1.786   5.654   7.727 -2.5018  2.7362  0.1550
   56MOL   H15018960   1.859   5.738   7.594  1.5662 -1.6811 -1.0101
   56MOL   H15118961   1.583   5.750   7.638  1.2691 -0.2747  0.8081
   56MOL   H15218962   1.668   5.807   7.504  1.8608 -2.1534 -2.2532
   56MOL   H15318963   1.558   5.635   7.375 -2.3556 -1.7971  0.1960
   56MOL   H15418964   1.509   5.551   7.517  0.0540  1.0151  1.5806
   56MOL   C15518965   1.895   5.311   7.622 -0.5287 -0.2997 -0.5082
   56MOL   C15618966   1.830   5.311   7.766 -0.3006 -0.6551 -0.6194
   56MOL   N15718967   1.753   5.186   7.794 -0.1609 -0.1519  0.0365
   56MOL   C15818968   1.615   5.196   7.822  0.0401 -0.1753 -0.3807
   56MOL   C15918969   1.565   5.057   7.787  0.4563 -0.3454 -0.0032
   56MOL   C16018970   1.684   4.962   7.787 -0.2305  0.6909  0.5370
   56MOL   C16118971   1.795   5.061   7.770  0.0906  0.3156  0.3547
   56MOL   O16218972   1.907   5.016   7.739 -0.4571 -0.2676  0.2344
   56MOL   H16318973   1.984   5.248   7.625 -0.9307 -0.8108  4.3279
   56MOL   H16418974   1.833   5.263   7.547  0.6943 -0.1815 -1.6036
   56MOL   H16518975   1.758   5.392   7.776 -0.5971 -0.9008 -0.7635
   56MOL   H16618976   1.594   5.220   0.020  0.6997  1.2606 -0.5729
   56MOL   H16718977   1.560   5.269   7.762  0.1466  0.7600  0.6377
   56MOL   H16818978   1.487   5.014   7.851 -2.1251  1.1381 -2.0390
   56MOL   H16918979   1.523   5.059   7.686 -1.5608  0.2741  0.8192
   56MOL   H17018980   1.688   4.906   7.880 -0.9118  1.8959  1.3137
   56MOL   H17118981   1.681   4.888   7.707  1.1493  0.7493  0.4150
   56MOL   C17218982   1.932   5.338   7.872  0.2671 -0.6102 -0.3260
   56MOL   C17318983   1.902   5.400   0.100 -0.4714 -0.5901  0.3932
   56MOL   N17418984   1.801   5.329   0.180  0.1163 -0.5306 -0.3733
   56MOL   C17518985   1.678   5.396   0.210  0.3813 -0.3865  0.5222
   56MOL   C17618986   1.613   5.307   0.317 -0.1872 -0.0917 -0.5901
   56MOL   C17718987   1.684   5.174   0.308 -0.1274  0.1698 -0.0854
   56MOL   C17818988   1.810   5.204   0.226 -0.3580 -0.6606 -0.0662
   56MOL   O17918989   1.898   5.119   0.205 -0.8157  0.3162 -0.5176
   56MOL   H18018990   2.016   5.393   7.829 -0.1275 -0.1614 -0.5284
   56MOL   H18118991   1.976   5.239   7.886  0.7401 -0.1213  1.8023
   56MOL   H18218992   1.865   5.501   0.086  0.2473 -0.5562 -1.4244
   56MOL   H18318993   1.704   5.489   0.260  0.4438  1.3092 -2.5280
   56MOL   H18418994   1.612   5.407   0.123 -1.1133  1.2424  1.8091
   56MOL   H18518995   1.505   5.294   0.309 -0.0576 -0.7008 -1.5241
   56MOL   H18618996   1.635   5.338   0.419  1.4258 -2.4585 -0.1679
   56MOL   H18718997   1.714   5.138   0.407 -1.4003  1.2579  0.7100
   56MOL   H18818998   1.627   5.098   0.254  1.3467 -1.4913  0.6449
   56MOL   C18918999   2.032   5.415   0.190  0.1314  0.1098  0.1438
   56MOL   C19019000   2.110   5.553   0.188  0.3294 -0.0815  0.2820
   56MOL   N19119001   2.020   5.676   0.203  0.2713  0.6210  0.0128
   56MOL   C19219002   2.006   5.786   0.106 -0.6414 -0.2642  0.5305
   56MOL   C19319003   1.925   5.899   0.166 -0.0407 -0.0845  0.0409
   56MOL   C19419004   1.892   5.844   0.305  0.1413 -0.2281  0.0236
   56MOL   C19519005   1.948   5.705   0.314 -0.5205 -0.4705  0.1800
   56MOL   O19619006   1.945   5.631   0.416 -0.1092 -0.0090  0.1413
   56MOL   H19719007   2.107   5.339   0.171 -0.0054  0.2920 -1.1371
   56MOL   H19819008   2.002   5.394   0.293 -2.4300  0.1329 -0.5748
   56MOL   H19919009   2.155   5.561   0.089  2.7618 -0.4804  1.3256
   56MOL   H20019010   2.098   5.825   0.061  0.0760 -0.4216  1.8320
   56MOL   H20119011   1.949   5.749   0.021 -0.1782 -1.7769  0.8699
   56MOL   H20219012   1.981   5.989   0.188 -0.2705 -0.2131  1.2331
   56MOL   H20319013   1.838   5.928   0.107 -0.8438 -0.8601  0.8168
   56MOL   H20419014   1.934   5.904   0.385 -0.1186  1.4131 -1.0369
   56MOL   H20519015   1.787   5.838   0.336 -0.0691  0.7097 -0.4784
   56MOL   C20619016   2.220   5.543   0.295  0.4743 -0.0385  0.1330
   56MOL   C20719017   2.311   5.671   0.327  0.2711  0.5480  0.6872
   56MOL   N20819018   2.354   5.652   0.465  0.2858 -0.1290  0.4662
   56MOL   C20919019   2.273   5.720   0.572  0.3087  0.9317 -0.3367
   56MOL   C21019020   2.340   5.670   0.703 -0.0124 -0.4495  0.6425
   56MOL   C21119021   2.467   5.591   0.664 -0.7550  0.1751  0.7976
   56MOL   C21219022   2.446   5.566   0.515  0.5442 -0.2977  0.0512
   56MOL   O21319023   2.506   5.477   0.460 -0.5072  0.3355 -0.0845
   56MOL   H21419024   2.280   5.452   0.287  2.8637  1.5563 -0.7109
   56MOL   H21519025   2.158   5.522   0.382  0.0586  2.6703  0.5267
   56MOL   H21619026   2.245   5.757   0.312 -1.9418 -1.6929 -3.1785
   56MOL   H21719027   2.266   5.827   0.553 -0.7805  0.8147 -0.6464
   56MOL   H21819028   2.172   5.677   0.571  1.4112 -1.7245 -0.4348
   56MOL   H21919029   2.356   5.753   0.771  1.4764  0.1589 -0.4191
   56MOL   H22019030   2.261   5.619   0.758 -1.0179 -0.5709 -0.8728
   56MOL   H22119031   2.559   5.643   0.692 -1.4190  0.9363  1.5920
   56MOL   H22219032   2.475   5.498   0.719 -1.8335 -0.0980  0.5107
   56MOL   C22319033   2.421   5.696   0.226 -0.3133  0.1697 -0.1005
   56MOL   C22419034   2.495   5.825   0.242 -0.7072  0.3848 -0.0622
   56MOL   N22519035   2.634   5.806   0.192 -0.3513 -0.2942 -0.7105
   56MOL   C22619036   2.743   5.863   0.273 -0.1779  0.3112 -0.2730
   56MOL   C22719037   2.874   5.812   0.212 -0.7375 -0.1600 -0.4007
   56MOL   C22819038   2.831   5.726   0.088 -0.3881 -0.6767  0.0908
   56MOL   C22919039   2.679   5.741   0.083  0.3148 -0.3123  0.5421
   56MOL   O23019040   2.600   5.692   7.901  0.1890  0.3321 -0.5334
   56MOL   H23119041   2.377   5.681   0.127 -1.5515 -0.9773  0.6105
   56MOL   H23219042   2.490   5.613   0.240 -0.7050  0.0792  1.2920
   56MOL   H23319043   2.510   5.843   0.349  4.1315 -0.2365 -0.5249
   56MOL   H23419044   2.737   5.972   0.268  1.8645  0.5008  0.4796
   56MOL   H23519045   2.725   5.838   0.378  0.8569 -0.1726 -0.2015
   56MOL   H23619046   2.946   5.888   0.181  0.6973 -1.6212 -0.7223
   56MOL   H23719047   2.928   5.752   0.285 -1.7574 -1.8631 -1.0023
   56MOL   H23819048   2.874   5.764   7.902  3.6388 -1.6473  1.4873
   56MOL   H23919049   2.869   5.625   0.103  0.9130 -0.1329  0.4807
   56MOL   C24019050   2.426   5.949   0.193 -0.4063 -0.4378  0.5346
   56MOL   C24119051   2.442   5.979   0.035 -0.9241 -0.3662 -0.7093
   56MOL   N24219052   2.313   6.027   7.885  0.4287  0.6843 -0.2531
   56MOL   C24319053   2.253   5.961   7.774 -0.9193  0.4904  0.0974
   56MOL   C24419054   2.115   6.033   7.754  0.4741 -0.3461  0.0773
   56MOL   C24519055   2.104   6.138   7.866  0.0719 -0.0519  0.1260
   56MOL   C24619056   2.228   6.112   0.039 -0.4075  0.1050  0.3664
   56MOL   O24719057   2.253   6.179   0.138 -0.1884  0.5099 -0.5646
   56MOL   H24819058   2.444   6.038   0.254  0.4863 -0.7247  0.6915
   56MOL   H24919059   2.323   5.921   0.213 -0.7373  0.1742 -0.2401
   56MOL   H25019060   2.470   5.886   7.892  0.3309 -1.7458  2.4379
   56MOL   H25119061   2.319   5.974   7.688 -1.2567  1.3340 -0.0450
   56MOL   H25219062   2.242   5.854   7.790  0.4946  0.0644 -1.6577
   56MOL   H25319063   2.126   6.062   7.650  2.9107 -0.1946  0.3495
   56MOL   H25419064   2.031   5.964   7.763  0.3818 -0.4130 -1.2757
   56MOL   H25519065   2.115   6.244   7.844  0.0829 -0.7353 -3.4511
   56MOL   H25619066   2.019   6.125   0.027  1.0366  1.8235  1.7734
   56MOL   C25719067   2.562   6.082   7.903 -0.6610  0.4025 -0.7700
   56MOL   C25819068   2.595   6.098   7.755 -0.5158  0.6907 -0.4985
   56MOL   N25919069   2.716   6.184   7.756  0.0351 -0.0701  0.3788
   56MOL   C26019070   2.684   6.327   7.737 -0.4181 -0.3484 -0.4785
   56MOL   C26119071   2.813   6.396   7.771 -0.5184 -0.0478  0.0667
   56MOL   C26219072   2.923   6.286   7.785 -0.5734 -0.7573 -0.1979
   56MOL   C26319073   2.842   6.158   7.786  0.0780  0.1483 -0.1702
   56MOL   O26419074   2.886   6.043   7.800  0.3544 -0.7576 -0.6445
   56MOL   H26519075   2.645   6.042   0.055 -1.3076  0.3229  0.1189
   56MOL   H26619076   2.543   6.177   0.046 -0.0105 -0.9544  2.2572
   56MOL   H26719077   2.512   6.145   7.703 -1.7462  0.2459  1.0337
   56MOL   H26819078   2.650   6.336   7.634 -1.7798 -2.5825 -0.2538
   56MOL   H26919079   2.604   6.363   7.802 -0.6637 -2.1658  0.2675
   56MOL   H27019080   2.840   6.479   7.705 -0.6266 -0.3871 -0.4055
   56MOL   H27119081   2.810   6.443   7.870 -0.1694 -0.3259  0.2115
   56MOL   H27219082   2.994   6.280   7.704  0.0869 -0.1631  0.3337
   56MOL   H27319083   2.979   6.294   7.878  1.1115  2.6951 -1.4296
   56MOL   C27419084   2.625   5.961   7.686  0.4267  0.1081 -0.0701
   56MOL   C27519085   2.707   5.948   7.559 -0.8172  0.0041 -0.0041
   56MOL   N27619086   2.726   5.810   7.524  0.2231  0.2473  0.7877
   56MOL   C27719087   2.847   5.738   7.564  0.2046 -0.2685  0.5287
   56MOL   C27819088   2.840   5.595   7.510  0.4902 -0.1045 -0.2481
   56MOL   C27919089   2.714   5.590   7.418  0.0104 -0.2195  0.2270
   56MOL   C28019090   2.646   5.726   7.450  0.5717 -0.3175  0.3759
   56MOL   O28119091   2.528   5.745   7.409  0.3882 -0.8883  0.7853
   56MOL   H28219092   2.537   5.898   7.677 -0.8497  1.8691 -0.0853
   56MOL   H28319093   2.675   5.915   7.771 -1.3322 -0.1558  0.8356
   56MOL   H28419094   2.812   5.976   7.568 -0.5080 -0.6268 -1.6082
   56MOL   H28519095   2.933   5.780   7.513  0.3807 -0.7447  0.4270
   56MOL   H28619096   2.852   5.750   7.672  1.2209 -1.1423  0.5934
   56MOL   H28719097   2.931   5.568   7.458  0.6079  0.5298 -0.3789
   56MOL   H28819098   2.825   5.530   7.596 -2.3952 -1.4881 -1.7002
   56MOL   H28919099   2.738   5.567   7.314  1.4204 -0.1088  0.5109
   56MOL   H29019100   2.638   5.515   7.437  1.6119 -1.8136  0.4852
   56MOL   C29119101   2.652   6.049   7.450 -0.5060  0.0331  0.3122
   56MOL   C29219102   2.702   6.044   7.308  0.3572 -0.1457 -0.1058
   56MOL   N29319103   2.630   6.152   7.235 -0.1285 -0.6618 -0.2060
   56MOL   C29419104   2.527   6.104   7.141 -0.7109  0.0992  0.3001
   56MOL   C29519105   2.468   6.225   7.067  0.7409 -0.1266  0.2549
   56MOL   C29619106   2.533   6.347   7.138  0.2415 -0.0768 -0.3786
   56MOL   C29719107   2.624   6.287   7.252  0.1762  0.2288  0.3144
   56MOL   O29819108   2.683   6.354   7.336  0.3286 -0.0750  0.2288
   56MOL   H29919109   2.677   6.147   7.492 -1.5038  0.3799  0.1067
   56MOL   H30019110   2.543   6.050   7.446 -0.5024 -2.9909 -1.7165
   56MOL   H30119111   2.679   5.943   7.274  0.6056  0.2130 -1.3606
   56MOL   H30219112   2.551   6.019   7.077 -4.4879 -1.2167  0.4364
   56MOL   H30319113   2.442   6.061   7.195  0.1991 -0.5912  1.2142
   56MOL   H30419114   2.492   6.226   6.961  0.6127  0.5074  0.2296
   56MOL   H30519115   2.360   6.227   7.081  0.8000 -3.5677  1.4889
   56MOL   H30619116   2.606   6.400   7.076  0.2553 -0.6350 -0.8466
   56MOL   H30719117   2.466   6.419   7.184 -0.9881 -0.9271 -0.8195
   56MOL   C30819118   2.853   6.071   7.301  0.0537  0.3992  0.4784
   56MOL   C30919119   2.924   6.043   7.163  0.5412 -0.3894  0.2596
   56MOL   N31019120   3.049   6.122   7.167  0.6054 -0.6532 -0.5841
   56MOL   C31119121   3.037   6.251   7.102  0.0955  0.0211  0.3646
   56MOL   C31219122   3.137   6.345   7.166 -0.5839 -0.0203 -0.3190
   56MOL   C31319123   3.218   6.258   7.250 -0.0876 -0.2136 -0.4070
   56MOL   C31419124   3.143   6.129   7.263 -0.2429  0.0198  0.2311
   56MOL   O31519125   3.181   6.037   7.341 -0.1388 -0.0214  0.0350
   56MOL   H31619126   2.898   6.030   7.391 -2.1516 -3.5029 -0.0922
   56MOL   H31719127   2.855   6.179   7.317  1.0903  0.6786 -1.3827
   56MOL   H31819128   2.856   6.082   7.087 -2.2819 -1.8452  1.9688
   56MOL   H31919129   3.054   6.238   6.995 -2.2770 -1.5524  0.1276
   56MOL   H32019130   2.935   6.289   7.093 -0.2441 -0.7471  0.9067
   56MOL   H32119131   3.195   6.398   7.090 -0.0465  1.3456  1.0178
   56MOL   H32219132   3.097   6.429   7.223  1.0940 -1.0514  2.4837
   56MOL   H32319133   3.311   6.237   7.196 -1.2167 -0.8124 -2.1329
   56MOL   H32419134   3.232   6.288   7.354 -2.4363  0.4754 -0.2770
   56MOL   C32519135   2.941   5.895   7.147 -0.6005  0.6162  0.2216
   56MOL   C32619136   3.030   5.840   7.039  0.2646 -0.2552 -0.4549
   56MOL   N32719137   2.972   5.717   6.995 -0.2822 -0.5708 -0.3881
   56MOL   C32819138   2.900   5.707   6.869  0.1722 -0.1862  0.7639
   56MOL   C32919139   2.845   5.568   6.870  0.0097  0.2401  0.6466
   56MOL   C33019140   2.901   5.504   6.995 -0.5700 -0.1096 -0.0254
   56MOL   C33119141   2.989   5.606   7.059 -0.3535  0.4479 -0.6444
   56MOL   O33219142   3.055   5.584   7.162  0.1992 -0.2234 -0.2623
   56MOL   H33319143   2.844   5.847   7.144 -1.1638  1.7637 -0.2840
   56MOL   H33419144   2.972   5.850   7.242  0.4344 -0.7636 -0.7536
   56MOL   H33519145   3.132   5.838   7.079  0.7269  0.7317 -1.5531
   56MOL   H33619146   2.824   5.785   6.872 -0.3768 -0.7171  0.7699
   56MOL   H33719147   2.977   5.717   6.793  0.1240 -0.3097  0.6984
   56MOL   H33819148   2.736   5.572   6.876 -0.1895 -2.7638 -0.0590
   56MOL   H33919149   2.876   5.522   6.776  1.2533  1.2491  0.5493
   56MOL   H34019150   2.829   5.453   7.060  0.4670 -1.6399 -0.0625
   56MOL   H34119151   2.973   5.428   6.965  0.0549 -0.3702  2.0236
   56MOL   H34219152   3.015   5.908   6.955 -1.8788  0.0062  0.1257
   57MOL     C119153   2.242   4.550   6.578  0.2131  0.1700 -0.0116
   57MOL     C219154   2.255   4.402   6.598  0.4318 -0.5873 -0.0171
   57MOL     N319155   2.156   4.322   6.516  0.2677 -0.0439 -0.3025
   57MOL     C419156   2.041   4.261   6.574  0.5461  0.2880 -0.7446
   57MOL     C519157   1.965   4.180   6.469 -0.2645  0.0661 -0.1862
   57MOL     C619158   2.036   4.218   6.336  0.9803  0.5927 -0.3191
   57MOL     C719159   2.150   4.309   6.379 -0.1002 -0.0947  0.3497
   57MOL     O819160   2.236   4.353   6.302 -0.0700 -0.3520 -0.5628
   57MOL     H919161   2.300   4.621   6.638  0.0194  0.5178 -0.2396
   57MOL    H1019162   2.259   4.566   6.472 -1.2399 -0.5842 -0.3625
   57MOL    H1119163   2.226   4.375   6.700 -0.4489  1.4775  0.2982
   57MOL    H1219164   2.087   4.209   6.658  0.2271 -1.2860 -1.5323
   57MOL    H1319165   1.965   4.329   6.613  0.8851 -0.1351  0.7094
   57MOL    H1419166   1.978   4.075   6.495 -0.6299  0.4302  1.5779
   57MOL    H1519167   1.858   4.197   6.457 -0.0532  1.8067  0.3047
   57MOL    H1619168   2.063   4.125   6.286  1.5154 -0.9267  2.7001
   57MOL    H1719169   1.964   4.275   6.276 -0.9022 -2.7432 -1.3830
   57MOL    H1819170   2.142   4.582   6.607 -0.6758 -2.7477  0.3202
   57MOL    C1919171   2.403   4.358   6.574 -0.0827  0.0099  0.3305
   57MOL    C2019172   2.509   4.396   6.679  0.5079 -0.0653  0.0260
   57MOL    N2119173   2.479   4.363   6.820 -0.0595 -0.6549  0.3314
   57MOL    C2219174   2.449   4.470   6.917  0.2244 -0.8821 -0.2537
   57MOL    C2319175   2.443   4.399   7.050  0.5339 -0.2492 -0.3050
   57MOL    C2419176   2.470   4.256   7.025 -0.7703  0.2682 -0.6118
   57MOL    C2519177   2.467   4.242   6.875  0.2648  0.3213 -0.3320
   57MOL    O2619178   2.454   4.137   6.814  0.4484 -0.3211 -0.5595
   57MOL    H2719179   2.440   4.398   6.480 -1.5068  2.5537  0.8023
   57MOL    H2819180   2.405   4.249   6.562  0.8242 -0.1649  1.9294
   57MOL    H2919181   2.521   4.504   6.678 -0.6748  0.1644  3.6429
   57MOL    H3019182   2.534   4.538   6.916 -1.4064  1.2125 -0.1347
   57MOL    H3119183   2.354   4.523   6.904  0.1793 -0.6732  0.8937
   57MOL    H3219184   2.527   4.436   7.108 -0.2269 -0.1420  0.7440
   57MOL    H3319185   2.347   4.423   7.095  1.6562  5.5788 -0.5856
   57MOL    H3419186   2.560   4.212   7.067 -0.3550  0.5340 -1.2127
   57MOL    H3519187   2.380   4.203   7.058 -1.2473  0.5934 -1.3643
   57MOL    C3619188   2.648   4.344   6.645 -0.2956 -0.0308 -0.3296
   57MOL    C3719189   2.720   4.405   6.520  0.1237  0.7092 -0.3786
   57MOL    N3819190   2.777   4.536   6.537 -0.0199 -0.0718 -0.0026
   57MOL    C3919191   2.706   4.655   6.486  0.1774 -0.6596 -0.5932
   57MOL    C4019192   2.805   4.769   6.504  0.3211  0.9610  0.9173
   57MOL    C4119193   2.894   4.724   6.628 -0.1259 -0.1107 -0.4041
   57MOL    C4219194   2.874   4.574   6.626  0.9828  0.4614  0.1569
   57MOL    O4319195   2.950   4.503   6.698  0.0568  0.5059  0.3051
   57MOL    H4419196   2.645   4.235   6.644 -0.4958 -0.0221 -1.2909
   57MOL    H4519197   2.712   4.369   6.729 -0.3546  1.4316 -0.7043
   57MOL    H4619198   2.648   4.412   6.438 -0.9815  1.2274  0.6110
   57MOL    H4719199   2.694   4.643   6.378 -2.6347 -2.1827 -0.1786
   57MOL    H4819200   2.608   4.672   6.530  0.7046 -0.6546  0.5788
   57MOL    H4919201   2.871   4.771   6.417  1.0083 -4.2898  1.1044
   57MOL    H5019202   2.766   4.870   6.502  0.6266  1.0754  0.6396
   57MOL    H5119203   3.001   4.743   6.617  0.3316 -2.6998 -0.7250
   57MOL    H5219204   2.859   4.777   6.717  0.7900 -1.4576  0.7873
   57MOL    C5319205   2.833   4.308   6.468 -0.1478 -0.5576 -0.0362
   57MOL    C5419206   2.784   4.168   6.413 -0.9590  1.1953  0.3760
   57MOL    N5519207   2.712   4.183   6.285 -0.6271 -0.3098  0.3294
   57MOL    C5619208   2.566   4.177   6.283 -0.1412  0.3980  0.4498
   57MOL    C5719209   2.521   4.234   6.144 -0.2008  0.3276  0.0818
   57MOL    C5819210   2.649   4.260   6.074  0.6710 -0.3090 -0.3085
   57MOL    C5919211   2.757   4.240   6.171  0.3108  0.4585 -0.3338
   57MOL    O6019212   2.871   4.287   6.144 -0.2459 -0.3234 -0.7526
   57MOL    H6119213   2.904   4.291   6.549  1.6715 -2.8052 -2.0510
   57MOL    H6219214   2.903   4.362   6.404  0.5947  1.2462  2.2458
   57MOL    H6319215   2.717   4.118   6.484 -2.0103  1.2936 -0.5253
   57MOL    H6419216   2.555   4.069   6.290  1.7437  0.2494  1.3793
   57MOL    H6519217   2.511   4.231   6.361 -0.2761  1.1834 -0.1853
   57MOL    H6619218   2.455   4.163   6.094 -0.6372  0.3749  0.5881
   57MOL    H6719219   2.477   4.333   6.140 -1.8658 -0.3051  1.9151
   57MOL    H6819220   2.662   4.197   5.986  2.6785 -0.0237 -0.2459
   57MOL    H6919221   2.660   4.359   6.031  0.0579 -1.4038 -3.0956
   57MOL    C7019222   2.897   4.072   6.391 -0.0427 -0.1969  0.4734
   57MOL    C7119223   2.953   4.005   6.520 -0.1919  0.1377  0.2413
   57MOL    N7219224   2.863   3.907   6.587 -0.3110 -0.2070  0.1323
   57MOL    C7319225   2.777   3.950   6.701  0.4040 -0.9071 -0.0611
   57MOL    C7419226   2.734   3.820   6.772  0.5815  0.4631 -0.1078
   57MOL    C7519227   2.755   3.712   6.665 -0.2076  0.7902 -0.3687
   57MOL    C7619228   2.852   3.780   6.566 -0.3866  0.4982 -0.2706
   57MOL    O7719229   2.897   3.718   6.472 -0.6513  0.3191 -1.1350
   57MOL    H7819230   2.974   4.135   6.347 -0.0340  2.0847  3.5684
   57MOL    H7919231   2.863   3.993   6.324 -1.3656  0.0615  0.8227
   57MOL    H8019232   2.970   4.084   6.593  1.0552 -2.2699  2.6268
   57MOL    H8119233   2.821   4.031   6.759  0.7135 -2.4387  1.8544
   57MOL    H8219234   2.681   3.997   6.680  0.1801 -1.1449  0.4531
   57MOL    H8319235   2.800   3.800   6.856  0.0046 -0.0628  0.2256
   57MOL    H8419236   2.632   3.820   6.811 -0.0327  0.8280 -1.6810
   57MOL    H8519237   2.800   3.620   6.701 -1.1033 -0.5678 -2.5983
   57MOL    H8619238   2.662   3.687   6.615 -0.9199  0.7668  0.9396
   57MOL    C8719239   3.098   3.949   6.490 -0.1832  0.5368  0.2922
   57MOL    C8819240   3.209   4.048   6.475  0.4401 -0.5069  0.4097
   57MOL    N8919241   3.235   4.111   6.603  0.1941  0.6700  0.2782
   57MOL    C9019242   3.227   4.257   6.618 -0.1386  0.0120 -0.6892
   57MOL    C9119243   3.238   4.274   6.768 -0.1538 -0.7247 -0.7044
   57MOL    C9219244   3.331   4.166   6.814  0.2084 -0.0692  0.3877
   57MOL    C9319245   3.301   4.061   6.709  0.6974  0.4390 -0.3001
   57MOL    O9419246   3.346   3.948   6.715 -0.0163  0.1950  0.5411
   57MOL    H9519247   3.101   3.876   6.408  2.1586  1.5037 -0.5200
   57MOL    H9619248   3.120   3.882   6.573  1.3250 -0.9900 -1.2687
   57MOL    H9719249   3.184   4.135   6.414  0.8927  0.0358  0.9955
   57MOL    H9819250   3.313   4.300   6.567  2.0900 -3.1102  0.2946
   57MOL    H9919251   3.132   4.301   6.588 -0.5790 -0.1883  0.3961
   57MOL   H10019252   3.270   4.372   6.802  0.4765 -1.2638  0.2705
   57MOL   H10119253   3.136   4.265   6.804  0.5233  0.7598  1.6343
   57MOL   H10219254   3.437   4.190   6.804 -0.1127  0.4043 -2.5311
   57MOL   H10319255   3.298   4.135   6.913 -2.1530 -0.7674 -0.5715
   57MOL   C10419256   3.343   3.988   6.413 -0.6337  0.8446 -0.1474
   57MOL   C10519257   3.343   3.946   6.267  0.3281  0.3433  0.3060
   57MOL   N10619258   3.295   4.051   6.174  0.1059  0.0981 -0.6460
   57MOL   C10719259   3.168   4.019   6.096 -0.1116 -0.5123  0.7100
   57MOL   C10819260   3.153   4.142   5.999  0.5368 -0.3580 -0.2592
   57MOL   C10919261   3.252   4.240   6.050 -0.0696 -0.0767 -0.1469
   57MOL   C11019262   3.345   4.170   6.147 -0.0979  0.3355  0.2574
   57MOL   O11119263   3.453   4.215   6.190 -0.4060 -0.0873 -0.2439
   57MOL   H11219264   3.371   3.898   6.466  2.1803  1.0977 -1.1342
   57MOL   H11319265   3.424   4.060   6.425  0.2763 -0.2306  0.1654
   57MOL   H11419266   3.274   3.861   6.265 -0.4675  0.9761  0.5990
   57MOL   H11519267   3.174   3.926   6.040  0.8899  0.0730 -0.1657
   57MOL   H11619268   3.083   4.014   6.165 -1.0313  1.6894 -0.2090
   57MOL   H11719269   3.169   4.105   5.898 -1.9868  0.7777 -1.1166
   57MOL   H11819270   3.053   4.185   5.995  2.1218  3.4726 -0.8839
   57MOL   H11919271   3.200   4.319   6.104 -1.6150 -1.8081  0.9682
   57MOL   H12019272   3.316   4.291   5.978 -0.8723 -0.8809 -1.4373
   57MOL   C12119273   3.485   3.890   6.229 -0.1728 -0.3612 -0.3819
   57MOL   C12219274   3.510   3.838   6.083 -0.5885 -0.0531 -0.2080
   57MOL   N12319275   3.651   3.842   6.052 -0.4666  0.2562  0.5591
   57MOL   C12419276   3.695   3.948   5.964  0.2845  0.0269 -0.0980
   57MOL   C12519277   3.849   3.917   5.953  1.4301  0.0094  0.2369
   57MOL   C12619278   3.880   3.826   6.065 -0.3792 -0.0855  0.2047
   57MOL   C12719279   3.744   3.771   6.109 -0.2176 -0.9729  0.6025
   57MOL   O12819280   3.726   3.673   6.177 -0.3128  0.4245 -0.0176
   57MOL   H12919281   3.526   3.824   6.306  1.9858  0.0719 -1.1257
   57MOL   H13019282   3.558   3.970   6.238  1.3469 -1.6607 -1.0250
   57MOL   H13119283   3.462   3.900   6.008  2.6320  1.0113 -1.5026
   57MOL   H13219284   3.669   4.039   6.018 -0.6283 -0.1314 -0.2719
   57MOL   H13319285   3.635   3.953   5.873  1.2609 -0.2433 -0.7738
   57MOL   H13419286   3.867   3.874   5.855 -1.3867  0.3553 -0.4863
   57MOL   H13519287   3.892   4.017   5.964 -2.1465  2.0649 -2.9727
   57MOL   H13619288   3.937   3.744   6.022 -1.1637 -1.5636  1.9445
   57MOL   H13719289   3.938   3.865   6.149  0.7666  0.6269 -0.8849
   57MOL   C13819290   3.449   3.699   6.058 -0.2322  0.0604  0.2102
   57MOL   C13919291   3.339   3.679   5.948  0.5524  0.2999 -0.2745
   57MOL   N14019292   3.386   3.728   5.818 -0.3867 -0.3690 -0.2083
   57MOL   C14119293   3.311   3.834   5.750 -0.3306  0.9162 -1.1001
   57MOL   C14219294   3.365   3.824   5.604  0.5237  0.3204 -0.5636
   57MOL   C14319295   3.476   3.724   5.601  0.7998 -1.0549  0.0201
   57MOL   C14419296   3.468   3.665   5.736 -0.5630  0.5529 -0.0605
   57MOL   O14519297   3.541   3.573   5.762 -0.0327  0.2664 -1.3827
   57MOL   H14619298   3.401   3.659   6.147  1.5663 -2.8449 -0.0652
   57MOL   H14719299   3.520   3.621   6.031 -0.4275 -0.4624  1.2060
   57MOL   H14819300   3.263   3.751   5.978  0.8722  0.7377 -0.5148
   57MOL   H14919301   3.206   3.803   5.745 -0.4017  0.1389  3.2012
   57MOL   H15019302   3.328   3.925   5.806 -0.7404 -0.0988  0.7377
   57MOL   H15119303   3.287   3.785   5.539  0.6259  0.0484 -0.5213
   57MOL   H15219304   3.387   3.926   5.573 -0.9194  0.8118 -0.0419
   57MOL   H15319305   3.573   3.773   5.601 -0.0184  0.5752 -0.6284
   57MOL   H15419306   3.477   3.654   5.517 -0.1908  1.9386 -2.5752
   57MOL   C15519307   3.279   3.544   5.938  0.7877 -1.6233  0.2815
   57MOL   C15619308   3.148   3.540   5.856 -0.0755 -0.6007  0.0182
   57MOL   N15719309   3.125   3.401   5.818 -0.3750 -0.2411 -0.5918
   57MOL   C15819310   3.171   3.365   5.682 -0.5208  0.0113 -0.0701
   57MOL   C15919311   3.137   3.219   5.667 -0.4903  0.1219  0.6244
   57MOL   C16019312   3.063   3.178   5.791 -0.4575  0.2478 -0.0369
   57MOL   C16119313   3.071   3.298   5.882 -0.2172 -0.2674 -0.0680
   57MOL   O16219314   3.017   3.296   5.998  0.4797  0.4867 -0.1271
   57MOL   H16319315   3.251   3.523   6.041  0.1137  2.7786  1.0924
   57MOL   H16419316   3.358   3.473   5.911  1.6032 -1.1238  1.3318
   57MOL   H16519317   3.155   3.590   5.760  1.6726 -0.7095  0.0707
   57MOL   H16619318   3.107   3.417   5.611 -2.2160 -2.2001 -0.2225
   57MOL   H16719319   3.275   3.396   5.671 -0.3180 -0.6714 -0.1015
   57MOL   H16819320   3.076   3.199   5.579 -2.1646  2.2178  1.2587
   57MOL   H16919321   3.232   3.167   5.678 -0.8826 -0.3269  2.0056
   57MOL   H17019322   2.963   3.139   5.773 -0.3936 -0.1807  0.5332
   57MOL   H17119323   3.120   3.097   5.838 -0.1974  0.3132 -0.2369
   57MOL   C17219324   3.033   3.619   5.917  0.4918  0.0717 -0.0312
   57MOL   C17319325   2.888   3.591   5.862  0.3554  0.2774 -0.1342
   57MOL   N17419326   2.800   3.667   5.950 -0.4128  0.2978 -0.0121
   57MOL   C17519327   2.698   3.598   6.030  0.2262  0.1637  0.7104
   57MOL   C17619328   2.642   3.711   6.115 -0.0173  0.2161  0.3999
   57MOL   C17719329   2.691   3.843   6.057 -0.1471  0.3897  0.3064
   57MOL   C17819330   2.801   3.804   5.967 -1.0899  0.0643 -0.9780
   57MOL   O17919331   2.871   3.894   5.914  0.1857  0.5377  0.2000
   57MOL   H18019332   3.059   3.722   5.898  1.1577  0.2009  1.4718
   57MOL   H18119333   3.034   3.605   6.026 -1.0744  0.5208  0.0564
   57MOL   H18219334   2.871   3.487   5.891  0.4681 -0.0658 -1.2988
   57MOL   H18319335   2.627   3.557   5.958 -2.4084  2.3856  1.9148
   57MOL   H18419336   2.754   3.520   6.080  0.7560  1.4706  2.1809
   57MOL   H18519337   2.677   3.708   6.218 -3.0444  0.9357  1.4791
   57MOL   H18619338   2.534   3.722   6.115 -0.0378  0.2260 -1.9010
   57MOL   H18719339   2.617   3.898   5.999 -0.0705  0.5355  0.3453
   57MOL   H18819340   2.718   3.904   6.144 -2.0912  1.5581  0.1160
   57MOL   C18919341   2.876   3.609   5.709 -0.3034 -0.3749 -0.1747
   57MOL   C19019342   2.738   3.547   5.662  0.8951  0.0545 -0.0178
   57MOL   N19119343   2.690   3.610   5.534 -0.5919 -0.4917 -0.2875
   57MOL   C19219344   2.563   3.681   5.543 -0.1349  0.6030  0.4227
   57MOL   C19319345   2.539   3.741   5.400 -0.0757  0.3852  0.3589
   57MOL   C19419346   2.665   3.716   5.320 -0.3251 -0.1630 -0.4423
   57MOL   C19519347   2.755   3.637   5.421  0.5812  0.0662  0.2174
   57MOL   O19619348   2.866   3.599   5.383  0.4888  0.1862 -0.1748
   57MOL   H19719349   2.961   3.575   5.649 -0.8835 -0.2414 -1.0754
   57MOL   H19819350   2.877   3.716   5.687  1.9099 -0.5071 -0.8486
   57MOL   H19919351   2.659   3.561   5.735  0.0312 -2.0925 -0.4794
   57MOL   H20019352   2.490   3.613   5.588  1.2492 -0.3909  1.1797
   57MOL   H20119353   2.582   3.762   5.613  0.3033  0.7118  0.1751
   57MOL   H20219354   2.463   3.675   5.358 -1.8728  1.3230  2.0600
   57MOL   H20319355   2.509   3.846   5.397  1.7332  1.0229  3.0009
   57MOL   H20419356   2.657   3.645   5.238  0.1612 -0.8731  0.1237
   57MOL   H20519357   2.705   3.808   5.278 -0.1033  0.0985  0.3250
   57MOL   C20619358   2.756   3.388   5.642 -0.3957  0.1515 -0.0091
   57MOL   C20719359   2.636   3.313   5.579  0.6111  0.0850  0.1126
   57MOL   N20819360   2.648   3.311   5.432 -0.2865  0.3342 -0.1913
   57MOL   C20919361   2.768   3.278   5.360  0.0164 -0.2092  0.0779
   57MOL   C21019362   2.735   3.280   5.214  0.3381  0.4890  0.0490
   57MOL   C21119363   2.591   3.334   5.206 -1.2019 -0.1111 -0.0766
   57MOL   C21219364   2.546   3.342   5.348  0.4201 -0.3652  0.3370
   57MOL   O21319365   2.426   3.360   5.376  0.0620 -0.0953 -0.1827
   57MOL   H21419366   2.751   3.357   5.747  1.0496 -1.5847 -0.4339
   57MOL   H21519367   2.854   3.357   5.608 -0.8508 -2.6073  1.0272
   57MOL   H21619368   2.542   3.367   5.594  1.0271  1.1504 -1.0513
   57MOL   H21719369   2.848   3.351   5.372  0.5361 -0.8749  0.7297
   57MOL   H21819370   2.816   3.183   5.384 -0.4179 -0.6388 -0.7688
   57MOL   H21919371   2.811   3.330   5.153  0.1963 -0.3225 -0.7931
   57MOL   H22019372   2.738   3.178   5.178 -0.3444  0.7325 -0.6966
   57MOL   H22119373   2.603   3.437   5.172  1.4369  0.0927  1.3068
   57MOL   H22219374   2.519   3.285   5.140 -1.4720 -2.2729  1.7610
   57MOL   C22319375   2.628   3.164   5.619  0.6504  1.0631 -0.0899
   57MOL   C22419376   2.549   3.128   5.742 -0.6391 -0.0504  0.6720
   57MOL   N22519377   2.410   3.177   5.735  0.1688  0.1737  0.4094
   57MOL   C22619378   2.315   3.137   5.635  0.1181  0.1288 -0.1542
   57MOL   C22719379   2.197   3.217   5.656  0.6727 -0.1014 -0.1880
   57MOL   C22819380   2.219   3.307   5.776 -0.0497 -0.5786 -0.8538
   57MOL   C22919381   2.360   3.267   5.822  0.1860  0.6114  0.0166
   57MOL   O23019382   2.417   3.324   5.921 -0.6009 -0.2010 -0.3890
   57MOL   H23119383   2.731   3.129   5.623  0.6553  1.0427 -0.3873
   57MOL   H23219384   2.581   3.107   5.539 -0.7420  1.2106  0.6119
   57MOL   H23319385   2.596   3.183   5.824 -1.6383  0.0933  1.1503
   57MOL   H23419386   2.346   3.143   5.531  1.7460  1.4993  0.3939
   57MOL   H23519387   2.305   3.032   5.664  1.4231 -0.1797 -0.7759
   57MOL   H23619388   2.178   3.282   5.571 -0.7529 -0.7338 -0.3693
   57MOL   H23719389   2.107   3.158   5.672  1.0200 -1.5399 -3.1675
   57MOL   H23819390   2.217   3.409   5.737  0.8017  0.1083  0.8581
   57MOL   H23919391   2.140   3.282   5.847  0.5627 -2.2040 -0.7385
   57MOL   C24019392   2.547   2.978   5.780 -0.0258 -0.3139  0.1514
   57MOL   C24119393   2.674   2.927   5.845  0.7038 -0.9558 -0.0798
   57MOL   N24219394   2.694   2.990   5.978 -0.0686  0.1254 -0.7657
   57MOL   C24319395   2.799   3.090   6.003  0.5408  0.6017 -0.1440
   57MOL   C24419396   2.790   3.128   6.153  0.3794  0.3449  0.5944
   57MOL   C24519397   2.674   3.035   6.203 -0.5871  1.0300 -0.3850
   57MOL   C24619398   2.622   2.971   6.084  0.0654 -0.0550  0.4147
   57MOL   O24719399   2.520   2.911   6.085  0.3377  0.0806 -0.1744
   57MOL   H24819400   2.531   2.917   5.691  0.1984 -1.1010  0.6410
   57MOL   H24919401   2.458   2.957   5.840 -0.6608  2.1878  0.1205
   57MOL   H25019402   2.764   2.961   5.794  0.5896  1.2011  1.0648
   57MOL   H25119403   2.897   3.054   5.973 -0.0212 -0.4991 -0.7007
   57MOL   H25219404   2.778   3.172   5.935  2.6345 -0.0832 -1.6613
   57MOL   H25319405   2.881   3.099   6.205  0.2161 -3.0026 -0.8136
   57MOL   H25419406   2.775   3.234   6.173  0.9295  1.1775 -3.1419
   57MOL   H25519407   2.710   2.951   6.262 -1.2915  0.7200 -0.3984
   57MOL   H25619408   2.596   3.090   6.257  0.0979  0.4476  1.2166
   57MOL   C25719409   2.673   2.776   5.858 -0.4585 -0.1714 -0.8043
   57MOL   C25819410   2.761   2.717   5.745  0.4077 -0.2782  0.6399
   57MOL   N25919411   2.754   2.569   5.748  0.9267 -0.4419 -0.1161
   57MOL   C26019412   2.845   2.494   5.841  0.1706 -0.1807 -0.2225
   57MOL   C26119413   2.813   2.348   5.824 -0.5344  0.7304  0.0964
   57MOL   C26219414   2.685   2.334   5.730 -0.3161  0.0864 -0.3778
   57MOL   C26319415   2.662   2.485   5.695 -0.2075  0.9351  0.0373
   57MOL   O26419416   2.578   2.516   5.616  0.4146  0.5674  0.7541
   57MOL   H26519417   2.577   2.726   5.864 -0.4705 -0.0400  0.2292
   57MOL   H26619418   2.732   2.751   5.946  2.0881  2.9816 -1.5176
   57MOL   H26719419   2.866   2.741   5.760  0.9138  0.6048 -3.7247
   57MOL   H26819420   2.946   2.524   5.811  0.4478  1.0577  1.8209
   57MOL   H26919421   2.822   2.534   5.939  1.6530  0.9074 -0.2928
   57MOL   H27019422   2.892   2.292   5.772 -2.4597  0.1093 -2.2547
   57MOL   H27119423   2.788   2.303   5.919  0.8776 -1.2737 -0.4428
   57MOL   H27219424   2.706   2.281   5.637 -1.9478  0.9221 -1.2433
   57MOL   H27319425   2.607   2.280   5.784 -0.9078  2.3809  1.1424
   57MOL   C27419426   2.724   2.767   5.593  0.2588 -0.7024  0.6553
   57MOL   C27519427   2.815   2.709   5.483 -0.1887  0.1652 -0.7364
   57MOL   N27619428   2.753   2.714   5.351  0.0257 -0.4408  0.5350
   57MOL   C27719429   2.733   2.587   5.293 -0.0979 -0.5023 -0.7654
   57MOL   C27819430   2.662   2.609   5.161  0.2793 -0.1386 -0.3120
   57MOL   C27919431   2.638   2.762   5.148 -0.7487 -0.0263  0.3798
   57MOL   C28019432   2.711   2.818   5.276  0.6121  0.2396  0.3585
   57MOL   O28119433   2.704   2.939   5.308  0.6220  0.0209  0.4909
   57MOL   H28219434   2.718   2.875   5.583  1.2172 -0.8468 -1.8307
   57MOL   H28319435   2.621   2.744   5.565 -0.1713  3.3412 -1.4698
   57MOL   H28419436   2.833   2.605   5.509  0.6536  1.0729  2.4570
   57MOL   H28519437   2.832   2.542   5.283 -0.1821 -0.4350 -2.0056
   57MOL   H28619438   2.666   2.517   5.343  1.1914 -1.1876  0.0363
   57MOL   H28719439   2.732   2.571   5.086  0.1353  0.9196 -0.9867
   57MOL   H28819440   2.571   2.550   5.146 -0.2161  0.9574 -1.7491
   57MOL   H28919441   2.681   2.805   5.058 -1.8931  0.4869  0.0823
   57MOL   H29019442   2.535   2.795   5.154 -1.0296 -1.1097  2.1429
   57MOL   C29119443   2.952   2.785   5.484  0.5226  0.6469  0.0624
   57MOL   C29219444   3.069   2.713   5.408 -0.5853 -0.5916 -0.3763
   57MOL   N29319445   3.183   2.808   5.405 -0.0343 -0.3673  0.3211
   57MOL   C29419446   3.189   2.897   5.290 -0.2116  0.2177  1.1134
   57MOL   C29519447   3.304   3.001   5.313 -0.0629  0.8758 -0.0172
   57MOL   C29619448   3.355   2.968   5.450  0.5078  0.2056  0.3107
   57MOL   C29719449   3.272   2.853   5.500  0.2838  0.1019  0.6909
   57MOL   O29819450   3.281   2.815   5.616 -0.2994 -0.2887  0.1064
   57MOL   H29919451   2.982   2.792   5.589 -0.2241 -0.7699  0.3856
   57MOL   H30019452   2.952   2.888   5.451  1.4878  0.9556  0.9769
   57MOL   H30119453   3.031   2.685   5.310  0.0833 -2.5114 -0.1029
   57MOL   H30219454   3.209   2.840   5.200 -0.4153  0.4293  0.9340
   57MOL   H30319455   3.095   2.950   5.271  0.0214  0.5662  0.9472
   57MOL   H30419456   3.362   3.001   5.221 -1.3411  0.7822 -0.8296
   57MOL   H30519457   3.252   3.096   5.307  1.2848  1.7854  1.9160
   57MOL   H30619458   3.461   2.944   5.442  0.5076  0.3202 -0.0557
   57MOL   H30719459   3.345   3.044   5.528 -0.9009 -0.2878  0.6301
   57MOL   C30819460   3.107   2.574   5.465  0.1246 -0.3374  0.0658
   57MOL   C30919461   3.243   2.518   5.421 -0.3627 -0.1766  0.1108
   57MOL   N31019462   3.277   2.394   5.497  0.4077  0.1590  1.0317
   57MOL   C31119463   3.385   2.410   5.600 -0.6377  0.2553 -0.6215
   57MOL   C31219464   3.423   2.269   5.641 -0.9665 -0.7133 -0.2770
   57MOL   C31319465   3.312   2.175   5.582  0.2593 -0.3942  0.5996
   57MOL   C31419466   3.235   2.269   5.483 -0.2427  0.3303  0.0875
   57MOL   O31519467   3.154   2.217   5.401 -0.0898  0.5075 -0.2012
   57MOL   H31619468   3.031   2.504   5.430 -0.5554  0.4074  0.0379
   57MOL   H31719469   3.097   2.569   5.573  0.5290 -0.6702  0.0905
   57MOL   H31819470   3.315   2.590   5.460 -1.4791  0.9546  0.1203
   57MOL   H31919471   3.469   2.466   5.559 -1.4218  0.8453 -1.4204
   57MOL   H32019472   3.350   2.477   5.678  0.8093  0.3169 -0.0141
   57MOL   H32119473   3.523   2.240   5.609 -2.0796 -2.7303 -2.1098
   57MOL   H32219474   3.428   2.274   5.750  0.4824  2.5666 -0.4445
   57MOL   H32319475   3.352   2.090   5.528 -0.8982 -0.1018 -0.7566
   57MOL   H32419476   3.247   2.135   5.660 -1.3384  0.2536 -0.3806
   57MOL   C32519477   3.257   2.505   5.266 -0.4021 -0.0236  0.3709
   57MOL   C32619478   3.410   2.493   5.234  0.1294 -0.7843 -0.2810
   57MOL   N32719479   3.447   2.479   5.097 -0.6783 -0.1041  0.4292
   57MOL   C32819480   3.487   2.348   5.043  0.4230 -0.2271  0.0714
   57MOL   C32919481   3.553   2.395   4.909 -0.6831 -0.4322 -0.2155
   57MOL   C33019482   3.510   2.543   4.877  0.5714 -0.9292 -0.1931
   57MOL   C33119483   3.455   2.580   5.011  0.0229 -0.0735 -0.3133
   57MOL   O33219484   3.413   2.696   5.041 -0.2270  0.3235 -0.1320
   57MOL   H33319485   3.220   2.597   5.220 -0.8669 -1.1430 -1.5630
   57MOL   H33419486   3.212   2.417   5.218  3.1156 -2.1330  0.7908
   57MOL   H33519487   3.451   2.407   5.288 -0.7291 -1.8714 -1.3382
   57MOL   H33619488   3.555   2.303   5.115  1.7811  0.6955 -0.6234
   57MOL   H33719489   3.399   2.287   5.023  1.5864 -1.9196  0.0298
   57MOL   H33819490   3.662   2.393   4.913 -0.6139 -0.6613 -1.8661
   57MOL   H33919491   3.519   2.324   4.833 -0.7388  0.9079 -1.4771
   57MOL   H34019492   3.595   2.606   4.852  0.1205 -0.1424  0.2483
   57MOL   H34119493   3.441   2.551   4.793  0.4761 -0.9601 -0.1179
   57MOL   H34219494   3.464   2.580   5.271 -1.1913 -0.0637 -0.0402
   58MOL     C119495   1.364   6.032   0.499  0.4938  0.5323  0.1016
   58MOL     C219496   1.356   5.923   0.612 -0.4252 -0.1449  0.1003
   58MOL     N319497   1.347   5.787   0.560  0.1289  0.0866  0.2878
   58MOL     C419498   1.248   5.685   0.597  0.1330 -0.1722 -0.2792
   58MOL     C519499   1.283   5.555   0.527  0.2702 -1.2178 -0.2571
   58MOL     C619500   1.408   5.581   0.444  0.0069  0.0699 -0.8693
   58MOL     C719501   1.435   5.733   0.472 -0.1181 -0.6900  0.4227
   58MOL     O819502   1.531   5.799   0.420  0.1907 -0.4814  0.2583
   58MOL     H919503   1.327   6.128   0.532 -0.3043  0.4426 -0.5143
   58MOL    H1019504   1.464   6.049   0.458 -0.1643  0.3713 -1.6279
   58MOL    H1119505   1.265   5.944   0.668  0.2838  1.1679  0.7897
   58MOL    H1219506   1.254   5.659   0.703  1.7865  0.3423 -0.2345
   58MOL    H1319507   1.148   5.721   0.574  0.0711  0.5721  1.0917
   58MOL    H1419508   1.289   5.459   0.579 -0.5059 -2.3708 -2.2314
   58MOL    H1519509   1.207   5.538   0.450  0.0136 -0.4456 -0.1771
   58MOL    H1619510   1.490   5.522   0.484  0.8991  1.9908  0.2106
   58MOL    H1719511   1.386   5.569   0.338 -0.8990  2.2067 -0.9527
   58MOL    H1819512   1.296   6.007   0.417  1.6064  0.0027 -0.6900
   58MOL    C1919513   1.471   5.948   0.716 -0.5842  0.0331 -0.0128
   58MOL    C2019514   1.482   6.088   0.779  1.1473 -0.9061 -0.1601
   58MOL    N2119515   1.347   6.129   0.834  0.0861 -0.2717  0.8428
   58MOL    C2219516   1.269   6.250   0.791 -0.1438  0.1632  0.5065
   58MOL    C2319517   1.165   6.266   0.901 -0.2515 -0.4222 -0.1425
   58MOL    C2419518   1.187   6.164   1.005  0.0450 -0.8860  0.5419
   58MOL    C2519519   1.295   6.079   0.949  0.9389 -0.5784  0.1408
   58MOL    O2619520   1.339   5.977   1.004 -0.0692  0.4044  0.1186
   58MOL    H2719521   1.563   5.914   0.668 -0.9782  2.4960 -2.7216
   58MOL    H2819522   1.457   5.874   0.794  0.0123 -0.4915 -0.3976
   58MOL    H2919523   1.486   6.164   0.701 -1.6136  0.4078  0.8816
   58MOL    H3019524   1.324   6.344   0.788  0.1509 -0.0314 -0.3489
   58MOL    H3119525   1.223   6.230   0.694  1.6941 -1.2758 -0.0858
   58MOL    H3219526   1.187   6.364   0.943 -0.6021  0.1720 -1.3193
   58MOL    H3319527   1.063   6.276   0.864 -0.6662 -0.0978  1.0382
   58MOL    H3419528   1.224   6.201   1.101 -0.6191 -2.1851  1.3228
   58MOL    H3519529   1.094   6.115   1.033 -1.5975  2.2239  0.7841
   58MOL    C3619530   1.600   6.086   0.885  0.0954 -0.4100  0.7477
   58MOL    C3719531   1.738   6.082   0.811 -1.0783  0.5762 -0.3240
   58MOL    N3819532   1.764   6.198   0.717 -0.2050 -0.1665 -0.6155
   58MOL    C3919533   1.836   6.169   0.594  0.7745 -0.0985 -0.7379
   58MOL    C4019534   1.856   6.304   0.526 -0.4940  0.2165  0.0960
   58MOL    C4119535   1.828   6.413   0.631  0.3941  0.3125 -0.5936
   58MOL    C4219536   1.773   6.330   0.753 -0.6862 -0.0959 -0.6467
   58MOL    O4319537   1.745   6.380   0.862 -0.1923  0.0358  0.2703
   58MOL    H4419538   1.604   5.994   0.943  1.8733 -1.6519 -1.2646
   58MOL    H4519539   1.600   6.165   0.960  2.2380  1.7627 -1.4396
   58MOL    H4619540   1.743   6.000   0.739  2.5482  0.9197 -0.5366
   58MOL    H4719541   1.929   6.128   0.632  0.4558 -0.0237  0.1345
   58MOL    H4819542   1.778   6.100   0.532  1.7879 -0.1423 -1.6500
   58MOL    H4919543   1.956   6.311   0.482 -0.2346 -0.8710  0.5001
   58MOL    H5019544   1.787   6.313   0.442  0.7378 -0.3557 -1.0163
   58MOL    H5119545   1.916   6.475   0.651  0.1227 -0.1128  2.0806
   58MOL    H5219546   1.755   6.482   0.589  0.8267  0.0593 -1.7788
   58MOL    C5319547   1.859   6.075   0.911  0.7109  0.1141 -0.3400
   58MOL    C5419548   1.870   5.940   0.985  0.1303  0.5819 -0.5243
   58MOL    N5519549   1.854   5.821   0.896  1.3141  0.6801 -0.3430
   58MOL    C5619550   1.737   5.728   0.916 -0.6918  0.2469  0.4994
   58MOL    C5719551   1.757   5.631   0.795 -0.1104  0.2610  0.5649
   58MOL    C5819552   1.865   5.685   0.702 -0.2433 -0.2321 -0.1859
   58MOL    C5919553   1.929   5.798   0.785 -0.2836 -0.1461 -0.1797
   58MOL    O6019554   2.019   5.868   0.750 -0.4835  0.4026 -0.3697
   58MOL    H6119555   1.851   6.151   0.988 -2.2448  0.5310 -0.9914
   58MOL    H6219556   1.954   6.084   0.858  0.5399  0.3106 -0.6176
   58MOL    H6319557   1.782   5.945   1.050 -0.1026  0.3352 -0.8213
   58MOL    H6419558   1.735   5.670   1.009  0.9996 -3.2302 -1.5143
   58MOL    H6519559   1.643   5.782   0.907  0.1154  1.6395  0.2655
   58MOL    H6619560   1.807   5.544   0.839  0.1650  0.5617  0.8494
   58MOL    H6719561   1.664   5.610   0.742  0.9625  1.6230 -1.9165
   58MOL    H6819562   1.946   5.617   0.674  2.2203  2.7340 -0.4726
   58MOL    H6919563   1.825   5.732   0.613  0.4269  0.4203 -0.1497
   58MOL    C7019564   1.982   5.908   1.086  0.0218 -0.5255 -1.1713
   58MOL    C7119565   2.127   5.917   1.045  0.0355 -0.1157  0.6471
   58MOL    N7219566   2.169   6.058   1.020 -0.5402 -0.4564  0.0148
   58MOL    C7319567   2.244   6.098   0.900  0.7787  0.1985 -0.1695
   58MOL    C7419568   2.242   6.251   0.906  0.0121 -0.0212 -0.4422
   58MOL    C7519569   2.229   6.284   1.058  0.3641 -0.3339 -0.4474
   58MOL    C7619570   2.167   6.156   1.111 -0.4259  0.0947  0.4041
   58MOL    O7719571   2.118   6.157   1.223  0.1269 -0.0483  0.2919
   58MOL    H7819572   1.970   5.806   1.121  1.2232 -0.1892  0.2402
   58MOL    H7919573   1.969   5.964   1.179  1.4090  0.4073 -1.5254
   58MOL    H8019574   2.150   5.853   0.960 -1.0269  0.3711 -0.0320
   58MOL    H8119575   2.345   6.058   0.910  0.4192 -0.4927  0.7882
   58MOL    H8219576   2.197   6.050   0.814  0.8802 -1.3955  0.6436
   58MOL    H8319577   2.334   6.292   0.864 -0.8625  1.9090 -0.5312
   58MOL    H8419578   2.150   6.288   0.861 -0.1221  1.0983  0.7235
   58MOL    H8519579   2.322   6.285   1.115 -1.2233  0.0530  2.2492
   58MOL    H8619580   2.168   6.371   1.083  3.0320  1.0549  1.3842
   58MOL    C8719581   2.224   5.860   1.154 -0.6266 -0.0151 -0.1478
   58MOL    C8819582   2.272   5.710   1.114 -0.2732  0.8455 -0.0053
   58MOL    N8919583   2.397   5.681   1.185 -0.2367  0.0544  0.3196
   58MOL    C9019584   2.395   5.635   1.324  0.3577 -0.0872 -0.3471
   58MOL    C9119585   2.542   5.612   1.356 -0.0093 -0.3183 -0.1873
   58MOL    C9219586   2.630   5.648   1.234 -0.7457  0.1140 -0.2298
   58MOL    C9319587   2.523   5.694   1.135 -0.8927 -0.0046 -0.0788
   58MOL    O9419588   2.552   5.723   1.023 -0.0790  0.0258  0.4228
   58MOL    H9519589   2.186   5.878   1.254 -1.7597 -1.9873 -0.1861
   58MOL    H9619590   2.314   5.920   1.147  0.3287 -1.3068  0.7857
   58MOL    H9719591   2.296   5.720   1.009  0.6770  1.4829  0.2664
   58MOL    H9819592   2.354   5.716   1.385 -1.2115 -0.1713 -1.2492
   58MOL    H9919593   2.331   5.548   1.337  0.1296 -0.1572 -1.8492
   58MOL   H10019594   2.572   5.674   1.441 -1.1330  1.6109 -1.1805
   58MOL   H10119595   2.549   5.506   1.384  0.9085 -0.2459 -0.1182
   58MOL   H10219596   2.696   5.733   1.252  0.5030 -0.6875 -0.9376
   58MOL   H10319597   2.697   5.566   1.209 -0.5217  0.5074 -0.9305
   58MOL   C10419598   2.158   5.608   1.146 -0.4677 -0.5922 -0.2714
   58MOL   C10519599   2.171   5.460   1.124  0.3898 -0.2118  0.4529
   58MOL   N10619600   2.062   5.394   1.203  0.1602  0.3704 -0.4485
   58MOL   C10719601   2.088   5.344   1.340 -0.6298  0.4599 -0.1333
   58MOL   C10819602   1.968   5.259   1.381  0.3516  0.0626  0.3244
   58MOL   C10919603   1.857   5.297   1.274  0.2826  0.3931 -1.2488
   58MOL   C11019604   1.930   5.386   1.178 -0.9349  0.1659  0.1357
   58MOL   O11119605   1.866   5.427   1.076 -0.3612  0.4681 -0.3527
   58MOL   H11219606   2.067   5.632   1.090  0.8822  2.5072 -1.2753
   58MOL   H11319607   2.131   5.625   1.250  0.9543 -2.8423  0.4981
   58MOL   H11419608   2.270   5.432   1.159 -0.0744 -0.6591  1.4199
   58MOL   H11519609   2.176   5.281   1.348 -0.8441  0.1495 -0.2245
   58MOL   H11619610   2.101   5.431   1.405 -1.3107  0.6980 -0.3048
   58MOL   H11719611   1.991   5.153   1.384 -0.9200 -0.1880  1.4510
   58MOL   H11819612   1.924   5.299   1.472 -0.1319 -1.2764  0.6865
   58MOL   H11919613   1.764   5.343   1.307  0.0825 -1.0122  0.2087
   58MOL   H12019614   1.812   5.210   1.226 -3.0548  0.2913  1.8564
   58MOL   C12119615   2.182   5.419   0.972 -0.2765 -0.0678  0.1007
   58MOL   C12219616   2.136   5.277   0.929 -0.2846  0.6450 -0.4666
   58MOL   N12319617   2.135   5.257   0.790  0.6922 -0.1944  0.6460
   58MOL   C12419618   2.013   5.286   0.719 -0.2002 -0.6175 -0.3987
   58MOL   C12519619   2.043   5.276   0.570 -0.5780 -0.2565 -0.1423
   58MOL   C12619620   2.188   5.230   0.557  0.8799 -0.4103  0.0464
   58MOL   C12719621   2.240   5.230   0.705 -0.2324 -0.5983  0.3154
   58MOL   O12819622   2.358   5.206   0.737 -0.4303 -0.0850  0.0960
   58MOL   H12919623   2.285   5.434   0.940 -0.3913 -1.0376 -0.7929
   58MOL   H13019624   2.112   5.481   0.917 -0.0713  2.1721  2.3103
   58MOL   H13119625   2.029   5.267   0.947 -0.2852 -0.6320 -1.1178
   58MOL   H13219626   1.967   5.380   0.748  0.0927 -0.5884 -0.0337
   58MOL   H13319627   1.941   5.211   0.750 -0.8197  0.3554  0.5216
   58MOL   H13419628   1.977   5.210   0.513 -1.3700  1.5562 -1.3715
   58MOL   H13519629   2.024   5.374   0.525  1.7442  0.1741 -0.2490
   58MOL   H13619630   2.211   5.130   0.520 -0.6128 -0.9389  0.5167
   58MOL   H13719631   2.258   5.289   0.498  0.8640  1.1361  1.5541
   58MOL   C13819632   2.217   5.158   1.005  0.2434  0.2225 -0.3749
   58MOL   C13919633   2.154   5.016   0.982  0.9117 -0.0577 -1.0676
   58MOL   N14019634   2.225   4.919   1.072 -0.0925  0.1621 -0.2971
   58MOL   C14119635   2.303   4.813   1.005  0.2595 -0.7426  0.1930
   58MOL   C14219636   2.406   4.759   1.102  0.3073 -0.3799  0.5555
   58MOL   C14319637   2.360   4.818   1.232  0.0465  0.4076  0.2719
   58MOL   C14419638   2.263   4.926   1.199  0.5313 -0.2411  0.4081
   58MOL   O14519639   2.218   4.995   1.290 -0.2311  0.3318 -0.1622
   58MOL   H14619640   2.208   5.188   1.109  1.9783 -1.2355  0.2262
   58MOL   H14719641   2.325   5.165   0.990  0.6062 -3.1347  0.1309
   58MOL   H14819642   2.160   4.995   0.875 -0.6879 -0.6451 -1.0576
   58MOL   H14919643   2.239   4.742   0.954  0.8389 -1.1965  0.0954
   58MOL   H15019644   2.355   4.841   0.913  1.6873 -0.0604  1.1912
   58MOL   H15119645   2.404   4.651   1.088  3.6827 -0.4822  0.3587
   58MOL   H15219646   2.503   4.799   1.073 -1.3395  3.5673  0.1896
   58MOL   H15319647   2.436   4.853   1.301  0.2595 -1.1364  0.8468
   58MOL   H15419648   2.310   4.736   1.285  0.2339  0.1144 -0.0039
   58MOL   C15519649   2.004   5.013   1.009  0.2245  0.5588  0.1888
   58MOL   C15619650   1.932   4.871   1.007 -0.2584  0.5570  0.7949
   58MOL   N15719651   1.929   4.814   1.148 -0.5278  0.0169 -0.7224
   58MOL   C15819652   1.985   4.683   1.176 -0.5298  0.1727 -0.4730
   58MOL   C15919653   2.001   4.664   1.326  0.2544 -0.1770  1.0435
   58MOL   C16019654   1.891   4.759   1.378 -0.7093  0.4060  0.3415
   58MOL   C16119655   1.873   4.856   1.261  0.3402 -0.0661  0.1834
   58MOL   O16219656   1.806   4.956   1.279  0.1472 -0.1763  0.0785
   58MOL   H16319657   1.944   5.069   0.937 -0.4880 -1.5699 -0.9352
   58MOL   H16419658   1.994   5.063   1.105 -0.5200 -0.6809  0.7758
   58MOL   H16519659   1.983   4.797   0.945 -2.2077  0.5237 -0.8123
   58MOL   H16619660   1.912   4.610   1.142  0.9571 -0.9535 -1.2867
   58MOL   H16719661   2.079   4.660   1.125  0.5357  0.8150  1.1522
   58MOL   H16819662   1.986   4.558   1.342 -1.3126  0.0652  1.2763
   58MOL   H16919663   2.097   4.691   1.371  0.1538 -1.5226  2.1145
   58MOL   H17019664   1.797   4.704   1.379 -1.4495  1.6030  3.2576
   58MOL   H17119665   1.918   4.808   1.471  2.1210  0.0063 -0.2327
   58MOL   C17219666   1.778   4.878   0.960  0.1566 -0.5247 -0.1060
   58MOL   C17319667   1.747   4.910   0.813  0.6748  0.4473 -0.0207
   58MOL   N17419668   1.833   4.841   0.717  0.1127  0.1331  0.3934
   58MOL   C17519669   1.867   4.897   0.587 -0.5918 -0.3435  0.0501
   58MOL   C17619670   1.941   4.784   0.508 -0.2640  0.3003 -0.1895
   58MOL   C17719671   1.934   4.660   0.584  0.4308  0.5796 -0.6733
   58MOL   C17819672   1.870   4.712   0.715 -0.5112 -0.1028  0.9319
   58MOL   O17919673   1.853   4.633   0.807  0.4275 -0.4774 -0.3471
   58MOL   H18019674   1.727   4.948   1.025  0.1793  0.5206 -1.1775
   58MOL   H18119675   1.740   4.778   0.975  0.4624 -0.5873  0.2606
   58MOL   H18219676   1.778   5.014   0.802  0.8795  0.5363  1.3742
   58MOL   H18319677   1.774   4.922   0.536  0.2021 -0.7711 -1.6358
   58MOL   H18419678   1.938   4.979   0.593 -3.1314  1.8391  1.7588
   58MOL   H18519679   2.041   4.825   0.498 -0.2365  0.1885 -0.3769
   58MOL   H18619680   1.893   4.770   0.410  0.6755  2.5563 -1.0133
   58MOL   H18719681   1.885   4.575   0.535  1.7292 -0.4459 -0.2406
   58MOL   H18819682   2.034   4.625   0.610 -0.2760 -0.3002  0.9692
   58MOL   C18919683   1.596   4.900   0.777  0.2121  0.6691 -0.0444
   58MOL   C19019684   1.498   4.989   0.872 -0.5570  0.0492 -0.5142
   58MOL   N19119685   1.528   5.136   0.868  0.3889 -0.1323 -0.1742
   58MOL   C19219686   1.580   5.209   0.983  0.2100 -0.1184 -0.0309
   58MOL   C19319687   1.561   5.363   0.951 -0.4273 -0.4514 -0.3233
   58MOL   C19419688   1.531   5.363   0.802 -0.3200  0.4796  0.0613
   58MOL   C19519689   1.504   5.219   0.765  0.3206 -0.3162 -0.2115
   58MOL   O19619690   1.475   5.181   0.652 -0.2222  0.0807  0.7057
   58MOL   H19719691   1.573   4.794   0.777 -2.3723  1.1914 -0.6460
   58MOL   H19819692   1.570   4.939   0.678  0.7275 -0.3754 -0.5982
   58MOL   H19919693   1.494   4.954   0.975 -1.2372 -1.2460 -0.9679
   58MOL   H20019694   1.529   5.184   1.076  0.8539 -0.0871  0.3350
   58MOL   H20119695   1.688   5.195   0.988  0.3286 -0.2193 -2.5688
   58MOL   H20219696   1.492   5.416   1.018  1.1553  2.3599 -0.8490
   58MOL   H20319697   1.656   5.413   0.967 -1.2426  0.3449  2.3273
   58MOL   H20419698   1.460   5.444   0.783 -0.1729  0.3188 -1.2312
   58MOL   H20519699   1.607   5.392   0.729 -1.0494 -1.0812 -1.3533
   58MOL   C20619700   1.353   4.947   0.826  0.3694  0.1966  0.5955
   58MOL   C20719701   1.232   4.969   0.922 -0.1981 -0.0970 -0.3702
   58MOL   N20819702   1.188   5.110   0.935  0.2572 -0.7003 -0.0568
   58MOL   C20919703   1.168   5.170   1.067  0.2194 -0.5534 -0.0907
   58MOL   C21019704   1.111   5.307   1.040 -0.5922  0.0487  0.6025
   58MOL   C21119705   1.098   5.324   0.886  0.6236  0.1050 -0.2198
   58MOL   C21219706   1.153   5.194   0.835  0.1518  0.2101 -0.3090
   58MOL   O21319707   1.165   5.168   0.717  0.6726  0.5758  0.4866
   58MOL   H21419708   1.356   4.841   0.802 -0.5465  0.4723 -0.8234
   58MOL   H21519709   1.317   4.988   0.731 -1.6115 -2.1858  0.2648
   58MOL   H21619710   1.261   4.943   1.023  0.4928  0.1149 -0.5155
   58MOL   H21719711   1.089   5.111   1.112 -1.8438  2.6357  0.6767
   58MOL   H21819712   1.255   5.189   1.129  0.2543  3.2082 -1.1516
   58MOL   H21919713   1.009   5.307   1.079 -0.5565  0.4914  0.6996
   58MOL   H22019714   1.164   5.393   1.082 -1.4215  0.2151  1.3279
   58MOL   H22119715   0.994   5.331   0.853  0.5622  1.5696  0.2174
   58MOL   H22219716   1.161   5.407   0.852  3.0871 -1.4810  0.3395
   58MOL   C22319717   1.109   4.882   0.896  0.5094 -0.1567  0.5813
   58MOL   C22419718   1.132   4.730   0.927  0.1831  0.5347 -0.7165
   58MOL   N22519719   1.202   4.711   1.060 -1.1549 -0.2744  0.2751
   58MOL   C22619720   1.141   4.745   1.187 -0.4768  0.0882 -0.3799
   58MOL   C22719721   1.251   4.757   1.285  0.2859  0.0422  0.8138
   58MOL   C22819722   1.372   4.678   1.228 -0.5570  0.3136  0.0420
   58MOL   C22919723   1.324   4.656   1.083  0.6165  0.3741  0.1262
   58MOL   O23019724   1.389   4.590   1.004 -0.2736  0.0913  0.0711
   58MOL   H23119725   1.067   4.898   0.796  2.8181  3.3047  0.0432
   58MOL   H23219726   1.029   4.914   0.963  0.6920 -1.3194  1.3608
   58MOL   H23319727   1.204   4.699   0.851  0.3200  3.7961 -1.9940
   58MOL   H23419728   1.085   4.839   1.181  1.6321  1.1995 -3.8658
   58MOL   H23519729   1.075   4.662   1.215  0.1381 -0.4925 -0.6503
   58MOL   H23619730   1.282   4.862   1.278 -0.9895  0.4137  0.6624
   58MOL   H23719731   1.225   4.730   1.387  0.3555  0.7681  1.0292
   58MOL   H23819732   1.469   4.727   1.216  0.0747 -0.8142  0.4995
   58MOL   H23919733   1.392   4.583   1.277  1.1143 -0.0812 -1.3713
   58MOL   C24019734   1.013   4.632   0.913  0.0274 -0.8051  0.2561
   58MOL   C24119735   0.967   4.619   0.761 -0.7463  0.2711 -0.1098
   58MOL   N24219736   0.929   4.482   0.726 -0.3081 -0.5414 -0.5754
   58MOL   C24319737   1.015   4.395   0.652 -0.2066 -0.1099 -0.2153
   58MOL   C24419738   0.968   4.252   0.676  0.1243  0.5961  0.3301
   58MOL   C24519739   0.824   4.264   0.719 -0.0307 -0.5404 -0.4433
   58MOL   C24619740   0.820   4.416   0.770 -0.1749  0.5106  0.3147
   58MOL   O24719741   0.727   4.453   0.833 -0.1114 -0.2116 -0.1797
   58MOL   H24819742   0.933   4.660   0.982  0.8250  2.1852  0.0507
   58MOL   H24919743   1.053   4.535   0.943 -1.6951 -0.3457  4.3505
   58MOL   H25019744   1.063   4.634   0.712  0.6902 -1.4834  2.0586
   58MOL   H25119745   0.990   4.419   0.549  0.3878  0.9490 -0.1195
   58MOL   H25219746   1.122   4.408   0.663 -0.2635 -0.7531  1.2953
   58MOL   H25319747   0.988   4.183   0.595  0.9758 -1.1344  1.9759
   58MOL   H25419748   1.015   4.208   0.764 -1.1721  2.6691  2.1379
   58MOL   H25519749   0.751   4.244   0.640  0.3214 -0.9192 -0.6744
   58MOL   H25619750   0.814   4.200   0.806  0.9019  0.7235  0.6047
   58MOL   C25719751   0.859   4.719   0.695 -0.3670 -0.2613 -0.1290
   58MOL   C25819752   0.882   4.790   0.553 -0.1154  0.4944  1.6865
   58MOL   N25919753   0.960   4.705   0.462  0.4112  0.5236  0.2977
   58MOL   C26019754   0.909   4.615   0.363  0.8079  0.0944 -0.1928
   58MOL   C26119755   1.030   4.546   0.297 -0.1399  0.4198 -0.0316
   58MOL   C26219756   1.154   4.607   0.357  0.3916 -0.5096 -0.5434
   58MOL   C26319757   1.094   4.706   0.454  0.0660 -0.2486  0.2700
   58MOL   O26419758   1.168   4.777   0.521 -0.7050 -0.3440  0.3672
   58MOL   H26519759   0.839   4.808   0.755 -2.1661 -0.7603  0.0394
   58MOL   H26619760   0.759   4.676   0.690 -0.6580  0.4967 -1.1286
   58MOL   H26719761   0.934   4.884   0.570 -1.5589  1.4976  0.6296
   58MOL   H26819762   0.856   4.539   0.420 -0.6440  1.1926 -0.0524
   58MOL   H26919763   0.845   4.655   0.284 -2.2725 -1.1781  1.5857
   58MOL   H27019764   1.030   4.438   0.287 -0.2098  0.5284 -1.2133
   58MOL   H27119765   1.030   4.574   0.192 -0.0443 -1.7907 -0.6401
   58MOL   H27219766   1.192   4.525   0.418  0.6475  0.0244  0.0225
   58MOL   H27319767   1.228   4.651   0.291  0.2047  1.6330  0.6104
   58MOL   C27419768   0.748   4.831   0.485  0.1725  0.4268 -0.1899
   58MOL   C27519769   0.681   4.951   0.563 -0.4354  0.7421  0.0109
   58MOL   N27619770   0.739   5.078   0.536 -1.1146 -0.1124  0.1672
   58MOL   C27719771   0.812   5.150   0.642 -0.0224 -0.4938 -0.7255
   58MOL   C27819772   0.833   5.293   0.591 -0.0612 -0.5497 -0.5762
   58MOL   C27919773   0.794   5.293   0.442  0.0826  0.2690  0.3362
   58MOL   C28019774   0.734   5.151   0.422  0.3014 -0.5749 -0.0995
   58MOL   O28119775   0.691   5.116   0.312  0.0573  0.3597 -0.4303
   58MOL   H28219776   0.692   4.739   0.473  1.7035 -0.4255 -0.9445
   58MOL   H28319777   0.776   4.867   0.386 -2.4335  0.8174 -0.8286
   58MOL   H28419778   0.696   4.930   0.669 -0.7753 -1.7311 -0.4008
   58MOL   H28519779   0.752   5.159   0.732 -0.9813  0.3404 -1.4255
   58MOL   H28619780   0.902   5.092   0.658  0.7490 -0.4164 -4.3317
   58MOL   H28719781   0.786   5.377   0.641 -0.3157 -1.2418  0.3560
   58MOL   H28819782   0.937   5.323   0.597  0.2041 -1.0041 -2.3796
   58MOL   H28919783   0.722   5.371   0.415 -2.5289 -1.6678  1.5736
   58MOL   H29019784   0.877   5.304   0.372  1.3061  0.4982  1.8124
   58MOL   C29119785   0.527   4.954   0.544 -0.7503  0.1166  0.8907
   58MOL   C29219786   0.432   4.997   0.660 -0.7490 -0.0286 -0.4472
   58MOL   N29319787   0.461   5.137   0.703  0.5034  0.4729  1.2048
   58MOL   C29419788   0.481   5.156   0.845  0.5914 -0.0382 -0.3113
   58MOL   C29519789   0.466   5.308   0.865  0.0976 -0.0240  0.0035
   58MOL   C29619790   0.500   5.371   0.730  0.2795  0.1957 -0.1719
   58MOL   C29719791   0.471   5.253   0.637  0.1652 -0.2653  0.2822
   58MOL   O29819792   0.468   5.264   0.515  0.2089  0.8508  0.3292
   58MOL   H29919793   0.501   4.851   0.520  2.8039 -0.5521 -0.5380
   58MOL   H30019794   0.492   5.007   0.455 -1.3542 -2.0075 -0.1587
   58MOL   H30119795   0.454   4.939   0.750 -1.0926  2.1093  1.0718
   58MOL   H30219796   0.402   5.099   0.894 -0.3823 -0.5712 -2.4489
   58MOL   H30319797   0.572   5.119   0.893  0.4010  2.8940  2.4979
   58MOL   H30419798   0.362   5.332   0.887  0.0632 -0.1818  0.0186
   58MOL   H30519799   0.512   5.343   0.958 -2.7786 -1.4372  2.0705
   58MOL   H30619800   0.423   5.442   0.701  0.8987  0.0288 -2.3839
   58MOL   H30719801   0.602   5.403   0.711  1.0710 -2.4278 -0.5928
   58MOL   C30819802   0.282   4.969   0.627 -0.3852 -0.0593 -0.0970
   58MOL   C30919803   0.164   5.045   0.702  0.0309 -0.0455 -0.0164
   58MOL   N31019804   0.070   5.096   0.601 -0.5609  0.1852  0.2089
   58MOL   C31119805   0.078   5.234   0.563 -0.0555 -0.2875 -0.4700
   58MOL   C31219806   7.890   5.251   0.447  0.4616 -0.1530 -0.0558
   58MOL   C31319807   7.846   5.114   0.405 -0.6137  0.2595 -0.2256
   58MOL   C31419808   7.898   5.025   0.520 -0.3913 -0.5799  0.0902
   58MOL   O31519809   7.884   4.900   0.513 -0.1213 -0.2092  0.7679
   58MOL   H31619810   0.267   4.863   0.607  2.7273 -0.0710 -2.7833
   58MOL   H31719811   0.270   5.017   0.530 -1.8373  1.4268  0.7929
   58MOL   H31819812   0.205   5.138   0.742 -0.1400  0.4398 -0.9481
   58MOL   H31919813   0.050   5.295   0.648  0.1560 -1.0304  0.1399
   58MOL   H32019814   0.184   5.248   0.538  0.1713  0.5447  0.8964
   58MOL   H32119815   7.800   5.310   0.465  2.7149  2.6418  2.6415
   58MOL   H32219816   0.032   5.307   0.367  0.4407  0.2415  0.2038
   58MOL   H32319817   7.740   5.101   0.382  0.0615 -0.1176 -3.4522
   58MOL   H32419818   7.885   5.085   0.307 -1.1721  0.6453 -0.5655
   58MOL   C32519819   0.099   4.965   0.816 -1.2432 -0.6641  0.4267
   58MOL   C32619820   0.190   4.943   0.940 -0.4782  0.5564  0.2311
   58MOL   N32719821   0.116   4.875   1.045  0.0422  0.1046  0.5891
   58MOL   C32819822   0.158   4.750   1.102 -0.7822  0.5526  0.1230
   58MOL   C32919823   0.064   4.726   1.219 -0.9196  0.2501  0.5023
   58MOL   C33019824   7.857   4.822   1.199 -0.4745 -0.2255  1.0666
   58MOL   C33119825   0.008   4.922   1.102  0.5724 -0.0526 -0.9862
   58MOL   O33219826   7.860   5.028   1.079 -0.1209  0.0988 -0.5210
   58MOL   H33319827   0.046   4.876   0.782 -0.0231 -3.1229  4.5903
   58MOL   H33419828   0.009   5.022   0.837 -0.6168  0.2049  0.7424
   58MOL   H33519829   0.238   5.035   0.974  1.3501  0.5169 -2.0817
   58MOL   H33619830   0.139   4.681   1.019  0.4431  0.6083 -0.2126
   58MOL   H33719831   0.263   4.744   1.132 -0.6904  1.1706 -0.0744
   58MOL   H33819832   0.042   4.620   1.213  0.3029  0.1024 -2.7127
   58MOL   H33919833   0.125   4.743   1.308  1.0228  1.1648 -0.9537
   58MOL   H34019834   7.771   4.772   1.154 -0.7106  0.7863  0.3645
   58MOL   H34119835   7.823   4.882   1.284 -0.4174  1.9500 -0.4229
   58MOL   H34219836   0.282   4.889   0.918 -0.6403  0.3605  0.0379
   59MOL     C119837   2.379   0.342   1.194 -0.0667  0.1945 -0.4481
   59MOL     C219838   2.310   0.383   1.062 -0.6936  0.1791  0.3849
   59MOL     N319839   2.396   0.410   0.948  0.5224  0.3038  0.1507
   59MOL     C419840   2.361   0.509   0.853 -0.6265  0.8185 -0.3959
   59MOL     C519841   2.482   0.547   0.778  0.0854 -0.4153  0.4419
   59MOL     C619842   2.575   0.431   0.798 -0.5180  0.0580 -0.1542
   59MOL     C719843   2.518   0.357   0.917 -0.6264  1.0560  0.0196
   59MOL     O819844   2.587   0.279   0.976  0.2737  0.1627 -0.0602
   59MOL     H919845   2.435   0.251   1.173  0.2202  0.5020 -1.0335
   59MOL    H1019846   2.455   0.413   1.227 -1.6644  1.7461 -0.0269
   59MOL    H1119847   2.273   0.484   1.079  0.4968  0.6806  0.0902
   59MOL    H1219848   2.288   0.462   0.786 -0.4801  0.2264 -0.1456
   59MOL    H1319849   2.307   0.585   0.909 -2.0330  1.0078 -1.9364
   59MOL    H1419850   2.457   0.546   0.672 -0.0678 -0.4431  0.4779
   59MOL    H1519851   2.526   0.642   0.807  1.7041 -0.5220 -1.6015
   59MOL    H1619852   2.569   0.371   0.708 -0.6356  1.4332 -1.0872
   59MOL    H1719853   2.681   0.450   0.812 -0.3105  0.2375 -1.8683
   59MOL    H1819854   2.317   0.338   1.284  3.1983 -0.0071  1.8713
   59MOL    C1919855   2.202   0.284   1.023 -0.4330 -0.1674  0.1785
   59MOL    C2019856   2.099   0.264   1.129 -0.3447  0.0553 -0.1719
   59MOL    N2119857   2.038   0.394   1.173  0.0370 -0.0093  0.9263
   59MOL    C2219858   2.013   0.401   1.315  0.6895 -0.3081 -0.0869
   59MOL    C2319859   1.944   0.536   1.345 -0.6296  0.2570 -0.2047
   59MOL    C2419860   1.892   0.577   1.207  0.0906  0.1267 -0.1240
   59MOL    C2519861   1.970   0.491   1.106 -0.2681 -0.5328 -1.0083
   59MOL    O2619862   1.965   0.513   0.983  0.3647 -0.0230  0.3162
   59MOL    H2719863   2.247   0.191   0.989 -0.1121  0.4906 -1.2616
   59MOL    H2819864   2.153   0.309   0.928  0.5724  2.0811  0.2127
   59MOL    H2919865   2.141   0.226   1.222  2.4966  1.9290 -0.6346
   59MOL    H3019866   1.956   0.316   1.354  2.0096 -1.7905 -1.3385
   59MOL    H3119867   2.100   0.394   1.380 -0.4445 -0.7945  1.4224
   59MOL    H3219868   1.868   0.523   1.422 -2.0274 -0.6637 -1.6788
   59MOL    H3319869   2.018   0.609   1.375 -0.0917 -0.6020  0.6000
   59MOL    H3419870   1.785   0.564   1.192 -0.0861  0.4383  0.8451
   59MOL    H3519871   1.896   0.685   1.197  1.0393 -0.0450 -1.8019
   59MOL    C3619872   1.987   0.169   1.077 -0.6013  0.3957 -0.0902
   59MOL    C3719873   1.987   0.027   1.138  0.6043 -0.2196  0.0009
   59MOL    N3819874   1.934   0.024   1.274  0.5204 -0.3864 -0.3255
   59MOL    C3919875   2.022   7.898   1.389 -0.5751 -0.4329 -0.7093
   59MOL    C4019876   1.937   0.047   1.508  0.0184  0.2333 -0.2384
   59MOL    C4119877   1.789   0.035   1.468  0.3216  0.1553 -0.4168
   59MOL    C4219878   1.802   0.043   1.314 -0.2930 -0.2583 -0.1727
   59MOL    O4319879   1.710   0.068   1.238 -0.0462 -0.2904 -0.5331
   59MOL    H4419880   2.001   0.152   0.970  1.5547  1.3617  0.0151
   59MOL    H4519881   1.887   0.213   1.082 -1.4579 -1.3306 -1.3004
   59MOL    H4619882   2.089   7.895   1.141  0.3043 -1.0203  0.2202
   59MOL    H4719883   2.037   7.790   1.385 -1.5548 -0.6591  1.1318
   59MOL    H4819884   2.118   0.041   1.375  0.7758 -1.6018  3.5193
   59MOL    H4919885   1.953   7.889   1.595  1.9846 -1.4693 -1.7912
   59MOL    H5019886   1.954   0.152   1.534 -0.2448  0.0081  0.8868
   59MOL    H5119887   1.757   7.838   1.486  0.6073  0.5241  2.3579
   59MOL    H5219888   1.718   0.094   1.526 -0.4766 -1.7195  0.5432
   59MOL    C5319889   1.907   7.838   1.048 -0.3567 -0.8989 -1.0079
   59MOL    C5419890   2.001   7.785   0.932  0.1023 -0.0727 -0.3101
   59MOL    N5519891   2.106   7.687   0.976  0.4134 -0.0584  0.1716
   59MOL    C5619892   2.242   7.721   0.949 -0.5287  0.3801  0.7720
   59MOL    C5719893   2.317   7.618   1.028 -0.7844  0.5410 -0.3450
   59MOL    C5819894   2.220   7.517   1.089 -0.3385  0.6713 -0.9292
   59MOL    C5919895   2.086   7.577   1.052  0.3496  0.6915 -0.1122
   59MOL    O6019896   1.978   7.527   1.085  0.2844 -0.1440  0.0011
   59MOL    H6119897   1.817   7.884   1.008 -0.1198 -0.1130 -0.6423
   59MOL    H6219898   1.872   7.747   1.098  0.1481 -0.8822 -0.6128
   59MOL    H6319899   2.060   7.872   0.901  0.2585 -0.1457 -0.2177
   59MOL    H6419900   2.262   7.726   0.842 -0.8777 -0.4082  0.6624
   59MOL    H6519901   2.272   7.819   0.985  0.5025 -0.3166  1.8110
   59MOL    H6619902   2.387   7.556   0.972  0.9951  0.6806  1.6630
   59MOL    H6719903   2.384   7.670   1.096 -0.2807 -0.0646 -0.3768
   59MOL    H6819904   2.241   7.420   1.046  3.7061  0.3532  1.5353
   59MOL    H6919905   2.235   7.505   1.196  0.5342 -0.5555 -1.1830
   59MOL    C7019906   1.912   7.717   0.819 -0.4668 -0.0350  0.0464
   59MOL    C7119907   1.822   7.807   0.726 -0.0253  0.0986 -0.9697
   59MOL    N7219908   1.872   0.038   0.720 -0.0459 -0.1877  0.4433
   59MOL    C7319909   1.779   0.145   0.762  0.0118 -0.0170  0.6034
   59MOL    C7419910   1.852   0.272   0.733  0.4511 -0.8002  0.1023
   59MOL    C7519911   1.975   0.226   0.653 -0.5591  0.3304  0.6554
   59MOL    C7619912   1.980   0.079   0.652 -0.9465 -0.3402 -0.1162
   59MOL    O7719913   2.070   0.014   0.594 -0.3310  0.3763 -0.5657
   59MOL    H7819914   1.846   7.644   0.866  0.9556  0.1170  2.3852
   59MOL    H7919915   1.978   7.656   0.758 -0.8527 -0.3187 -0.0887
   59MOL    H8019916   1.720   7.804   0.765  0.7008 -3.5474  0.9147
   59MOL    H8119917   1.686   0.148   0.705 -1.0688  1.3282  2.3906
   59MOL    H8219918   1.752   0.142   0.868 -0.9071 -0.8087  0.3586
   59MOL    H8319919   1.784   0.345   0.689 -2.4984 -1.5204  3.2286
   59MOL    H8419920   1.884   0.314   0.828  0.7134 -1.4763  0.3202
   59MOL    H8519921   1.987   0.266   0.552  0.4032 -0.5142  0.4318
   59MOL    H8619922   2.064   0.261   0.706 -0.1266 -0.6394  0.5849
   59MOL    C8719923   1.820   7.749   0.590 -0.5456  0.3912  0.0939
   59MOL    C8819924   1.751   7.615   0.570  0.5751 -0.2490  0.5496
   59MOL    N8919925   1.605   7.637   0.581 -0.5138 -0.1790 -0.1692
   59MOL    C9019926   1.531   7.584   0.695  0.5531 -0.3510  0.1408
   59MOL    C9119927   1.386   7.626   0.681 -0.6378 -1.0284  0.4691
   59MOL    C9219928   1.382   7.716   0.556  0.7042  0.4042 -0.4670
   59MOL    C9319929   1.519   7.698   0.494  0.1332  0.3606  0.8080
   59MOL    O9419930   1.548   7.758   0.391 -0.0079 -0.1836  0.5588
   59MOL    H9519931   1.926   7.748   0.567 -0.4876  2.3057  0.2026
   59MOL    H9619932   1.774   7.822   0.523  0.1209  1.1605  0.4712
   59MOL    H9719933   1.798   7.548   0.641  0.8143 -1.9661 -1.1771
   59MOL    H9819934   1.558   7.483   0.726  0.5825  0.0479  1.4523
   59MOL    H9919935   1.570   7.646   0.776 -1.2891  1.8127 -0.5999
   59MOL   H10019936   1.335   7.530   0.670 -0.2714 -1.5468  3.0656
   59MOL   H10119937   1.341   7.673   0.768  1.2797  1.0348  0.3908
   59MOL   H10219938   1.307   7.695   0.481  0.2811  1.5381 -0.3763
   59MOL   H10319939   1.354   7.820   0.575 -0.1640  0.0467  0.2618
   59MOL   C10419940   1.791   7.557   0.434  0.2325 -0.5874  0.0321
   59MOL   C10519941   1.735   7.423   0.393 -0.2868 -0.2853 -0.8919
   59MOL   N10619942   1.794   7.401   0.255  0.3538 -0.4247  0.2824
   59MOL   C10719943   1.694   7.418   0.145  0.1022  1.1996 -0.2392
   59MOL   C10819944   1.771   7.386   0.013 -0.6017  0.5220  0.4174
   59MOL   C10919945   1.917   7.350   0.056  0.2059 -0.0920 -0.0929
   59MOL   C11019946   1.917   7.376   0.209  0.1257 -0.2587  0.6764
   59MOL   O11119947   2.019   7.371   0.275 -0.0598  0.1471  0.0600
   59MOL   H11219948   1.900   7.558   0.431  0.2038  2.1877 -1.5960
   59MOL   H11319949   1.767   7.624   0.353  0.0860 -2.4418 -1.4988
   59MOL   H11419950   1.627   7.434   0.383 -0.3768  1.3620  1.4580
   59MOL   H11519951   1.606   7.355   0.157  0.7803  0.1860 -0.5965
   59MOL   H11619952   1.665   7.523   0.151 -2.1055  0.5108  2.0909
   59MOL   H11719953   1.723   7.296   7.879 -1.6428  1.4420 -0.4384
   59MOL   H11819954   1.766   7.460   7.839 -1.1795 -0.4749 -0.4824
   59MOL   H11919955   1.993   7.419   0.016 -0.5800  1.4342  0.9931
   59MOL   H12019956   1.945   7.247   0.038 -1.0440 -0.0512 -2.5449
   59MOL   C12119957   1.761   7.304   0.494  0.7307 -0.1591 -0.1063
   59MOL   C12219958   1.686   7.175   0.445 -0.1493 -0.9137  0.1375
   59MOL   N12319959   1.771   7.090   0.361 -0.4591 -0.1134  0.0891
   59MOL   C12419960   1.722   7.043   0.235  0.0938  0.5851  0.8991
   59MOL   C12519961   1.787   6.904   0.213  0.1222  0.8752  1.0262
   59MOL   C12619962   1.909   6.915   0.299 -0.3178 -0.4389 -0.5895
   59MOL   C12719963   1.887   7.032   0.392 -0.1470  0.1251 -0.4328
   59MOL   O12819964   1.971   7.053   0.482  0.2048 -0.4512  0.1178
   59MOL   H12919965   1.723   7.327   0.594  0.2432  0.6696 -0.4693
   59MOL   H13019966   1.869   7.292   0.500  1.1829  2.9501 -1.1537
   59MOL   H13119967   1.607   7.221   0.387 -0.5002 -2.0701 -0.2999
   59MOL   H13219968   1.754   7.113   0.157  1.6190  1.0329  1.9071
   59MOL   H13319969   1.614   7.037   0.223  0.2859  1.8230 -2.0643
   59MOL   H13419970   1.723   6.824   0.250  1.6066 -0.2442  1.2488
   59MOL   H13519971   1.813   6.873   0.111 -0.8105  2.3680  0.3207
   59MOL   H13619972   1.932   6.825   0.356 -0.7598  0.7885  1.5874
   59MOL   H13719973   2.003   6.933   0.247  1.8117 -2.2842  2.3960
   59MOL   C13819974   1.626   7.107   0.572 -0.1457  0.2352  0.5401
   59MOL   C13919975   1.546   6.977   0.545 -0.4431  0.4857  0.5244
   59MOL   N14019976   1.539   6.905   0.670  0.2203 -0.0428 -0.2292
   59MOL   C14119977   1.439   6.949   0.767  0.2770 -0.4435  0.2525
   59MOL   C14219978   1.462   6.867   0.895  0.2408 -0.5730 -0.6856
   59MOL   C14319979   1.565   6.770   0.854 -0.3039 -0.7372  0.0313
   59MOL   C14419980   1.615   6.807   0.718  0.5075 -0.0197 -0.2681
   59MOL   O14519981   1.704   6.750   0.662  0.3545 -0.2046 -0.3989
   59MOL   H14619982   1.553   7.178   0.611  0.6805  1.2580  0.2474
   59MOL   H14719983   1.714   7.087   0.633 -0.9152  0.6811  1.8141
   59MOL   H14819984   1.612   6.917   0.481  0.8192  1.3374  1.0037
   59MOL   H14919985   1.436   7.056   0.786 -2.3743 -0.3825 -0.2646
   59MOL   H15019986   1.336   6.938   0.733 -0.9164  0.8681  3.2611
   59MOL   H15119987   1.505   6.922   0.978  0.0199  0.0910 -1.0121
   59MOL   H15219988   1.371   6.819   0.931  0.3122 -0.0227  0.2400
   59MOL   H15319989   1.505   6.679   0.858 -4.5653  1.9272  0.6196
   59MOL   H15419990   1.652   6.764   0.920  1.6854 -4.8134 -2.7649
   59MOL   C15519991   1.411   6.996   0.468  0.3044  0.0572  0.5353
   59MOL   C15619992   1.369   6.864   0.388  0.0823 -0.3111  1.2333
   59MOL   N15719993   1.342   6.751   0.481  0.0571  0.6402 -0.3490
   59MOL   C15819994   1.422   6.629   0.478  0.3097 -0.1091  0.1859
   59MOL   C15919995   1.366   6.531   0.582  0.6936 -0.0842  0.2869
   59MOL   C16019996   1.234   6.590   0.623 -0.5330  0.0983  0.0640
   59MOL   C16119997   1.237   6.732   0.561 -0.2590  0.0538 -0.5673
   59MOL   O16219998   1.144   6.813   0.592  0.3021  0.1674 -0.0585
   59MOL   H16319999   1.429   7.080   0.401  0.8919  2.4342  3.5633
   59MOL   H16420000   1.330   7.015   0.538 -1.9345 -0.4413 -1.8611
   59MOL   H16520001   1.450   6.837   0.321 -1.2059  1.5440 -1.1684
   59MOL   H16620002   1.417   6.592   0.375  0.2308  1.6064 -0.4438
   59MOL   H16720003   1.525   6.658   0.502  0.6561 -0.9159 -0.3009
   59MOL   H16820004   1.355   6.435   0.530  0.4179  0.0501  0.0951
   59MOL   H16920005   1.435   6.537   0.666 -0.7812  1.3391  1.4276
   59MOL   H17020006   1.147   6.531   0.593  1.7921 -3.2055 -0.4934
   59MOL   H17120007   1.238   6.592   0.732 -4.7605 -2.5016  0.4105
   59MOL   C17220008   1.247   6.894   0.295 -0.5936 -0.7721 -0.0297
   59MOL   C17320009   1.274   6.944   0.153  0.2974 -0.0941 -0.2587
   59MOL   N17420010   1.331   6.833   0.060 -0.0226  0.0948  0.8347
   59MOL   C17520011   1.447   6.869   7.889  0.3570  0.4427  0.1991
   59MOL   C17620012   1.474   6.754   7.792  0.0137  0.8475 -0.5440
   59MOL   C17720013   1.365   6.651   7.829 -0.3891 -0.7130  0.0253
   59MOL   C17820014   1.285   6.711   0.033  0.5582 -0.1047  0.1330
   59MOL   O17920015   1.181   6.661   0.080  0.2188  0.1179  0.0549
   59MOL   H18020016   1.189   6.972   0.346  1.3479  0.8611 -0.2348
   59MOL   H18120017   1.186   6.804   0.292  1.1936 -1.9717 -0.6780
   59MOL   H18220018   1.335   7.034   0.154 -0.9382  0.7748 -0.9663
   59MOL   H18320019   1.432   6.953   7.822  0.7432  0.5884  0.2985
   59MOL   H18420020   1.533   6.876   0.049  0.2055  1.5279  0.2938
   59MOL   H18520021   1.564   6.695   7.813 -0.6807  0.1938  0.6890
   59MOL   H18620022   1.473   6.765   7.684  1.9973 -4.5146 -1.2506
   59MOL   H18720023   1.315   6.642   7.732  0.2900  2.2083 -0.6418
   59MOL   H18820024   1.409   6.561   7.871 -0.6754 -0.4543  0.8808
   59MOL   C18920025   1.137   6.986   0.088 -0.5698  0.3651  0.0594
   59MOL   C19020026   1.156   7.081   7.866 -0.3187 -0.7826  0.1680
   59MOL   N19120027   1.039   7.071   7.776  0.4977  0.3504 -0.7227
   59MOL   C19220028   1.053   7.019   7.637 -0.2808 -0.2506  0.2233
   59MOL   C19320029   0.915   7.016   7.575 -0.5747  0.3852  0.3144
   59MOL   C19420030   0.828   7.093   7.677 -0.6920 -0.1899  0.6852
   59MOL   C19520031   0.911   7.104   7.805 -0.4164  0.8932  0.5889
   59MOL   O19620032   0.865   7.157   7.905  0.7618  0.1538  0.2376
   59MOL   H19720033   1.079   7.041   0.162  2.4605  1.8848  1.4199
   59MOL   H19820034   1.065   6.907   0.067 -1.7419  1.2417  0.6726
   59MOL   H19920035   1.236   7.041   7.804  1.4631 -1.1875  2.6491
   59MOL   H20020036   1.118   7.077   7.571  1.8054 -1.0934  1.4555
   59MOL   H20120037   1.085   6.915   7.646  2.5504  0.5062 -0.4682
   59MOL   H20220038   0.920   7.039   7.469  0.3272 -0.0537  0.2612
   59MOL   H20320039   0.872   6.916   7.575 -1.1913  0.6457  0.1897
   59MOL   H20420040   0.808   7.195   7.645 -2.1197 -0.0105  2.1067
   59MOL   H20520041   0.737   7.048   7.715 -1.8503  0.4136 -1.3007
   59MOL   C20620042   1.185   7.224   0.017 -0.7106 -0.3908  0.4957
   59MOL   C20720043   1.210   7.331   7.809 -0.2607  0.4478  0.7753
   59MOL   N20820044   1.236   7.466   7.866  0.1257 -0.2693  0.0942
   59MOL   C20920045   1.373   7.498   0.007 -0.0536  0.0850 -0.1339
   59MOL   C21020046   1.357   7.635   0.062  0.0260  0.3881  0.0434
   59MOL   C21120047   1.228   7.692   0.018  0.5200  0.0763 -0.4089
   59MOL   C21220048   1.150   7.566   7.883  0.0170  0.2406 -0.1815
   59MOL   O21320049   1.030   7.572   7.858 -0.0626 -0.2330 -0.4737
   59MOL   H21420050   1.277   7.222   0.076  0.6791 -0.7141 -1.6503
   59MOL   H21520051   1.105   7.257   0.084 -1.5776 -1.7202  0.1325
   59MOL   H21620052   1.113   7.327   7.760 -1.2872  0.1729  2.7569
   59MOL   H21720053   1.390   7.423   0.084  0.6887 -1.1239 -1.4523
   59MOL   H21820054   1.454   7.498   7.840  0.9498  1.7570  0.9590
   59MOL   H21920055   1.355   7.621   0.170  2.2899  3.1770  0.5089
   59MOL   H22020056   1.437   7.696   0.020  0.1494  0.1639 -0.0512
   59MOL   H22120057   1.171   7.737   0.099  1.0534  2.4978 -1.3339
   59MOL   H22220058   1.251   7.767   7.848 -0.1323  0.6490 -0.0412
   59MOL   C22320059   1.317   7.287   7.712  0.3057 -0.1861 -0.3582
   59MOL   C22420060   1.354   7.379   7.594 -0.3958 -0.1881 -0.3022
   59MOL   N22520061   1.474   7.329   7.526  0.2070 -0.5782 -0.3960
   59MOL   C22620062   1.592   7.421   7.526 -0.5937 -0.0813  0.2915
   59MOL   C22720063   1.711   7.323   7.507 -0.2163 -0.2765  0.5774
   59MOL   C22820064   1.654   7.194   7.467  1.0123  0.4772  0.2083
   59MOL   C22920065   1.506   7.203   7.495  0.4168 -0.2209  0.1445
   59MOL   O23020066   1.438   7.101   7.497 -0.3122  0.2179  0.0814
   59MOL   H23120067   1.282   7.198   7.660 -0.4344 -0.8721  1.2886
   59MOL   H23220068   1.409   7.256   7.762 -0.0690 -1.5071 -0.4847
   59MOL   H23320069   1.374   7.479   7.632 -1.0281  0.4745 -1.6676
   59MOL   H23420070   1.583   7.489   7.441  1.4225 -1.8648 -1.4085
   59MOL   H23520071   1.600   7.481   7.617 -1.0020 -0.9169  0.8887
   59MOL   H23620072   1.782   7.363   7.435  2.0825 -0.6335  2.5867
   59MOL   H23720073   1.759   7.309   7.604  0.9978 -0.6998 -0.0639
   59MOL   H23820074   1.649   7.184   7.358  1.3505  2.6666 -0.0298
   59MOL   H23920075   1.698   7.108   7.517 -0.8897 -0.3895  0.4561
   59MOL   C24020076   1.230   7.389   7.495 -0.5283  0.0446 -1.1072
   59MOL   C24120077   1.250   7.442   7.352 -0.0685  0.1155  0.7056
   59MOL   N24220078   1.287   7.331   7.262 -0.9668 -0.1632 -0.2048
   59MOL   C24320079   1.409   7.347   7.180  0.3638  0.3824  0.2222
   59MOL   C24420080   1.398   7.235   7.076 -0.5118 -0.2955 -0.0944
   59MOL   C24520081   1.277   7.153   7.107  0.7595  0.0356 -0.1472
   59MOL   C24620082   1.207   7.233   7.219  0.9100  0.4199  0.1199
   59MOL   O24720083   1.094   7.208   7.260 -0.2792 -0.5513  0.0913
   59MOL   H24820084   1.153   7.446   7.548 -0.5456 -1.4103  0.4739
   59MOL   H24920085   1.184   7.292   7.478 -0.7256  0.0100 -0.3978
   59MOL   H25020086   1.330   7.515   7.364 -1.3693  1.6648  0.0172
   59MOL   H25120087   1.417   7.438   7.121 -1.3765  1.0459  0.9601
   59MOL   H25220088   1.500   7.327   7.236  0.0391 -0.2574  0.5392
   59MOL   H25320089   1.393   7.268   6.972 -0.4499 -1.3511 -0.4470
   59MOL   H25420090   1.493   7.182   7.079 -2.2393 -3.4872  1.3913
   59MOL   H25520091   1.209   7.131   7.025  1.4525 -2.8345  0.0009
   59MOL   H25620092   1.299   7.053   7.146  0.7955 -0.2052 -0.7841
   59MOL   C25720093   1.128   7.509   7.290 -0.2241  0.3852  0.5356
   59MOL   C25820094   1.138   7.540   7.143 -0.0151 -0.2540 -0.5232
   59MOL   N25920095   0.998   7.564   7.092 -0.4588  0.1577  0.2997
   59MOL   C26020096   0.920   7.458   7.040  0.4027 -0.1064 -0.6536
   59MOL   C26120097   0.794   7.538   6.979 -0.8842 -0.0882 -0.2086
   59MOL   C26220098   0.784   7.667   7.054 -0.1888 -0.0032 -0.8972
   59MOL   C26320099   0.922   7.676   7.108 -0.0768 -0.4664 -0.5888
   59MOL   O26420100   0.961   7.774   7.172  0.0638 -0.1946 -0.0876
   59MOL   H26520101   1.114   7.603   7.344 -2.9218  0.9853 -1.0705
   59MOL   H26620102   1.038   7.449   7.300  0.2536 -0.6191 -1.0634
   59MOL   H26720103   1.166   7.449   7.090 -2.3051 -0.6216 -1.1683
   59MOL   H26820104   0.982   7.400   6.972  3.6028 -1.2633  3.0348
   59MOL   H26920105   0.893   7.397   7.127 -0.2175  0.0818 -0.7097
   59MOL   H27020106   0.811   7.551   6.872  4.7447 -1.2077  0.4290
   59MOL   H27120107   0.700   7.483   6.985 -0.2855 -1.3874 -2.2498
   59MOL   H27220108   0.748   7.748   6.990 -2.8474 -1.3796 -1.2346
   59MOL   H27320109   0.709   7.645   7.130  0.5061  1.5215  0.2660
   59MOL   C27420110   1.248   7.650   7.108  0.5526  0.2882 -0.3483
   59MOL   C27520111   1.272   7.683   6.966  0.5982 -0.0079 -0.0837
   59MOL   N27620112   1.349   7.807   6.970  0.7295 -0.3125 -1.3198
   59MOL   C27720113   1.286   0.022   6.914 -0.1558 -0.1373  0.2368
   59MOL   C27820114   1.393   0.134   6.916 -0.4789  0.0541 -0.7360
   59MOL   C27920115   1.505   0.071   7.002  0.2939  0.6467  0.4545
   59MOL   C28020116   1.470   7.833   7.010  0.0095  0.4225 -0.5497
   59MOL   O28120117   1.538   7.755   7.072  0.1442 -0.2301  0.8184
   59MOL   H28220118   1.345   7.635   7.156  0.8177 -3.0455 -1.7480
   59MOL   H28320119   1.205   7.737   7.158 -0.6994 -0.2611 -0.4365
   59MOL   H28420120   1.175   7.702   6.919 -0.1767  0.4251  1.6793
   59MOL   H28520121   1.243   0.002   6.816 -0.7511 -0.3098  0.5318
   59MOL   H28620122   1.202   0.048   6.979 -1.0010 -0.0053 -0.8891
   59MOL   H28720123   1.440   0.173   6.825  2.7278 -0.8422  0.4496
   59MOL   H28820124   1.361   0.226   6.964  0.1310 -0.5597  0.8821
   59MOL   H28920125   1.599   0.069   6.948 -0.3265  0.8054 -0.6496
   59MOL   H29020126   1.508   0.117   7.101  0.3512  1.0989  0.2448
   59MOL   C29120127   1.343   7.572   6.887 -0.1336  0.1413  0.5909
   59MOL   C29220128   1.319   7.580   6.729 -0.9809  0.1423 -0.2103
   59MOL   N29320129   1.404   7.683   6.664 -0.2268 -0.4440  0.7001
   59MOL   C29420130   1.339   7.787   6.584  0.6107 -0.4460  0.2751
   59MOL   C29520131   1.447   7.881   6.529 -0.1081 -0.2645 -0.6027
   59MOL   C29620132   1.577   7.822   6.590 -0.0566 -0.1177  0.2288
   59MOL   C29720133   1.532   7.700   6.667 -0.5474  0.0260 -0.2679
   59MOL   O29820134   1.614   7.617   6.714 -0.0802 -0.3029 -0.2243
   59MOL   H29920135   1.297   7.478   6.919 -1.3072 -0.4080 -2.5253
   59MOL   H30020136   1.449   7.572   6.912 -0.2495  0.3886  1.0737
   59MOL   H30120137   1.218   7.616   6.711 -0.4762  2.8663  1.9567
   59MOL   H30220138   1.305   7.745   6.489  3.2185 -0.5346 -0.6702
   59MOL   H30320139   1.257   7.836   6.637  0.4923 -1.4049  0.9825
   59MOL   H30420140   1.460   7.880   6.420 -0.3394  2.2469 -0.6944
   59MOL   H30520141   1.430   0.079   6.560  1.1139 -0.8563  2.1259
   59MOL   H30620142   1.664   7.802   6.527 -0.9062 -0.5820 -0.8121
   59MOL   H30720143   1.613   7.878   6.676  1.4672  0.6657 -0.8949
   59MOL   C30820144   1.342   7.445   6.658  0.4859 -0.2577 -0.6418
   59MOL   C30920145   1.216   7.358   6.665  0.2247 -0.4772  0.5002
   59MOL   N31020146   1.103   7.419   6.592 -0.1506  0.0450 -0.2639
   59MOL   C31120147   0.978   7.442   6.656  0.9960 -0.2131  0.7172
   59MOL   C31220148   0.886   7.518   6.562 -0.0083 -0.2447  0.3143
   59MOL   C31320149   0.967   7.529   6.429 -0.4433  0.3018  0.3004
   59MOL   C31420150   1.098   7.462   6.466  0.6674  0.3737  0.7906
   59MOL   O31520151   1.182   7.428   6.377  0.4224  0.1694 -0.5707
   59MOL   H31620152   1.433   7.400   6.697 -0.1754 -2.1825 -1.3024
   59MOL   H31720153   1.372   7.479   6.559 -0.9323  0.1655 -0.9427
   59MOL   H31820154   1.178   7.349   6.767  0.0688  0.2456  0.5116
   59MOL   H31920155   0.938   7.342   6.673  0.0246 -0.0160 -0.3464
   59MOL   H32020156   0.978   7.488   6.755  0.0285  0.0826  0.5853
   59MOL   H32120157   0.802   7.454   6.536 -0.0857  0.2472 -0.6638
   59MOL   H32220158   0.849   7.614   6.599 -0.7038 -0.6794  0.7478
   59MOL   H32320159   0.924   7.457   6.360  3.0215 -2.3687  0.7628
   59MOL   H32420160   0.986   7.627   6.387  0.3776  0.6359  1.4241
   59MOL   C32520161   1.244   7.210   6.635  0.1998 -0.0573 -0.3955
   59MOL   C32620162   1.132   7.111   6.666  0.1093  0.2876  0.9457
   59MOL   N32720163   1.171   6.973   6.654 -0.1009  0.3438 -0.1703
   59MOL   C32820164   1.107   6.886   6.553  0.7194  0.1875  0.3670
   59MOL   C32920165   1.162   6.743   6.580  0.5815  0.0864  0.3554
   59MOL   C33020166   1.276   6.761   6.682  0.4527  0.3677 -0.4342
   59MOL   C33120167   1.258   6.903   6.731 -0.2589 -0.4918  0.2002
   59MOL   O33220168   1.310   6.941   6.832  0.2441 -0.3604  0.0700
   59MOL   H33320169   1.338   7.188   6.685  1.0057  0.9235 -1.4555
   59MOL   H33420170   1.273   7.187   6.532  0.2255  0.6927 -0.5596
   59MOL   H33520171   1.053   7.134   6.595  0.1808 -0.4778  0.6231
   59MOL   H33620172   0.998   6.889   6.554  0.6815 -0.8578 -0.6918
   59MOL   H33720173   1.138   6.920   6.454  0.4143 -0.3971  0.0729
   59MOL   H33820174   1.087   6.673   6.618  0.0330  0.4412 -0.0646
   59MOL   H33920175   1.201   6.690   6.494 -0.3946  1.1166 -0.7452
   59MOL   H34020176   1.269   6.689   6.764  2.3368  1.1975  0.4882
   59MOL   H34120177   1.376   6.743   6.643  0.4821  2.3461 -1.3262
   59MOL   H34220178   1.092   7.121   6.766 -0.8869 -0.3489  0.6114
   60MOL     C120179   1.066   2.657   2.361 -0.1356  1.0840  0.1502
   60MOL     C220180   0.924   2.601   2.385 -0.1293 -0.2485  0.2059
   60MOL     N320181   0.824   2.708   2.389 -0.0880 -0.1386  0.4807
   60MOL     C420182   0.706   2.702   2.482 -0.0162 -0.0148  0.3232
   60MOL     C520183   0.642   2.846   2.474  0.5446 -0.4947 -0.3115
   60MOL     C620184   0.694   2.907   2.339  1.1951 -0.1954  0.4953
   60MOL     C720185   0.808   2.807   2.300 -0.5301 -0.0659 -0.0274
   60MOL     O820186   0.875   2.821   2.195 -0.0117  0.2342  0.4341
   60MOL     H920187   1.092   2.675   2.257  0.8573  0.3591  0.2652
   60MOL    H1020188   1.079   2.755   2.408 -0.0298  0.4086  1.5710
   60MOL    H1120189   0.922   2.561   2.486  0.2556 -3.1547 -0.8845
   60MOL    H1220190   0.645   2.623   2.437 -1.5562  1.0719  0.4883
   60MOL    H1320191   0.723   2.674   2.586 -1.3044 -0.4952  0.4137
   60MOL    H1420192   0.533   2.845   2.480  0.6040 -2.7583  0.7329
   60MOL    H1520193   0.678   2.903   2.560  2.8989 -3.6104  0.8480
   60MOL    H1620194   0.620   2.901   2.259  0.4916  1.4820  1.0038
   60MOL    H1720195   0.724   3.009   2.362 -1.8990  0.9803 -0.3910
   60MOL    H1820196   1.144   2.593   2.402 -0.7466 -0.0803 -0.4748
   60MOL    C1920197   0.883   2.491   2.285  0.3640  0.0541 -0.1330
   60MOL    C2020198   0.980   2.366   2.286  0.4863 -0.3238 -0.1039
   60MOL    N2120199   0.952   2.280   2.400 -0.3614  0.2439  0.0285
   60MOL    C2220200   0.815   2.243   2.449  0.3482  0.5424  0.1082
   60MOL    C2320201   0.847   2.167   2.572 -1.0283  0.1269 -0.0090
   60MOL    C2420202   0.994   2.128   2.572 -0.4945 -0.1658 -0.2217
   60MOL    C2520203   1.051   2.220   2.465 -0.1431  0.3148  0.8301
   60MOL    O2620204   1.173   2.229   2.452 -0.2305  0.1387  0.3032
   60MOL    H2720205   0.876   2.529   2.183  1.5243 -2.0680 -1.0298
   60MOL    H2820206   0.783   2.457   2.312  0.3217  0.4023  0.1477
   60MOL    H2920207   1.079   2.410   2.288  0.6639 -0.7233  0.0523
   60MOL    H3020208   0.755   2.329   2.479 -1.6013 -0.3662 -1.0312
   60MOL    H3120209   0.746   2.191   2.383  0.3126 -0.9048  1.2684
   60MOL    H3220210   0.823   2.227   2.660  1.1471  3.2963 -1.5081
   60MOL    H3320211   0.787   2.077   2.582  0.4934 -0.8143  0.9345
   60MOL    H3420212   1.042   2.148   2.668  0.6456 -0.8371 -0.6492
   60MOL    H3520213   1.017   2.025   2.547  0.0004  0.0137 -0.5186
   60MOL    C3620214   0.967   2.290   2.147 -0.7625  0.0449  0.6850
   60MOL    C3720215   1.106   2.232   2.091  0.2998  0.1065  0.1378
   60MOL    N3820216   1.074   2.141   1.983  0.5138  0.3712  0.2643
   60MOL    C3920217   1.074   1.997   2.017  0.1518 -0.4583 -0.1324
   60MOL    C4020218   1.050   1.927   1.886  0.0760  0.1286 -0.0494
   60MOL    C4120219   0.984   2.038   1.791 -0.0201  0.4509 -0.1181
   60MOL    C4220220   1.021   2.167   1.861  0.0126 -0.7169  0.1305
   60MOL    O4320221   0.981   2.277   1.815 -0.6459  0.0148  0.0802
   60MOL    H4420222   0.929   2.355   2.068 -0.6819 -1.0462 -0.2583
   60MOL    H4520223   0.897   2.207   2.143 -1.1545  0.3753  0.5967
   60MOL    H4620224   1.155   2.182   2.174  0.8760  0.0305 -0.2476
   60MOL    H4720225   1.169   1.966   2.061 -1.1030 -4.0386  0.2510
   60MOL    H4820226   1.000   1.965   2.091 -0.0078 -0.1886 -0.1725
   60MOL    H4920227   1.140   1.885   1.841  0.2045  0.9857 -0.6104
   60MOL    H5020228   0.978   1.845   1.889  1.4591 -1.0952  0.0305
   60MOL    H5120229   1.019   2.044   1.688  2.1619 -0.4178  0.5435
   60MOL    H5220230   0.875   2.036   1.790 -0.0420  0.7510  0.9382
   60MOL    C5320231   1.209   2.336   2.048  0.1722 -0.1444  0.2635
   60MOL    C5420232   1.335   2.290   1.983  0.6791 -0.2855  0.5682
   60MOL    N5520233   1.352   2.354   1.853  0.0874 -0.8102 -0.3158
   60MOL    C5620234   1.347   2.271   1.736  0.2413  0.2897  0.7467
   60MOL    C5720235   1.363   2.354   1.615  0.5129 -0.5576  1.2693
   60MOL    C5820236   1.399   2.497   1.671 -0.3899  0.5968 -0.2571
   60MOL    C5920237   1.386   2.478   1.825 -0.0888  0.6949  0.4937
   60MOL    O6020238   1.407   2.571   1.902 -0.0197  0.0228 -0.3778
   60MOL    H6120239   1.241   2.373   2.145 -0.9451 -2.0265  1.3643
   60MOL    H6220240   1.157   2.424   2.007  1.3859  1.1711  1.4968
   60MOL    H6320241   1.333   2.186   1.953 -0.3027 -0.1228  0.0539
   60MOL    H6420242   1.436   2.209   1.731 -0.2304 -0.3228 -0.2369
   60MOL    H6520243   1.265   2.200   1.744  0.9016 -0.6360 -0.6764
   60MOL    H6620244   1.446   2.328   1.549 -0.0326  0.2247  0.2522
   60MOL    H6720245   1.274   2.362   1.552  0.4925 -0.3615  1.3225
   60MOL    H6820246   1.502   2.517   1.641  0.7762 -2.6594  1.2554
   60MOL    H6920247   1.328   2.571   1.636  0.5927  1.2970 -0.7953
   60MOL    C7020248   1.459   2.310   2.074  0.4502 -0.2483  0.5108
   60MOL    C7120249   1.476   2.227   2.208  0.3277  0.1266  0.4394
   60MOL    N7220250   1.449   2.077   2.181  1.1143 -0.4628 -0.3716
   60MOL    C7320251   1.381   1.996   2.282  0.6508 -0.0092 -0.1597
   60MOL    C7420252   1.405   1.853   2.248  0.0791 -0.5719 -1.3261
   60MOL    C7520253   1.462   1.848   2.111  0.2209 -0.6154 -0.1514
   60MOL    C7620254   1.468   1.997   2.072 -0.6374  0.0315  0.5001
   60MOL    O7720255   1.511   2.034   1.961 -0.1191 -0.4368  0.2603
   60MOL    H7820256   1.471   2.414   2.103  1.5225 -0.7757  2.0208
   60MOL    H7920257   1.537   2.286   2.001 -1.2707 -1.8441 -0.8459
   60MOL    H8020258   1.392   2.258   2.270 -2.1841  0.1303 -2.8421
   60MOL    H8120259   1.430   2.033   2.372 -1.5061  0.7303  0.7450
   60MOL    H8220260   1.273   2.007   2.282  0.4120 -1.5725  3.4937
   60MOL    H8320261   1.477   1.816   2.321 -2.5925  1.9560  2.7607
   60MOL    H8420262   1.310   1.800   2.254  0.4049 -1.2769 -2.3235
   60MOL    H8520263   1.564   1.814   2.128  0.1887 -0.0211  1.2747
   60MOL    H8620264   1.433   1.786   2.026  2.0623 -1.3357 -0.2892
   60MOL    C8720265   1.616   2.249   2.272 -0.0447  0.0162 -0.6311
   60MOL    C8820266   1.634   2.369   2.366 -0.0761 -0.0500 -0.0453
   60MOL    N8920267   1.542   2.367   2.485  0.3521 -0.6670  0.5180
   60MOL    C9020268   1.472   2.487   2.513  0.7108 -0.1601  0.2535
   60MOL    C9120269   1.376   2.447   2.629  0.4822 -0.5547 -0.1487
   60MOL    C9220270   1.404   2.309   2.668 -0.1040 -0.1061  0.1219
   60MOL    C9320271   1.512   2.273   2.571 -1.3633  0.3749 -0.2284
   60MOL    O9420272   1.567   2.161   2.575  0.6593  0.8615 -0.8586
   60MOL    H9520273   1.682   2.275   2.190 -2.1849  1.8507 -1.8122
   60MOL    H9620274   1.665   2.159   2.309  2.8966 -0.0352 -4.4092
   60MOL    H9720275   1.612   2.459   2.308 -0.9879 -1.8028 -2.4987
   60MOL    H9820276   1.541   2.567   2.540  1.2825 -0.1655 -1.1795
   60MOL    H9920277   1.412   2.522   2.429  1.0782 -1.6102 -0.6423
   60MOL   H10020278   1.391   2.514   2.714 -1.5687  1.1572 -1.1041
   60MOL   H10120279   1.270   2.465   2.612  0.2234 -0.2228  1.6982
   60MOL   H10220280   1.453   2.291   2.764  0.9545  3.6155  0.3578
   60MOL   H10320281   1.322   2.239   2.652  0.7883 -0.6879 -2.0410
   60MOL   C10420282   1.782   2.405   2.416 -0.4986  0.0863 -0.0582
   60MOL   C10520283   1.892   2.444   2.304 -0.0558 -0.3622 -0.1569
   60MOL   N10620284   1.839   2.548   2.211 -0.4536 -0.6189  0.0861
   60MOL   C10720285   1.796   2.512   2.074  0.4717  0.0830 -0.6528
   60MOL   C10820286   1.777   2.648   2.006  0.0246  0.1038 -0.0039
   60MOL   C10920287   1.742   2.748   2.116 -0.5868 -0.2551 -0.6936
   60MOL   C11020288   1.799   2.675   2.239  0.0461  0.2041  0.0050
   60MOL   O11120289   1.798   2.723   2.347 -0.7196 -0.4519 -0.6102
   60MOL   H11220290   1.826   2.323   2.473 -0.6334 -0.3142 -0.5241
   60MOL   H11320291   1.776   2.488   2.486 -0.5531  0.6259 -0.6981
   60MOL   H11420292   1.916   2.359   2.239  0.7066  1.2626 -2.0391
   60MOL   H11520293   1.858   2.439   2.022 -0.0094 -1.7899  1.3169
   60MOL   H11620294   1.699   2.464   2.086 -0.5198  1.9763 -0.8431
   60MOL   H11720295   1.866   2.682   1.954  0.2111 -1.7696 -0.9470
   60MOL   H11820296   1.692   2.634   1.939  1.8366 -0.9782 -2.1289
   60MOL   H11920297   1.635   2.767   2.128 -0.3939  1.2273 -1.1090
   60MOL   H12020298   1.793   2.843   2.097 -1.8159  0.1559 -2.0693
   60MOL   C12120299   2.026   2.480   2.367 -0.2143 -0.1668 -0.6187
   60MOL   C12220300   2.088   2.372   2.459 -0.8462 -0.2293 -0.3504
   60MOL   N12320301   2.233   2.350   2.417  0.2708  0.4966  0.4414
   60MOL   C12420302   2.292   2.219   2.391 -0.5942 -0.0835  0.2783
   60MOL   C12520303   2.431   2.238   2.343 -0.2061 -0.6365 -0.5597
   60MOL   C12620304   2.470   2.382   2.367  0.4189  0.1527 -0.4679
   60MOL   C12720305   2.332   2.443   2.400 -0.2795 -0.2037 -0.4653
   60MOL   O12820306   2.310   2.566   2.401 -0.0738 -0.1773 -0.3528
   60MOL   H12920307   1.999   2.572   2.419 -0.6576  0.8796 -2.6444
   60MOL   H13020308   2.096   2.512   2.289 -0.7875 -1.6390 -1.7556
   60MOL   H13120309   2.040   2.274   2.462 -0.0650 -0.6214 -0.7270
   60MOL   H13220310   2.237   2.171   2.310 -0.5292  1.2986 -0.5970
   60MOL   H13320311   2.292   2.156   2.480  0.8860  1.5860  1.4844
   60MOL   H13420312   2.490   2.177   2.411  2.7441  0.8317 -1.6883
   60MOL   H13520313   2.440   2.200   2.241 -1.8686  1.9618 -1.7408
   60MOL   H13620314   2.536   2.387   2.454  0.2510 -1.4999 -0.2170
   60MOL   H13720315   2.510   2.429   2.277  0.6177 -0.7534 -0.8657
   60MOL   C13820316   2.087   2.412   2.603  0.0292  0.5513 -0.2786
   60MOL   C13920317   2.131   2.298   2.705  0.0302 -0.3445  0.9059
   60MOL   N14020318   2.204   2.351   2.823 -0.1229  0.8127  0.1193
   60MOL   C14120319   2.132   2.413   2.931 -0.6075  0.4141  0.3855
   60MOL   C14220320   2.230   2.485   3.017 -0.0251  0.4136 -0.9362
   60MOL   C14320321   2.367   2.441   2.969 -0.0309  0.5406 -0.4073
   60MOL   C14420322   2.340   2.377   2.834 -0.0069 -0.5044  0.0186
   60MOL   O14520323   2.423   2.340   2.755  0.2486 -0.1610 -0.1232
   60MOL   H14620324   1.993   2.455   2.637 -1.5703 -2.6365 -0.4975
   60MOL   H14720325   2.168   2.483   2.617  0.0302  0.1029  2.1863
   60MOL   H14820326   2.197   2.233   2.646  1.1873 -0.0410  1.8312
   60MOL   H14920327   2.075   2.486   2.873 -1.2835 -0.2814  0.1692
   60MOL   H15020328   2.072   2.339   2.985  0.1636 -0.5261 -0.0263
   60MOL   H15120329   2.207   2.592   3.017  0.9368  0.6384  0.4448
   60MOL   H15220330   2.207   2.454   3.120  1.6358 -0.9898 -0.9740
   60MOL   H15320331   2.420   2.377   3.039 -0.4170 -0.9783 -1.4842
   60MOL   H15420332   2.425   2.533   2.957  1.4627 -0.4678 -1.0935
   60MOL   C15520333   2.019   2.203   2.750 -0.2789  0.0138  0.7702
   60MOL   C15620334   2.054   2.073   2.834 -0.0833 -0.1232  0.2367
   60MOL   N15720335   1.936   2.018   2.895  0.0210  0.2837  0.0344
   60MOL   C15820336   1.941   2.006   3.044 -0.4629  0.6913  0.5639
   60MOL   C15920337   1.791   1.972   3.078 -0.3211  0.2465 -0.0925
   60MOL   C16020338   1.710   1.961   2.953  0.4267 -0.2507 -0.2895
   60MOL   C16120339   1.819   1.979   2.845 -0.3117  0.4187  0.2417
   60MOL   O16220340   1.802   1.960   2.723 -0.4393 -0.5321  0.3125
   60MOL   H16320341   1.961   2.176   2.662 -1.3835  2.9831  0.5331
   60MOL   H16420342   1.942   2.262   2.800 -1.6373  0.9748 -2.3308
   60MOL   H16520343   2.115   2.099   2.920 -1.9357 -0.2922  1.6290
   60MOL   H16620344   2.003   1.917   3.058 -0.9073  0.4000  0.7046
   60MOL   H16720345   2.000   2.081   3.096  1.0160 -0.4231  0.5502
   60MOL   H16820346   1.782   1.882   3.139  0.9200  0.6003  0.6269
   60MOL   H16920347   1.748   2.053   3.137 -0.7431 -0.5779  0.7413
   60MOL   H17020348   1.669   1.860   2.944  3.2397 -1.3790 -0.8153
   60MOL   H17120349   1.628   2.033   2.943 -0.3886 -1.0773  0.3361
   60MOL   C17220350   2.127   1.965   2.753  0.2515  0.1901 -0.3817
   60MOL   C17320351   2.286   1.945   2.768 -1.2472 -1.0125  0.4933
   60MOL   N17420352   2.333   1.939   2.903  0.5464 -0.1321  0.0223
   60MOL   C17520353   2.450   2.016   2.946  0.5909 -0.6815  0.3603
   60MOL   C17620354   2.432   2.033   3.102 -0.8382  0.7388  0.1892
   60MOL   C17720355   2.350   1.909   3.132 -1.2600  0.5653 -0.4045
   60MOL   C17820356   2.287   1.864   3.004  0.4679  0.5349  0.0159
   60MOL   O17920357   2.200   1.781   3.012  0.4477 -0.2588  0.8474
   60MOL   H18020358   2.106   1.980   2.647 -0.3592  0.1776 -0.2639
   60MOL   H18120359   2.075   1.876   2.789  0.3142 -0.6095 -2.2050
   60MOL   H18220360   2.332   2.032   2.721  2.3006 -3.9632 -1.7942
   60MOL   H18320361   2.542   1.959   2.937  1.3883  0.4040  1.4577
   60MOL   H18420362   2.461   2.110   2.891  0.7813 -0.7451  0.2866
   60MOL   H18520363   2.379   2.128   3.113 -1.1262  0.8599 -2.0890
   60MOL   H18620364   2.522   2.041   3.163 -0.5892 -1.6281  0.1638
   60MOL   H18720365   2.410   1.831   3.178  0.5396  1.1582 -1.6997
   60MOL   H18820366   2.270   1.925   3.205 -1.2177  1.7408 -0.6018
   60MOL   C18920367   2.334   1.831   2.670  0.3093  0.0322 -0.0669
   60MOL   C19020368   2.488   1.802   2.670  0.4418  0.1777 -0.5034
   60MOL   N19120369   2.516   1.658   2.640 -0.2132  0.2015  0.0676
   60MOL   C19220370   2.618   1.587   2.722  1.1079  0.5548  0.2165
   60MOL   C19320371   2.598   1.443   2.693  0.1686 -0.4906  0.6112
   60MOL   C19420372   2.535   1.442   2.551 -0.4707 -0.3086  0.2078
   60MOL   C19520373   2.476   1.581   2.539  0.7140 -0.3068 -0.7129
   60MOL   O19620374   2.400   1.619   2.451 -0.2759 -0.4654 -0.6815
   60MOL   H19720375   2.304   1.865   2.571 -2.0052  0.2397  0.6833
   60MOL   H19820376   2.280   1.739   2.691  0.4757 -0.3454 -1.2523
   60MOL   H19920377   2.523   1.818   2.772 -4.1400  0.2983  1.1739
   60MOL   H20020378   2.717   1.602   2.678  0.7885  1.2468 -0.2797
   60MOL   H20120379   2.613   1.605   2.829 -2.5829  0.2280  0.1682
   60MOL   H20220380   2.675   1.365   2.693  0.1287 -0.6051  4.5891
   60MOL   H20320381   2.524   1.407   2.764  0.1338 -0.1639  0.7412
   60MOL   H20420382   2.613   1.423   2.477 -1.2416  0.9757 -0.9483
   60MOL   H20520383   2.458   1.366   2.536 -1.9435  1.4641 -1.3377
   60MOL   C20620384   2.561   1.890   2.569 -0.4580 -0.3617 -0.1025
   60MOL   C20720385   2.713   1.917   2.589  0.4429 -0.4879  0.6728
   60MOL   N20820386   2.772   1.987   2.476  0.3154  0.5534  0.4021
   60MOL   C20920387   2.830   1.916   2.360  0.0058  0.4785  0.3292
   60MOL   C21020388   2.833   2.016   2.250 -0.0342  0.2666  1.1640
   60MOL   C21120389   2.801   2.155   2.311 -0.6281 -0.5248  0.7355
   60MOL   C21220390   2.754   2.119   2.447  0.0184  0.6943  0.1197
   60MOL   O21320391   2.711   2.195   2.526 -0.1464 -0.3317  0.2292
   60MOL   H21420392   2.519   1.990   2.565  0.8003  0.2090  0.6979
   60MOL   H21520393   2.536   1.854   2.469  3.9209 -2.6688 -0.5291
   60MOL   H21620394   2.759   1.819   2.594  0.2036 -0.6079  0.5150
   60MOL   H21720395   2.923   1.860   2.376 -1.0043 -1.3036  0.1705
   60MOL   H21820396   2.752   1.842   2.339 -1.0180  1.7634 -0.4198
   60MOL   H21920397   2.925   2.012   2.191 -0.5433 -0.4110  0.4143
   60MOL   H22020398   2.756   1.987   2.179 -0.4085 -0.5094  1.8852
   60MOL   H22120399   2.893   2.213   2.318  0.0675 -1.1918 -2.2146
   60MOL   H22220400   2.717   2.206   2.264 -2.3083 -2.3270  1.7282
   60MOL   C22320401   2.746   1.980   2.730  0.3271 -0.2514  0.3700
   60MOL   C22420402   2.894   2.020   2.748  0.5052  0.8611  0.2330
   60MOL   N22520403   2.894   2.119   2.860  0.4301 -0.2070 -0.6090
   60MOL   C22620404   2.907   2.262   2.824  0.5375 -0.0309 -0.2748
   60MOL   C22720405   2.912   2.327   2.965  1.1700 -0.3914 -0.0020
   60MOL   C22820406   2.936   2.226   3.070  0.6798  0.6296 -0.3727
   60MOL   C22920407   2.904   2.101   2.993  0.6558 -0.2672 -0.1960
   60MOL   O23020408   2.887   1.992   3.055 -0.3385  0.1053  0.5600
   60MOL   H23120409   2.726   1.909   2.810  0.4405 -0.2998  0.3563
   60MOL   H23220410   2.683   2.067   2.745  1.7206  0.7246  0.7280
   60MOL   H23320411   2.921   2.077   2.659  0.0875  0.9906  0.1904
   60MOL   H23420412   2.994   2.270   2.759  0.5750 -0.6078 -0.3032
   60MOL   H23520413   2.817   2.282   2.766 -1.3791 -0.7668  2.3311
   60MOL   H23620414   2.982   2.410   2.954  0.8417 -0.4269 -2.7378
   60MOL   H23720415   2.817   2.375   2.990  1.2813  0.4967 -1.2397
   60MOL   H23820416   3.040   2.223   3.104 -0.2468  0.5330  2.5370
   60MOL   H23920417   2.877   2.239   3.160  2.4786 -0.6784  1.0398
   60MOL   C24020418   2.992   1.900   2.769 -0.4206 -0.2816 -0.2943
   60MOL   C24120419   3.144   1.925   2.753  0.2939 -0.5726 -0.3478
   60MOL   N24220420   3.206   2.018   2.849 -0.2002  1.0850 -0.3131
   60MOL   C24320421   3.254   1.981   2.983  0.0761  0.0453  1.0022
   60MOL   C24420422   3.344   2.096   3.028 -0.3244 -0.6489 -0.0119
   60MOL   C24520423   3.301   2.213   2.945 -0.0787 -0.0575 -0.1782
   60MOL   C24620424   3.242   2.142   2.826  0.4322  0.1224  0.3137
   60MOL   O24720425   3.239   2.196   2.714  0.3392 -0.3124 -0.3498
   60MOL   H24820426   2.963   1.811   2.713 -3.0801  0.6261 -0.4283
   60MOL   H24920427   2.976   1.862   2.870 -0.0089 -0.0920 -0.1572
   60MOL   H25020428   3.148   1.978   2.658  0.9012  0.4033  0.2130
   60MOL   H25120429   3.172   1.966   3.053  2.0132 -2.4308  2.8631
   60MOL   H25220430   3.308   1.886   2.988 -2.8400 -1.6165  1.8251
   60MOL   H25320431   3.340   2.123   3.134  1.0053 -0.9874  0.1374
   60MOL   H25420432   3.446   2.069   3.002  0.4138  2.9463 -1.1608
   60MOL   H25520433   3.224   2.267   3.000  1.3137  1.0206  0.7606
   60MOL   H25620434   3.383   2.280   2.918  1.8473 -1.7395  1.3308
   60MOL   C25720435   3.224   1.795   2.732  0.0788 -1.6975  0.3903
   60MOL   C25820436   3.378   1.801   2.703 -0.9815  0.5671  0.4284
   60MOL   N25920437   3.428   1.664   2.707 -0.7113  0.1903 -0.0840
   60MOL   C26020438   3.514   1.639   2.826  0.1427 -0.0670 -0.2649
   60MOL   C26120439   3.554   1.494   2.811  0.5861 -0.1640 -0.7676
   60MOL   C26220440   3.470   1.437   2.698 -0.2633 -0.0750  0.0939
   60MOL   C26320441   3.403   1.550   2.637 -0.3208 -0.0855 -0.3115
   60MOL   O26420442   3.333   1.530   2.543  0.3026 -0.2739 -0.3174
   60MOL   H26520443   3.176   1.732   2.656 -0.7056 -0.5370 -0.0871
   60MOL   H26620444   3.211   1.741   2.825  1.7213 -1.2192  0.9171
   60MOL   H26720445   3.399   1.863   2.791 -2.5845  0.5210  0.8655
   60MOL   H26820446   3.590   1.717   2.825 -1.5645  1.6227  0.1770
   60MOL   H26920447   3.461   1.647   2.921 -1.6714 -0.3503 -1.2333
   60MOL   H27020448   3.662   1.494   2.795  0.4869  0.9079 -1.4990
   60MOL   H27120449   3.533   1.429   2.896 -0.7444  1.8825  0.5134
   60MOL   H27220450   3.514   1.374   2.621 -2.7304 -1.2407 -0.4063
   60MOL   H27320451   3.395   1.373   2.744 -0.4965  0.4815  0.4960
   60MOL   C27420452   3.418   1.875   2.573 -0.5229 -0.6079  0.3848
   60MOL   C27520453   3.543   1.967   2.580  0.9601  0.4949 -0.5946
   60MOL   N27620454   3.664   1.895   2.621 -0.0178 -0.5463  1.0149
   60MOL   C27720455   3.744   1.938   2.732 -0.0128 -0.1997 -0.6046
   60MOL   C27820456   3.862   1.839   2.735  0.0989 -0.9349 -0.0649
   60MOL   C27920457   3.833   1.737   2.630  0.4457 -0.1307 -0.5902
   60MOL   C28020458   3.718   1.789   2.555  0.6833 -0.0944  0.1348
   60MOL   O28120459   3.668   1.737   2.450 -0.4928 -0.2581 -0.4453
   60MOL   H28220460   3.341   1.943   2.537  0.0784 -0.8816 -1.5216
   60MOL   H28320461   3.424   1.796   2.498  3.1523 -0.9644  0.9738
   60MOL   H28420462   3.517   2.032   2.663 -2.0822 -1.5916  0.1786
   60MOL   H28520463   3.781   2.040   2.723 -0.6731 -0.0144 -1.3157
   60MOL   H28620464   3.681   1.938   2.822 -3.5249 -0.8692 -2.9619
   60MOL   H28720465   3.963   1.882   2.732 -1.4105  2.8066 -0.4223
   60MOL   H28820466   3.865   1.775   2.822 -0.0258 -1.6460 -0.5777
   60MOL   H28920467   3.914   1.716   2.560  1.7011  1.0151  0.5050
   60MOL   H29020468   3.796   1.643   2.671  0.9221  0.4781  1.2666
   60MOL   C29120469   3.564   2.051   2.451 -0.4403 -0.1996  0.2316
   60MOL   C29220470   3.464   2.176   2.430  0.5469  0.2105 -0.3092
   60MOL   N29320471   3.526   2.299   2.471  0.0356  0.7609  0.4667
   60MOL   C29420472   3.510   2.347   2.611  0.0485  0.2503  0.1479
   60MOL   C29520473   3.585   2.488   2.598  0.0540 -0.5892 -0.2588
   60MOL   C29620474   3.688   2.468   2.490  0.3387 -0.0083 -0.1334
   60MOL   C29720475   3.628   2.353   2.412 -0.1741 -0.0193 -0.0871
   60MOL   O29820476   3.687   2.326   2.303  0.6698  0.1758 -0.1797
   60MOL   H29920477   3.563   1.977   2.371 -0.3684 -1.8798  1.7476
   60MOL   H30020478   3.669   2.081   2.448 -0.6691  0.5193 -0.7807
   60MOL   H30120479   3.384   2.151   2.500 -0.3486 -1.3024 -1.8104
   60MOL   H30220480   3.405   2.359   2.638  0.5647  1.8374  1.5339
   60MOL   H30320481   3.556   2.282   2.686  0.4272 -0.6709 -0.8662
   60MOL   H30420482   3.513   2.562   2.563  1.4048  0.6494 -0.4695
   60MOL   H30520483   3.625   2.519   2.695 -2.1397 -0.0867  0.5232
   60MOL   H30620484   3.714   2.560   2.437  0.6550 -0.5403 -0.9082
   60MOL   H30720485   3.783   2.429   2.528 -0.8854 -2.4647  0.5350
   60MOL   C30820486   3.389   2.190   2.296  0.5850 -0.0530 -0.0742
   60MOL   C30920487   3.327   2.327   2.261  0.6354  0.8645  0.1111
   60MOL   N31020488   3.279   2.333   2.122 -0.1587 -0.2967 -0.7648
   60MOL   C31120489   3.337   2.436   2.038 -0.2889 -0.4238  0.2276
   60MOL   C31220490   3.288   2.395   1.898  0.5567  0.1218  0.8291
   60MOL   C31320491   3.181   2.295   1.918  0.5153  0.0974  0.0939
   60MOL   C31420492   3.193   2.254   2.059 -0.4899  0.3639 -0.4239
   60MOL   O31520493   3.122   2.158   2.107 -0.3416  0.1685  0.1509
   60MOL   H31620494   3.318   2.108   2.287  0.2476  0.4037 -1.8232
   60MOL   H31720495   3.462   2.175   2.216  0.4931 -1.4443  0.0872
   60MOL   H31820496   3.411   2.397   2.261  2.9381 -1.8038  1.5098
   60MOL   H31920497   3.301   2.536   2.059  0.3078 -0.2025  0.2127
   60MOL   H32020498   3.445   2.452   2.035 -0.5312  1.4395  0.9033
   60MOL   H32120499   3.248   2.492   1.868  1.2796  0.6426  1.5117
   60MOL   H32220500   3.366   2.370   1.826  0.2724  2.4076 -0.3246
   60MOL   H32320501   3.080   2.335   1.902  0.2301 -0.2717  0.9326
   60MOL   H32420502   3.198   2.210   1.852  0.1897 -0.4103  0.6603
   60MOL   C32520503   3.207   2.357   2.357  0.2786 -0.5282 -0.5587
   60MOL   C32620504   3.138   2.496   2.355  0.8509  0.3896  0.5913
   60MOL   N32720505   3.035   2.520   2.458  0.0941 -0.2607  0.1201
   60MOL   C32820506   2.906   2.454   2.439 -0.8926  0.3164  0.4307
   60MOL   C32920507   2.804   2.548   2.514 -0.1726 -0.5026 -0.3862
   60MOL   C33020508   2.890   2.645   2.594  0.2909  0.0618 -0.9349
   60MOL   C33120509   3.031   2.632   2.529  0.3403  0.3988 -0.0353
   60MOL   O33220510   3.116   2.721   2.529  0.5495 -0.1586 -0.2283
   60MOL   H33320511   3.247   2.342   2.457 -0.8189  0.4500  0.0385
   60MOL   H33420512   3.128   2.283   2.341 -0.4705  0.2518 -0.5245
   60MOL   H33520513   3.094   2.509   2.256  0.8358 -2.7421  0.1558
   60MOL   H33620514   2.880   2.448   2.333 -0.4455 -1.1977  0.3951
   60MOL   H33720515   2.912   2.356   2.487  0.8542 -0.8167 -1.9963
   60MOL   H33820516   2.745   2.603   2.441  2.0826 -0.3536 -2.1523
   60MOL   H33920517   2.732   2.491   2.574 -0.3422  1.7634  1.6380
   60MOL   H34020518   2.860   2.749   2.598  0.6338  0.1552 -0.7289
   60MOL   H34120519   2.911   2.610   2.696 -0.1015  1.8927 -0.2094
   60MOL   H34220520   3.218   2.570   2.351  0.1461  1.1957  1.2861
   61MOL     C120521   3.360   3.298   3.317  1.0115  0.4127  0.3868
   61MOL     C220522   3.396   3.178   3.400 -0.2046  0.5998 -0.3011
   61MOL     N320523   3.396   3.055   3.319  0.1110  0.0714 -0.7498
   61MOL     C420524   3.307   2.947   3.372  0.2328 -0.0402 -0.2653
   61MOL     C520525   3.317   2.844   3.258 -0.0075  0.3342  0.3377
   61MOL     C620526   3.443   2.875   3.180  0.0920 -0.5362 -0.0298
   61MOL     C720527   3.491   3.004   3.238  0.3424  0.0600  0.8946
   61MOL     O820528   3.588   3.060   3.197 -0.8087  0.2005 -0.1935
   61MOL     H920529   3.428   3.306   3.233 -0.1964  2.3817 -0.4399
   61MOL    H1020530   3.263   3.293   3.269  1.0389  0.7764  0.2934
   61MOL    H1120531   3.320   3.175   3.479  0.2488  0.9364  0.1528
   61MOL    H1220532   3.367   2.916   3.458  1.4723 -0.1868 -1.1586
   61MOL    H1320533   3.212   2.992   3.398  0.2223 -0.6811  0.8535
   61MOL    H1420534   3.315   2.738   3.281 -0.3748  0.2907  0.1013
   61MOL    H1520535   3.234   2.861   3.190 -0.3451  1.2040  0.9531
   61MOL    H1620536   3.522   2.800   3.185 -1.5679 -2.2150  1.7401
   61MOL    H1720537   3.427   2.893   3.073  1.1448 -1.2101 -0.3089
   61MOL    H1820538   3.366   3.395   3.367  2.1916  0.0213  1.0435
   61MOL    C1920539   3.523   3.195   3.480  0.9239  0.4792 -0.4406
   61MOL    C2020540   3.532   3.323   3.578 -0.5876  0.2861  0.1183
   61MOL    N2120541   3.438   3.319   3.692  0.0462  0.6475 -0.1755
   61MOL    C2220542   3.369   3.438   3.729  0.6491 -0.2228 -0.3497
   61MOL    C2320543   3.308   3.403   3.869 -0.5695  0.4530  0.6167
   61MOL    C2420544   3.312   3.257   3.883 -0.8287 -0.1726  0.4660
   61MOL    C2520545   3.402   3.216   3.770 -0.6657 -0.4588 -0.8680
   61MOL    O2620546   3.445   3.102   3.761  0.3339 -0.3302 -0.6592
   61MOL    H2720547   3.604   3.216   3.410  0.1790 -0.1941 -1.5320
   61MOL    H2820548   3.554   3.102   3.528 -2.1654 -0.7740 -0.7665
   61MOL    H2920549   3.497   3.408   3.520 -1.6616  0.3721  0.8756
   61MOL    H3020550   3.451   3.509   3.729  0.2637  0.2439  1.0139
   61MOL    H3120551   3.288   3.459   3.658  0.0495 -1.2087  0.0313
   61MOL    H3220552   3.374   3.444   3.945  0.6705  2.5988 -1.5451
   61MOL    H3320553   3.205   3.439   3.876 -1.4044 -1.2052 -2.1715
   61MOL    H3420554   3.353   3.229   3.980  0.0362 -0.0594  0.1372
   61MOL    H3520555   3.211   3.216   3.880 -1.2635  0.8480  0.8248
   61MOL    C3620556   3.680   3.351   3.635  0.3440  0.1845 -0.6685
   61MOL    C3720557   3.778   3.404   3.525 -0.0721  0.4551  0.7492
   61MOL    N3820558   3.722   3.506   3.442  0.4210  0.3788  0.3608
   61MOL    C3920559   3.740   3.498   3.302 -0.3780 -0.1143  0.0830
   61MOL    C4020560   3.681   3.622   3.236  0.5173  0.1416 -0.7447
   61MOL    C4120561   3.654   3.715   3.356 -0.3943  0.0831 -0.3272
   61MOL    C4220562   3.660   3.623   3.476 -0.5813  0.1541 -0.1837
   61MOL    O4320563   3.633   3.661   3.587 -0.1064 -0.2053  0.0586
   61MOL    H4420564   3.724   3.263   3.683  0.9796  0.4038 -0.8385
   61MOL    H4520565   3.671   3.433   3.706  0.9917  1.8713 -2.5047
   61MOL    H4620566   3.803   3.317   3.464 -3.0311 -0.0978  0.2476
   61MOL    H4720567   3.846   3.506   3.280 -0.4846  1.0272 -0.0598
   61MOL    H4820568   3.705   3.400   3.270 -0.3673 -0.5762  1.4496
   61MOL    H4920569   3.742   3.676   3.164 -0.7766  1.2610 -1.0225
   61MOL    H5020570   3.582   3.600   3.197 -0.6073  1.4661  1.2863
   61MOL    H5120571   3.733   3.790   3.367 -0.3282 -0.1920  1.1759
   61MOL    H5220572   3.550   3.744   3.343 -0.6385  0.5710  2.4200
   61MOL    C5320573   3.915   3.461   3.579  0.8981 -0.2241  0.1612
   61MOL    C5420574   4.006   3.363   3.661 -0.2619  0.4147 -0.1244
   61MOL    N5520575   4.034   3.238   3.583 -0.3087  0.0735  0.2618
   61MOL    C5620576   3.994   3.107   3.628 -0.2925  0.1164  0.1163
   61MOL    C5720577   4.089   3.013   3.549 -0.5978  0.2154  1.1465
   61MOL    C5820578   4.110   3.086   3.420  0.0859  0.0181 -0.2663
   61MOL    C5920579   4.092   3.231   3.462 -0.2170  0.1707 -0.4865
   61MOL    O6020580   4.104   3.323   3.384  0.0101 -0.4294  0.0403
   61MOL    H6120581   3.894   3.548   3.641 -0.3570  1.0911 -2.0594
   61MOL    H6220582   3.969   3.501   3.494 -0.5765  2.3017  0.3658
   61MOL    H6320583   3.949   3.338   3.750 -0.4957  0.7589 -0.1769
   61MOL    H6420584   3.995   3.117   3.737 -0.4542  0.6878  0.0683
   61MOL    H6520585   3.887   3.096   3.612 -0.4295 -1.1311  1.7135
   61MOL    H6620586   4.187   3.009   3.596 -0.1002 -0.2674  0.0954
   61MOL    H6720587   4.060   2.909   3.533 -0.5169  0.4317 -0.5465
   61MOL    H6820588   4.207   3.051   3.384 -0.4986  0.1933 -2.0410
   61MOL    H6920589   4.031   3.062   3.349 -1.8978  2.3428  1.0628
   61MOL    C7020590   4.136   3.431   3.715  0.3515  0.3174  0.2573
   61MOL    C7120591   4.220   3.337   3.797  0.1320  0.2732 -0.3787
   61MOL    N7220592   4.358   3.385   3.810  0.0350  0.0025  0.4170
   61MOL    C7320593   4.455   3.340   3.714  0.1179  0.5201  0.1256
   61MOL    C7420594   4.561   3.456   3.696  0.8642  0.3528  0.5647
   61MOL    C7520595   4.545   3.530   3.825 -0.2033 -0.3630 -0.7722
   61MOL    C7620596   4.401   3.500   3.862 -0.6090  0.1453  0.0675
   61MOL    O7720597   4.340   3.583   3.924  0.6864  0.6237 -0.0677
   61MOL    H7820598   4.108   3.525   3.762  3.2498  3.3275 -3.6880
   61MOL    H7920599   4.188   3.467   3.626 -0.1766 -1.9772 -1.0354
   61MOL    H8020600   4.225   3.242   3.744  3.1237  0.7293 -0.9603
   61MOL    H8120601   4.504   3.246   3.740 -2.4001 -0.7125  0.5741
   61MOL    H8220602   4.417   3.312   3.615 -0.1016  1.5286 -0.0775
   61MOL    H8320603   4.660   3.410   3.695  0.1939 -1.1377  0.8033
   61MOL    H8420604   4.526   3.517   3.613 -1.6096  0.0321  1.3078
   61MOL    H8520605   4.604   3.482   3.904 -0.7408  2.0489  1.1592
   61MOL    H8620606   4.570   3.635   3.818 -1.6567  0.1750  1.4440
   61MOL    C8720607   4.162   3.293   3.931  0.1501 -0.4448  0.1693
   61MOL    C8820608   4.242   3.185   4.003  0.9183  0.1037 -0.5576
   61MOL    N8920609   4.208   3.196   4.148 -0.0074  0.1918  0.0882
   61MOL    C9020610   4.309   3.249   4.242  0.6779 -0.0346 -0.1069
   61MOL    C9120611   4.253   3.243   4.385 -0.1554 -0.1554  0.2958
   61MOL    C9220612   4.099   3.214   4.363 -0.0190 -0.1418  0.2794
   61MOL    C9320613   4.093   3.174   4.214  0.2110  0.4191  0.1250
   61MOL    O9420614   3.984   3.144   4.165  0.1774  0.0393  0.0053
   61MOL    H9520615   4.064   3.248   3.918 -0.5634  1.2780 -0.4675
   61MOL    H9620616   4.156   3.382   3.993 -0.2184  0.9245 -1.7739
   61MOL    H9720617   4.349   3.202   3.991  0.9143 -1.8831 -3.9658
   61MOL    H9820618   4.404   3.197   4.238  0.6056 -0.0285 -2.7814
   61MOL    H9920619   4.336   3.354   4.228 -1.3626  0.5732  0.2408
   61MOL   H10020620   4.293   3.159   4.442  0.9636 -0.0320 -0.3041
   61MOL   H10120621   4.256   3.334   4.444 -0.9064  0.6862 -0.9555
   61MOL   H10220622   4.064   3.130   4.422 -0.4730  0.7149  1.2494
   61MOL   H10320623   4.041   3.305   4.375 -1.8024 -0.9812 -1.7552
   61MOL   C10420624   4.203   3.037   3.951  0.2560  0.8361  0.3952
   61MOL   C10520625   4.306   2.923   3.976  0.1320 -0.1481 -0.8576
   61MOL   N10620626   4.245   2.793   3.988  1.0377  0.2173 -0.2767
   61MOL   C10720627   4.230   2.734   4.120 -0.0865  0.2251  0.4656
   61MOL   C10820628   4.158   2.601   4.100 -0.1012  0.1875  0.1248
   61MOL   C10920629   4.127   2.592   3.954 -0.2587  0.2114  0.0656
   61MOL   C11020630   4.166   2.727   3.898 -0.6733  0.1541 -0.0508
   61MOL   O11120631   4.130   2.755   3.785 -0.9106 -0.0956  0.0171
   61MOL   H11220632   4.182   3.041   3.844 -1.1900  1.6860  0.6917
   61MOL   H11320633   4.114   2.992   3.996  1.2729 -2.9774 -1.2567
   61MOL   H11420634   4.358   2.950   4.069  0.7286 -2.1878 -0.5576
   61MOL   H11520635   4.325   2.711   4.169  0.9816 -0.6070 -1.9147
   61MOL   H11620636   4.177   2.804   4.184 -1.4700  2.4579 -2.9743
   61MOL   H11720637   4.216   2.516   4.136  0.2280  0.4848  0.2977
   61MOL   H11820638   4.063   2.595   4.154  0.1351 -1.3285  0.3813
   61MOL   H11920639   4.021   2.576   3.934 -0.0381  0.0605 -1.0327
   61MOL   H12020640   4.192   2.528   3.893 -0.4352  0.5714 -0.4988
   61MOL   C12120641   4.410   2.939   3.865  0.4196 -0.2029 -0.1731
   61MOL   C12220642   4.544   2.861   3.882 -0.3220 -0.1788 -0.3004
   61MOL   N12320643   4.595   2.856   3.747  0.5217  0.3239  0.5622
   61MOL   C12420644   4.565   2.733   3.672 -0.1921  0.4226  0.0644
   61MOL   C12520645   4.624   2.759   3.535  0.4959 -0.1101 -0.0576
   61MOL   C12620646   4.648   2.909   3.522  0.0526 -0.0722  0.3955
   61MOL   C12720647   4.650   2.952   3.669  0.4608 -0.5027 -0.1351
   61MOL   O12820648   4.682   3.068   3.707  0.5541 -0.0853  0.4748
   61MOL   H12920649   4.432   3.044   3.849 -1.5389  0.3912  0.8941
   61MOL   H13020650   4.356   2.914   3.773  1.3030 -3.4129  0.0898
   61MOL   H13120651   4.528   2.757   3.909 -0.0549 -0.6443 -1.8573
   61MOL   H13220652   4.459   2.708   3.673  0.5734 -3.1237 -0.3238
   61MOL   H13320653   4.615   2.657   3.731 -1.2076  0.3137  0.7874
   61MOL   H13420654   4.721   2.710   3.540  0.9645  0.9093  1.0165
   61MOL   H13520655   4.568   2.723   3.448 -1.0289 -0.0433  0.8773
   61MOL   H13620656   4.747   2.928   3.480  0.7910 -3.0401  0.7109
   61MOL   H13720657   4.567   2.968   3.477  0.6506  0.7649  0.4060
   61MOL   C13820658   4.642   2.925   3.988 -0.8275 -0.0257 -0.3027
   61MOL   C13920659   4.632   2.847   4.121 -1.0538  0.7741 -0.5857
   61MOL   N14020660   4.698   2.715   4.123  0.2214  0.3512  0.0127
   61MOL   C14120661   4.844   2.706   4.106 -0.0503  0.2591  0.1007
   61MOL   C14220662   4.882   2.554   4.102 -0.3718 -0.1666 -0.2624
   61MOL   C14320663   4.747   2.482   4.088 -0.0977 -0.3555  0.0893
   61MOL   C14420664   4.643   2.595   4.111  0.2165 -0.3884 -0.9259
   61MOL   O14520665   4.526   2.573   4.096 -0.3591  0.7970  0.1366
   61MOL   H14620666   4.642   3.034   3.990  1.0616 -0.0255  0.8374
   61MOL   H14720667   4.742   2.919   3.945 -1.5323  1.5728 -2.2340
   61MOL   H14820668   4.525   2.824   4.118 -1.0596  0.4627  1.4785
   61MOL   H14920669   4.876   2.753   4.013  0.5129  0.4751  0.4018
   61MOL   H15020670   4.897   2.760   4.184  0.8822 -0.6538  0.1036
   61MOL   H15120671   4.949   2.539   4.017  1.1768  1.1380  0.6850
   61MOL   H15220672   4.929   2.536   4.198 -0.6108 -1.1487 -0.3293
   61MOL   H15320673   4.731   2.401   4.160 -1.5108 -0.1893 -0.0073
   61MOL   H15420674   4.716   2.450   3.988 -0.6941 -0.4219  0.2878
   61MOL   C15520675   4.655   2.939   4.247  0.0994  1.1293  0.2364
   61MOL   C15620676   4.638   2.863   4.386 -0.7303 -0.6440  0.3673
   61MOL   N15720677   4.773   2.843   4.457  0.8389  0.0527 -0.2325
   61MOL   C15820678   4.841   2.963   4.504 -0.1185  0.1936 -0.2230
   61MOL   C15920679   4.990   2.923   4.514 -0.1031  0.1583  0.3136
   61MOL   C16020680   4.990   2.772   4.487 -0.0636  0.7137 -0.1324
   61MOL   C16120681   4.850   2.734   4.450 -0.3096 -0.2596 -0.2604
   61MOL   O16220682   4.819   2.622   4.417 -0.1800 -0.4141  0.7443
   61MOL   H16320683   4.584   3.022   4.237 -2.3824 -0.9458  0.0976
   61MOL   H16420684   4.753   2.987   4.245  1.1042 -0.9245 -3.2035
   61MOL   H16520685   4.594   2.767   4.358  1.2474 -0.8219 -2.4047
   61MOL   H16620686   4.814   3.049   4.442 -1.2380  1.4825  1.9781
   61MOL   H16720687   4.816   2.998   4.604  0.6078  0.9067 -0.2872
   61MOL   H16820688   5.052   2.959   4.432  2.2870  0.2108  2.0524
   61MOL   H16920689   5.045   2.960   4.601  1.2039 -1.4824  0.2303
   61MOL   H17020690   5.059   2.756   4.404  0.9255 -1.0224  0.9722
   61MOL   H17120691   5.011   2.715   4.578 -1.3225 -2.6121 -1.8162
   61MOL   C17220692   4.519   2.928   4.460  0.0753  0.4218 -0.5638
   61MOL   C17320693   4.466   2.853   4.588  0.1493 -0.1239  0.1395
   61MOL   N17420694   4.442   2.943   4.701  0.2795 -0.5210  0.0611
   61MOL   C17520695   4.548   2.989   4.792 -0.3083  0.5743 -0.5974
   61MOL   C17620696   4.502   3.117   4.862  0.5355  0.3203  0.7515
   61MOL   C17720697   4.351   3.116   4.835  0.5749  0.3977  0.4593
   61MOL   C17820698   4.336   3.025   4.710 -0.1820 -0.1208 -0.7206
   61MOL   O17920699   4.240   3.035   4.634 -0.1180  0.3276 -0.0819
   61MOL   H18020700   4.434   2.952   4.395  1.8244  1.9636 -2.3617
   61MOL   H18120701   4.549   3.028   4.491  1.0831  0.0225 -0.2325
   61MOL   H18220702   4.554   2.795   4.619  0.2883  0.9009  1.7169
   61MOL   H18320703   4.560   2.918   4.874  0.2712  1.2736 -0.0712
   61MOL   H18420704   4.649   3.008   4.756 -0.5406  3.2604  0.0720
   61MOL   H18520705   4.546   3.201   4.808  0.1789  0.5770  0.8570
   61MOL   H18620706   4.544   3.115   4.962 -0.1912 -1.8500  1.0465
   61MOL   H18720707   4.292   3.062   4.909  1.1398  0.9403  1.3095
   61MOL   H18820708   4.300   3.212   4.827  1.2604  0.9020  1.9583
   61MOL   C18920709   4.349   2.753   4.563  0.8006  0.0705 -0.0929
   61MOL   C19020710   4.361   2.626   4.656  0.2680 -0.0398  0.0844
   61MOL   N19120711   4.401   2.655   4.795  0.3867  0.2802  0.4026
   61MOL   C19220712   4.526   2.612   4.850 -0.2426  0.0116 -0.2895
   61MOL   C19320713   4.521   2.658   4.998  0.8147  0.5353 -0.1390
   61MOL   C19420714   4.391   2.729   5.021 -0.7987  0.5480 -0.0291
   61MOL   C19520715   4.325   2.716   4.888 -0.0644  0.0730  0.0774
   61MOL   O19620716   4.219   2.777   4.870 -0.0428 -0.0864 -0.3115
   61MOL   H19720717   4.350   2.708   4.463  3.3211  1.6314 -0.8285
   61MOL   H19820718   4.255   2.807   4.563  1.3358  1.0493 -2.0644
   61MOL   H19920719   4.448   2.573   4.617  1.9329  2.3144  0.4665
   61MOL   H20020720   4.547   2.506   4.837  0.5907  0.0299  0.8937
   61MOL   H20120721   4.609   2.669   4.809  2.2190 -2.4890  1.0338
   61MOL   H20220722   4.528   2.574   5.067  1.2086 -1.1257 -2.1617
   61MOL   H20320723   4.599   2.726   5.034  0.6013  1.1820 -0.8730
   61MOL   H20420724   4.337   2.695   5.109  0.2530  0.7118  0.6910
   61MOL   H20520725   4.412   2.834   5.041 -1.1630  0.7275 -0.5565
   61MOL   C20620726   4.243   2.534   4.645  0.3926  0.2863 -0.0496
   61MOL   C20720727   4.218   2.454   4.519 -0.4838  0.7470 -0.4886
   61MOL   N20820728   4.336   2.383   4.471  0.0147  0.3377 -0.7222
   61MOL   C20920729   4.383   2.403   4.338 -0.5615 -0.0474 -0.3792
   61MOL   C21020730   4.525   2.344   4.324  0.4708  0.1794 -0.3558
   61MOL   C21120731   4.518   2.244   4.433  0.4355 -0.4824 -0.3891
   61MOL   C21220732   4.422   2.306   4.534 -0.1196  0.3639  0.5639
   61MOL   O21320733   4.420   2.275   4.654 -0.2136  0.1863 -0.1181
   61MOL   H21420734   4.148   2.581   4.669 -1.0562 -1.2517 -2.5317
   61MOL   H21520735   4.256   2.457   4.721 -1.9221 -0.6579 -0.5756
   61MOL   H21620736   4.188   2.531   4.447 -1.8945  1.1360  0.5043
   61MOL   H21720737   4.311   2.364   4.267 -1.8268  1.3567  0.1129
   61MOL   H21820738   4.392   2.510   4.316  1.3449 -0.0176  0.4164
   61MOL   H21920739   4.545   2.305   4.224 -2.2218 -0.7291 -0.5924
   61MOL   H22020740   4.602   2.417   4.346  1.9718 -1.3637 -0.3450
   61MOL   H22120741   4.493   2.147   4.391  0.7409 -0.4728 -0.5940
   61MOL   H22220742   4.611   2.245   4.491  0.0074  0.5421  0.2864
   61MOL   C22320743   4.105   2.355   4.550  0.0250 -0.3038  0.3634
   61MOL   C22420744   4.033   2.280   4.430  0.4575  0.0346 -0.3855
   61MOL   N22520745   3.965   2.162   4.484  0.6734 -0.2613 -0.2617
   61MOL   C22620746   3.988   2.028   4.430 -0.4035 -0.6827 -0.0244
   61MOL   C22720747   3.899   1.931   4.508 -0.3070  0.1859 -0.1027
   61MOL   C22820748   3.836   2.014   4.622 -0.4587 -0.1162  0.0630
   61MOL   C22920749   3.880   2.158   4.587  0.8057 -0.2267 -0.4522
   61MOL   O23020750   3.834   2.256   4.647  0.0506  0.5930 -0.0248
   61MOL   H23120751   4.028   2.410   4.604 -0.1421 -1.3594  1.2042
   61MOL   H23220752   4.148   2.274   4.609 -0.8824 -2.7021 -2.1640
   61MOL   H23320753   4.111   2.236   4.367  0.1892  0.8321 -1.2909
   61MOL   H23420754   3.970   2.010   4.324  3.3892 -1.7070 -0.5703
   61MOL   H23520755   4.091   1.993   4.433 -0.3662 -0.5343  0.5279
   61MOL   H23620756   3.808   1.905   4.454 -1.2683 -0.1099  1.6182
   61MOL   H23720757   3.948   1.840   4.541  0.6695 -0.1837 -2.4490
   61MOL   H23820758   3.728   2.009   4.639  0.1427 -0.1325  4.4099
   61MOL   H23920759   3.890   1.976   4.708  0.7293  0.0697 -0.5924
   61MOL   C24020760   3.931   2.362   4.352  0.2359  0.5854  0.2888
   61MOL   C24120761   3.835   2.287   4.247 -0.9134 -0.2435 -0.5546
   61MOL   N24220762   3.720   2.373   4.222 -0.3752  0.3307  0.6449
   61MOL   C24320763   3.589   2.312   4.224  0.3977 -0.3892 -0.2176
   61MOL   C24420764   3.491   2.410   4.164  0.1666 -0.1661  0.0394
   61MOL   C24520765   3.566   2.535   4.126 -0.4002  0.3683  0.3656
   61MOL   C24620766   3.714   2.491   4.153  1.1865 -1.3929 -0.5299
   61MOL   O24720767   3.803   2.559   4.111 -0.2324  0.4671 -0.2502
   61MOL   H24820768   3.984   2.445   4.307  1.1726  1.1662  2.3799
   61MOL   H24920769   3.861   2.400   4.427 -0.9629 -0.1029 -0.4671
   61MOL   H25020770   3.801   2.198   4.299  0.7911  0.2527  1.4935
   61MOL   H25120771   3.575   2.213   4.181 -1.9668 -0.1123 -0.1814
   61MOL   H25220772   3.564   2.294   4.329 -0.5971 -1.1505 -0.5771
   61MOL   H25320773   3.462   2.365   4.069  2.0319  1.2876 -1.2610
   61MOL   H25420774   3.400   2.431   4.221 -0.3033 -1.7348 -0.1112
   61MOL   H25520775   3.538   2.568   4.026  2.7592 -0.9034 -1.0099
   61MOL   H25620776   3.551   2.607   4.206  0.0534  0.4214  0.4052
   61MOL   C25720777   3.905   2.248   4.116 -0.2450  0.3297  0.1223
   61MOL   C25820778   3.817   2.193   4.006  0.4860 -0.6804  0.7277
   61MOL   N25920779   3.893   2.203   3.878 -0.0232  0.3779  0.5184
   61MOL   C26020780   3.843   2.292   3.778 -0.2127  0.2632 -0.3907
   61MOL   C26120781   3.945   2.288   3.666  0.2771 -0.1254  0.5664
   61MOL   C26220782   4.073   2.232   3.728 -0.4835  0.8541  0.5194
   61MOL   C26320783   4.018   2.161   3.851  0.0530  0.1057  0.4785
   61MOL   O26420784   4.077   2.086   3.924 -0.4055  0.0553 -0.0449
   61MOL   H26520785   3.976   2.169   4.143  0.5794  0.6334 -1.1208
   61MOL   H26620786   3.960   2.335   4.081  1.1400 -1.1546 -1.4883
   61MOL   H26720787   3.737   2.266   4.002  0.9273 -0.1205  2.0027
   61MOL   H26820788   3.739   2.270   3.755 -0.2487  1.0483 -1.0226
   61MOL   H26920789   3.827   2.394   3.813 -0.4972 -0.4707  1.6956
   61MOL   H27020790   3.910   2.222   3.587  2.6292  1.4168 -1.8639
   61MOL   H27120791   3.951   2.385   3.616  1.0792 -0.3936  0.1272
   61MOL   H27220792   4.137   2.172   3.663  0.9342  3.8763 -0.9633
   61MOL   H27320793   4.137   2.308   3.771  1.3794  0.0711 -0.8212
   61MOL   C27420794   3.761   2.055   4.033  0.1120  0.0098  0.6509
   61MOL   C27520795   3.641   2.010   3.941  0.0825 -0.4512 -0.0944
   61MOL   N27620796   3.590   1.875   3.988  1.2519  0.0680  0.2664
   61MOL   C27720797   3.615   1.756   3.908  0.1789 -0.6167 -0.0490
   61MOL   C27820798   3.531   1.645   3.966 -0.0693  0.2378 -0.3606
   61MOL   C27920799   3.504   1.691   4.102 -0.0753 -0.6841  0.0766
   61MOL   C28020800   3.520   1.845   4.102  0.1010 -0.6035  0.2880
   61MOL   O28120801   3.495   1.924   4.194  0.1882 -0.0163 -0.2665
   61MOL   H28220802   3.742   2.040   4.139  0.2746 -0.0784  0.6677
   61MOL   H28320803   3.841   1.981   4.021 -0.5416 -0.4283 -1.1038
   61MOL   H28420804   3.677   1.987   3.841  0.6879 -1.4922  0.3497
   61MOL   H28520805   3.591   1.783   3.805 -0.3468  0.5860  0.3727
   61MOL   H28620806   3.722   1.741   3.923 -0.2204 -0.2465  3.4072
   61MOL   H28720807   3.451   1.622   3.896  2.0350 -0.9312 -2.4570
   61MOL   H28820808   3.593   1.556   3.960 -1.6550 -0.8708 -0.7580
   61MOL   H28920809   3.405   1.658   4.133 -1.9389  1.5668 -3.2724
   61MOL   H29020810   3.580   1.659   4.174  0.3654  0.9047  0.3374
   61MOL   C29120811   3.526   2.118   3.926 -1.0065  0.3298  0.3831
   61MOL   C29220812   3.439   2.093   3.808  0.6017  0.7729  0.4341
   61MOL   N29320813   3.298   2.122   3.831  0.1998  0.6360  0.3543
   61MOL   C29420814   3.211   2.029   3.901  0.6141  0.3793  0.2130
   61MOL   C29520815   3.079   2.106   3.936 -0.2681  0.6867  0.2590
   61MOL   C29620816   3.090   2.236   3.856 -0.5064  0.0107 -0.3242
   61MOL   C29720817   3.239   2.238   3.819  0.0029  0.1424  0.7205
   61MOL   O29820818   3.291   2.343   3.787  0.5095 -0.3732  0.0213
   61MOL   H29920819   3.549   2.224   3.921  0.9071 -0.0835  0.0220
   61MOL   H30020820   3.462   2.124   4.014 -2.6984  0.6247 -0.8548
   61MOL   H30120821   3.432   1.985   3.802  1.6875  0.8092 -2.0065
   61MOL   H30220822   3.195   1.938   3.843  2.3318 -0.1670  0.5535
   61MOL   H30320823   3.268   1.993   3.987 -0.0278 -2.0725 -0.3349
   61MOL   H30420824   2.989   2.048   3.916 -0.0140  0.7845 -1.2567
   61MOL   H30520825   3.068   2.124   4.043 -1.8925 -2.3401  0.6599
   61MOL   H30620826   3.027   2.223   3.768 -1.2004  0.6961  0.0639
   61MOL   H30720827   3.053   2.324   3.908  0.7211 -0.4389  1.3319
   61MOL   C30820828   3.501   2.137   3.666  0.6145  0.5848 -0.2608
   61MOL   C30920829   3.404   2.142   3.547  0.1480  0.5007  0.6541
   61MOL   N31020830   3.477   2.208   3.431 -0.3966 -0.1636 -0.2386
   61MOL   C31120831   3.437   2.344   3.419  0.2296 -0.3252 -0.8104
   61MOL   C31220832   3.493   2.384   3.285 -0.6278 -0.1429  0.3805
   61MOL   C31320833   3.602   2.270   3.247  0.7932 -0.2150  0.1764
   61MOL   C31420834   3.578   2.165   3.355  0.7662 -0.6517  0.3869
   61MOL   O31520835   3.630   2.056   3.366 -0.1897 -0.1829  0.5797
   61MOL   H31620836   3.585   2.070   3.645 -0.1207 -0.7042  0.8835
   61MOL   H31720837   3.548   2.236   3.672 -0.0976  0.9269 -0.3096
   61MOL   H31820838   3.313   2.197   3.572  1.3078  2.7974  0.0357
   61MOL   H31920839   3.330   2.362   3.425  0.6062  2.0472 -0.7869
   61MOL   H32020840   3.487   2.414   3.485  0.2373  0.1697 -1.3386
   61MOL   H32120841   3.402   2.381   3.225 -0.7830  0.3275  0.5867
   61MOL   H32220842   3.541   2.482   3.284  0.7929 -0.8289 -0.9778
   61MOL   H32320843   3.588   2.238   3.143 -1.4069  2.8550 -0.5506
   61MOL   H32420844   3.704   2.307   3.254 -0.2459  2.8388 -0.3070
   61MOL   C32520845   3.365   1.991   3.511  0.5877  0.5210  0.4257
   61MOL   C32620846   3.248   1.984   3.409 -0.3510 -0.1364 -0.1863
   61MOL   N32720847   3.114   2.014   3.466 -0.5865  0.8912 -0.1052
   61MOL   C32820848   3.045   1.926   3.552  0.6766  0.3190  0.2964
   61MOL   C32920849   2.930   2.008   3.604  0.7248 -0.2407  0.6224
   61MOL   C33020850   2.923   2.140   3.515  0.3012 -0.5140 -0.9268
   61MOL   C33120851   3.051   2.133   3.449  0.3386 -0.2274  0.3525
   61MOL   O33220852   3.097   2.232   3.395 -0.7610  0.4319 -0.0745
   61MOL   H33320853   3.330   1.933   3.596 -1.5405  0.9645 -0.1394
   61MOL   H33420854   3.450   1.939   3.468  0.7740  1.6856 -0.6420
   61MOL   H33520855   3.232   1.895   3.348 -0.5920  0.0714 -0.4215
   61MOL   H33620856   3.016   1.844   3.487  1.3784 -1.8883  2.6508
   61MOL   H33720857   3.109   1.885   3.631 -1.2245 -1.8091  0.7618
   61MOL   H33820858   2.842   1.944   3.595 -0.0544  0.8261  0.6429
   61MOL   H33920859   2.939   2.033   3.709  1.8638 -0.6308  0.6315
   61MOL   H34020860   2.850   2.134   3.435 -0.1243  0.8177 -0.6561
   61MOL   H34120861   2.905   2.231   3.574  0.6652 -1.8617  1.3357
   61MOL   H34220862   3.262   2.052   3.326 -0.3682 -0.6880 -0.6458
   62MOL     C120863   1.451   1.552   5.388 -0.0174 -0.1646 -0.0028
   62MOL     C220864   1.447   1.598   5.533  0.4539 -0.2047  1.0611
   62MOL     N320865   1.552   1.699   5.554 -0.2128  0.4590  0.4022
   62MOL     C420866   1.658   1.670   5.646 -0.0166 -0.1887 -0.9144
   62MOL     C520867   1.744   1.792   5.657 -0.2884  0.2853  0.5497
   62MOL     C620868   1.678   1.896   5.555 -0.6326 -0.2630 -0.1989
   62MOL     C720869   1.556   1.825   5.503  0.2739  0.0259 -0.3331
   62MOL     O820870   1.478   1.872   5.424  0.0936  0.1719  0.2760
   62MOL     H920871   1.369   1.483   5.371 -1.1184  1.2848 -0.6821
   62MOL    H1020872   1.437   1.639   5.323 -2.2344 -1.8518 -1.8806
   62MOL    H1120873   1.470   1.513   5.598  0.4128 -1.2237 -0.2342
   62MOL    H1220874   1.616   1.645   5.743 -1.8301  0.6431 -1.4695
   62MOL    H1320875   1.706   1.579   5.610 -0.6445 -1.4238  1.2989
   62MOL    H1420876   1.738   1.833   5.758 -2.7682  1.5442 -0.0679
   62MOL    H1520877   1.841   1.768   5.613 -1.0757 -2.0279  0.0086
   62MOL    H1620878   1.653   1.988   5.606  2.2575 -0.1236  1.0671
   62MOL    H1720879   1.745   1.924   5.474 -0.9475 -0.2060 -0.4366
   62MOL    H1820880   1.550   1.512   5.365  1.0268  1.2135  1.9476
   62MOL    C1920881   1.311   1.667   5.573 -0.6290 -0.2793  0.0792
   62MOL    C2020882   1.305   1.754   5.706  0.4859 -0.2533  0.0869
   62MOL    N2120883   1.184   1.827   5.716 -0.5404 -0.3032  0.4744
   62MOL    C2220884   1.187   1.962   5.767 -0.4733  0.1210 -0.1599
   62MOL    C2320885   1.040   2.013   5.777 -0.5432  0.0261 -1.5590
   62MOL    C2420886   0.955   1.901   5.725  0.2650 -0.2605  0.2421
   62MOL    C2520887   1.055   1.788   5.697  0.3995 -0.2534  0.1277
   62MOL    O2620888   1.020   1.672   5.652  0.0538 -0.0150 -0.3928
   62MOL    H2720889   1.232   1.593   5.562 -1.4556  0.4391  1.0659
   62MOL    H2820890   1.276   1.734   5.494 -0.7683  1.4714  1.5672
   62MOL    H2920891   1.386   1.827   5.706  1.8104 -1.6825  0.0765
   62MOL    H3020892   1.240   1.964   5.863  0.1655 -1.8511 -0.4450
   62MOL    H3120893   1.246   2.025   5.700 -1.4778  0.2337 -0.9507
   62MOL    H3220894   1.029   2.041   5.881  2.5883 -0.5105 -1.0522
   62MOL    H3320895   1.015   2.100   5.716  2.3917  1.4872 -0.7720
   62MOL    H3420896   0.878   1.881   5.800 -0.3043  3.9316  0.8959
   62MOL    H3520897   0.911   1.938   5.632  0.4316  0.3073  0.3911
   62MOL    C3620898   1.330   1.666   5.827  0.1308 -0.0075  0.7372
   62MOL    C3720899   1.355   1.721   5.971  0.3634 -0.5139  0.1999
   62MOL    N3820900   1.360   1.613   6.069  0.8682 -0.0496  0.5794
   62MOL    C3920901   1.248   1.587   6.155  0.2297  0.0803 -0.3478
   62MOL    C4020902   1.283   1.447   6.224  0.0908 -0.0286  0.3831
   62MOL    C4120903   1.415   1.402   6.173  0.6987  0.0806 -0.5566
   62MOL    C4220904   1.448   1.510   6.070  0.5160  0.4594  0.4290
   62MOL    O4320905   1.551   1.505   6.003  0.1271  0.3370  0.0317
   62MOL    H4420906   1.424   1.613   5.811  0.2527  0.1905  0.7971
   62MOL    H4520907   1.253   1.591   5.838 -0.6669  1.3152  5.3121
   62MOL    H4620908   1.264   1.776   5.997 -0.9102 -2.8006  0.6667
   62MOL    H4720909   1.243   1.674   6.221  0.4068 -1.3936  1.6405
   62MOL    H4820910   1.155   1.573   6.101 -1.7983  1.6643  2.6009
   62MOL    H4920911   1.269   1.453   6.332  0.5556  1.7124  0.3585
   62MOL    H5020912   1.212   1.370   6.194  1.1396 -0.8159 -0.1028
   62MOL    H5120913   1.494   1.399   6.248  1.0824  2.8650 -0.7945
   62MOL    H5220914   1.409   1.299   6.137 -2.1169  0.1737 -0.4565
   62MOL    C5320915   1.476   1.825   6.001  0.4121  0.2690 -0.2040
   62MOL    C5420916   1.457   1.886   6.148  0.1386  0.0715  0.4594
   62MOL    N5520917   1.557   1.814   6.246 -0.1395 -0.8180 -0.2186
   62MOL    C5620918   1.519   1.730   6.358 -0.6913 -0.4034  0.2968
   62MOL    C5720919   1.653   1.661   6.395  0.0928 -0.0914  0.1727
   62MOL    C5820920   1.754   1.769   6.360  0.0553 -0.1134  0.6480
   62MOL    C5920921   1.687   1.842   6.243  1.2093  0.0516  0.1632
   62MOL    O6020922   1.747   1.917   6.167 -0.7377  0.2674 -0.1612
   62MOL    H6120923   1.462   1.891   5.916  0.0882  1.4297  0.7398
   62MOL    H6220924   1.575   1.781   5.988  0.9861  0.2137  3.6746
   62MOL    H6320925   1.355   1.866   6.181 -0.2220  0.8036 -0.1596
   62MOL    H6420926   1.483   1.784   6.446 -0.6982 -0.7955  0.5355
   62MOL    H6520927   1.436   1.661   6.343  0.4772 -1.2367 -2.7109
   62MOL    H6620928   1.661   1.633   6.500 -2.1147  0.4379  0.4966
   62MOL    H6720929   1.673   1.568   6.342  2.7113 -1.1609  2.8879
   62MOL    H6820930   1.756   1.842   6.441  0.2224 -2.7943  3.1220
   62MOL    H6920931   1.855   1.732   6.341  0.3530  1.0322 -0.0890
   62MOL    C7020932   1.475   2.041   6.150 -0.3891 -0.1169  0.0089
   62MOL    C7120933   1.466   2.106   6.285 -0.3731 -0.0784  0.3528
   62MOL    N7220934   1.535   2.231   6.270  0.5169 -0.1714 -0.0302
   62MOL    C7320935   1.679   2.230   6.283 -0.4064 -0.0495  0.3366
   62MOL    C7420936   1.719   2.372   6.254  0.2763  0.2804  0.1094
   62MOL    C7520937   1.590   2.455   6.257  0.3686 -0.0473  0.1429
   62MOL    C7620938   1.479   2.354   6.258 -0.6871  0.1054  0.4682
   62MOL    O7720939   1.361   2.390   6.245  0.1642  0.3686  0.3354
   62MOL    H7820940   1.399   2.088   6.088 -0.2792  2.2718  1.6219
   62MOL    H7920941   1.567   2.072   6.100 -0.3194 -0.3611 -0.0149
   62MOL    H8020942   1.532   2.045   6.347  2.2339  1.9442 -0.3046
   62MOL    H8120943   1.715   2.203   6.382 -0.2472  0.3160  0.3795
   62MOL    H8220944   1.726   2.155   6.219 -0.7483 -0.0680  0.1081
   62MOL    H8320945   1.780   2.412   6.335  1.6498 -1.7078  0.0745
   62MOL    H8420946   1.771   2.380   6.159 -0.5112  1.0650 -0.2609
   62MOL    H8520947   1.581   2.518   6.345 -0.9021 -0.4656  0.3303
   62MOL    H8620948   1.589   2.518   6.168 -0.9340 -0.0450  0.1421
   62MOL    C8720949   1.319   2.103   6.338  0.1251 -0.6361  0.8232
   62MOL    C8820950   1.301   2.166   6.481 -0.0795 -0.4448 -0.3423
   62MOL    N8920951   1.157   2.200   6.509 -0.0103 -0.0775  0.3937
   62MOL    C9020952   1.124   2.341   6.534  0.1632  0.2161 -0.2531
   62MOL    C9120953   0.977   2.339   6.584  0.4014 -0.7062  0.1106
   62MOL    C9220954   0.928   2.194   6.571  0.1164  0.3218  0.5248
   62MOL    C9320955   1.054   2.117   6.526 -0.0957  0.5370  0.1365
   62MOL    O9420956   1.057   2.000   6.500  0.1469  0.7325 -0.2829
   62MOL    H9520957   1.293   1.998   6.353  0.7261 -0.8939  0.0876
   62MOL    H9620958   1.247   2.146   6.269  2.0374  0.4308 -0.5422
   62MOL    H9720959   1.356   2.261   6.481 -1.2147  0.2367  1.4267
   62MOL    H9820960   1.203   2.376   6.600  1.2527  1.8064 -2.3656
   62MOL    H9920961   1.144   2.391   6.439  0.0030 -0.8226 -0.8507
   62MOL   H10020962   0.968   2.380   6.685 -1.5326 -1.6829  0.3705
   62MOL   H10120963   0.913   2.406   6.526  1.1916 -0.5239 -0.5528
   62MOL   H10220964   0.895   2.163   6.670 -0.6374 -1.0085 -0.1339
   62MOL   H10320965   0.850   2.183   6.496  0.0611  2.2716  0.2780
   62MOL   C10420966   1.364   2.075   6.593 -0.2825 -0.0357 -0.3299
   62MOL   C10520967   1.502   2.123   6.645  0.5592  0.0349  0.2363
   62MOL   N10620968   1.487   2.254   6.716  0.4929 -0.4153  0.2189
   62MOL   C10720969   1.415   2.264   6.842  0.0097 -0.2072 -0.0873
   62MOL   C10820970   1.410   2.417   6.873 -0.0835 -0.0952 -0.1684
   62MOL   C10920971   1.495   2.484   6.767  0.0193 -0.5524  0.2140
   62MOL   C11020972   1.532   2.371   6.671  0.1279 -0.1924  0.0700
   62MOL   O11120973   1.598   2.392   6.573  0.0738 -0.5268 -0.2809
   62MOL   H11220974   1.371   1.982   6.537  1.7153 -0.1571  0.0819
   62MOL   H11320975   1.296   2.062   6.677 -1.3918  0.2264 -1.1666
   62MOL   H11420976   1.567   2.138   6.558  0.2170  0.6128  0.0727
   62MOL   H11520977   1.313   2.229   6.828  0.1283  0.1823 -2.0080
   62MOL   H11620978   1.456   2.225   6.935  1.7551  2.4298  0.3089
   62MOL   H11720979   1.307   2.445   6.855  0.9182  2.5044 -2.1113
   62MOL   H11820980   1.444   2.421   6.976 -1.1932 -2.1182  0.3083
   62MOL   H11920981   1.592   2.511   6.810 -1.1809  1.8857  1.4921
   62MOL   H12020982   1.448   2.573   6.727  0.2836 -0.0224  1.0775
   62MOL   C12120983   1.554   2.014   6.729  0.3145 -0.3579 -0.0858
   62MOL   C12220984   1.692   2.042   6.794  0.4960  0.0292 -0.0135
   62MOL   N12320985   1.729   1.928   6.878 -0.4995 -0.4735 -0.0415
   62MOL   C12420986   1.681   1.922   7.017  0.8412  0.2620  1.1381
   62MOL   C12520987   1.711   1.776   7.062  0.0365  0.6778  0.1639
   62MOL   C12620988   1.757   1.698   6.944  0.1548  0.3353  0.0634
   62MOL   C12720989   1.762   1.804   6.835  0.1052  0.4809 -0.1224
   62MOL   O12820990   1.786   1.775   6.716  0.1694  0.3174  0.6259
   62MOL   H12920991   1.563   1.923   6.669 -0.4352  0.1738 -1.0230
   62MOL   H13020992   1.481   1.981   6.802  0.1423 -0.2457 -0.2069
   62MOL   H13120993   1.686   2.133   6.854  2.9052 -0.9033  1.6959
   62MOL   H13220994   1.572   1.920   7.015  0.8067  2.2198 -0.9564
   62MOL   H13320995   1.716   1.996   7.089 -1.5061  0.6329  1.9738
   62MOL   H13420996   1.795   1.781   7.131  0.0708  1.9569  0.0331
   62MOL   H13520997   1.634   1.719   7.114  0.4712  0.2883  0.3787
   62MOL   H13620998   1.853   1.650   6.967  0.3665  1.8580  2.3983
   62MOL   H13720999   1.694   1.621   6.899  0.4465  0.6175 -0.8529
   62MOL   C13821000   1.802   2.069   6.683  0.1189 -0.3546 -0.6283
   62MOL   C13921001   1.955   2.088   6.712 -0.0878 -0.0783  0.4471
   62MOL   N14021002   2.046   2.082   6.594  0.2083 -0.6077  0.3917
   62MOL   C14121003   2.122   1.967   6.559 -0.1017  0.0454  0.9454
   62MOL   C14221004   2.156   1.969   6.410 -0.1730  0.0855  0.0174
   62MOL   C14321005   2.132   2.115   6.372  0.0155 -0.2881  0.2813
   62MOL   C14421006   2.056   2.168   6.487  0.0556  0.0694  0.4477
   62MOL   O14521007   2.004   2.275   6.475 -0.0273  0.5050  0.0626
   62MOL   H14621008   1.766   2.160   6.635 -0.5413  0.7451  1.8898
   62MOL   H14721009   1.791   1.983   6.617  3.7725 -2.8390  1.8001
   62MOL   H14821010   1.995   2.004   6.769  0.4481  0.5758  1.0487
   62MOL   H14921011   2.213   1.985   6.617  1.8018  3.6158 -2.8591
   62MOL   H15021012   2.059   1.884   6.590  0.7792 -0.6201  1.0057
   62MOL   H15121013   2.254   1.936   6.375 -0.3233 -1.2742  0.8178
   62MOL   H15221014   2.090   1.906   6.351  1.0855 -0.6194 -0.6497
   62MOL   H15321015   2.069   2.133   6.285 -1.5998 -2.0007  1.0566
   62MOL   H15421016   2.226   2.164   6.349 -0.7112  0.6044 -0.8411
   62MOL   C15521017   1.972   2.219   6.784  0.0348  0.1260 -0.1299
   62MOL   C15621018   1.964   2.208   6.932 -0.0845 -0.4796 -0.4209
   62MOL   N15721019   2.100   2.233   6.981  0.6780 -0.0533  0.5344
   62MOL   C15821020   2.176   2.117   7.014  0.7669 -0.1731 -0.3092
   62MOL   C15921021   2.309   2.165   7.067 -0.7067 -0.0903 -0.2128
   62MOL   C16021022   2.305   2.316   7.063  0.3524  0.1707 -0.1439
   62MOL   C16121023   2.172   2.341   6.996 -0.3808 -0.2093 -0.6577
   62MOL   O16221024   2.137   2.450   6.954 -0.4908 -0.6649  0.2939
   62MOL   H16321025   1.911   2.304   6.754 -0.3161 -0.3498 -0.7633
   62MOL   H16421026   2.075   2.251   6.763  0.1002  0.1892  0.2816
   62MOL   H16521027   1.940   2.104   6.955 -1.3456 -0.2351 -0.5896
   62MOL   H16621028   2.128   2.044   7.080  2.1985  0.4687  1.4762
   62MOL   H16721029   2.206   2.065   6.923  1.5372  1.4381 -1.0030
   62MOL   H16821030   2.326   2.125   7.167 -1.4504 -1.0541 -0.4656
   62MOL   H16921031   2.391   2.130   7.005 -0.3407 -0.5566  0.5319
   62MOL   H17021032   2.314   2.357   7.164  1.2771 -1.7239  0.5694
   62MOL   H17121033   2.380   2.360   6.998 -1.4334  0.3571 -2.1224
   62MOL   C17221034   1.861   2.307   6.989 -0.5003 -0.5595 -0.0759
   62MOL   C17321035   1.828   2.287   7.139  0.3593 -0.1157  0.5477
   62MOL   N17421036   1.916   2.368   7.226 -0.0363  0.5584  0.8316
   62MOL   C17521037   1.995   2.297   7.331 -0.4875 -0.7986  0.1100
   62MOL   C17621038   2.084   2.409   7.386 -0.1616  0.0553 -0.4204
   62MOL   C17721039   2.054   2.537   7.309  0.4345  1.1716 -0.1766
   62MOL   C17821040   1.938   2.500   7.221 -0.2756  0.4307 -0.4828
   62MOL   O17921041   1.872   2.578   7.151 -0.6267 -0.0665  0.0914
   62MOL   H18021042   1.765   2.295   6.939 -0.7490  0.5544  0.1152
   62MOL   H18121043   1.888   2.408   6.957  2.6540 -1.4094 -0.2626
   62MOL   H18221044   1.866   2.191   7.176  1.7791  2.0225  4.9891
   62MOL   H18321045   1.939   2.238   7.404 -1.6653  0.4488  0.2512
   62MOL   H18421046   2.066   2.236   7.276 -0.9132  0.2207 -1.5821
   62MOL   H18521047   2.188   2.379   7.372 -0.0409  0.8395 -1.2806
   62MOL   H18621048   2.065   2.432   7.490 -1.6012 -0.0633 -0.6557
   62MOL   H18721049   2.023   2.613   7.381  0.2041  0.6280  0.3011
   62MOL   H18821050   2.140   2.571   7.250  0.3795  0.5728 -0.6098
   62MOL   C18921051   1.678   2.294   7.174  0.1252 -0.7084  0.2572
   62MOL   C19021052   1.635   2.269   7.318 -0.5763  0.5856 -0.0329
   62MOL   N19121053   1.492   2.287   7.326  0.3429 -0.2756 -0.2597
   62MOL   C19221054   1.449   2.408   7.399 -0.1916 -0.1407 -0.2014
   62MOL   C19321055   1.293   2.404   7.407  0.1304 -0.1979  0.2863
   62MOL   C19421056   1.253   2.275   7.339  0.3914  0.6482 -0.0460
   62MOL   C19521057   1.385   2.216   7.286  0.1985  0.1976  0.1254
   62MOL   O19621058   1.389   2.115   7.213 -0.2589 -0.0223 -0.4448
   62MOL   H19721059   1.632   2.219   7.110 -1.4328  1.2954 -1.0614
   62MOL   H19821060   1.638   2.385   7.128 -1.3552 -1.7079 -0.4609
   62MOL   H19921061   1.686   2.337   7.385  0.7175  0.1596 -0.5718
   62MOL   H20021062   1.487   2.399   7.500 -1.0933  1.0857  0.2653
   62MOL   H20121063   1.476   2.506   7.360  0.3723 -0.5627 -0.8840
   62MOL   H20221064   1.264   2.391   7.512  0.6872  0.7580  0.5710
   62MOL   H20321065   1.250   2.491   7.356  1.1240  1.2147  1.7777
   62MOL   H20421066   1.212   2.204   7.411  1.0567  0.7143  0.4026
   62MOL   H20521067   1.179   2.288   7.260 -1.6727  1.1749  1.8944
   62MOL   C20621068   1.670   2.126   7.352 -0.4194 -0.1542 -0.2731
   62MOL   C20721069   1.601   2.057   7.470 -0.2879  0.2219 -0.5021
   62MOL   N20821070   1.654   1.918   7.475  0.3020  0.2637 -0.4957
   62MOL   C20921071   1.588   1.809   7.403 -0.0511 -0.2893 -0.0335
   62MOL   C21021072   1.669   1.685   7.432 -0.4958  0.3144 -0.2762
   62MOL   C21121073   1.804   1.737   7.469  0.2926 -0.1705  0.2788
   62MOL   C21221074   1.771   1.876   7.521  0.0023  0.4113 -0.2050
   62MOL   O21321075   1.853   1.947   7.585  0.0437 -0.3164  0.4520
   62MOL   H21421076   1.778   2.115   7.361 -0.6705 -0.1713  3.2968
   62MOL   H21521077   1.635   2.070   7.265  0.3372 -0.2068 -0.5435
   62MOL   H21621078   1.493   2.049   7.455 -0.3421  1.4083 -0.7855
   62MOL   H21721079   1.484   1.812   7.434  0.4735 -0.4463  1.8205
   62MOL   H21821080   1.590   1.842   7.299  3.8038 -2.3997 -0.7271
   62MOL   H21921081   1.625   1.619   7.506 -2.3647  0.8080 -0.9127
   62MOL   H22021082   1.695   1.622   7.347  1.3087  0.2928  0.2802
   62MOL   H22121083   1.843   1.667   7.543  2.3607 -0.4939 -1.0511
   62MOL   H22221084   1.876   1.745   7.387  0.6200  0.6551  0.6435
   62MOL   C22321085   1.618   2.142   7.597 -0.8521  0.0204  0.5569
   62MOL   C22421086   1.548   2.079   7.717 -0.7440  0.1394 -0.6299
   62MOL   N22521087   1.596   2.138   7.847 -0.4169 -0.0809  0.6879
   62MOL   C22621088   1.667   2.057   0.035 -0.0476 -0.0133  0.4756
   62MOL   C22721089   1.716   2.150   0.144  0.7522  0.0564  0.0052
   62MOL   C22821090   1.634   2.282   0.131 -0.3000  0.7141 -0.5346
   62MOL   C22921091   1.579   2.264   7.893  0.9338 -0.0906 -0.1641
   62MOL   O23021092   1.529   2.350   7.825  0.1880 -0.3815  0.9650
   62MOL   H23121093   1.565   2.237   7.589 -1.8866 -0.4463  1.7477
   62MOL   H23221094   1.725   2.147   7.617 -0.4667 -0.5844 -1.2112
   62MOL   H23321095   1.591   1.979   7.722  1.1539  0.9567 -0.3260
   62MOL   H23421096   1.600   1.982   0.076 -0.1638 -1.1877 -1.7782
   62MOL   H23521097   1.743   1.995   7.893  0.2727  0.4132  0.4229
   62MOL   H23621098   1.714   2.107   0.244 -1.7604  0.9685  0.3731
   62MOL   H23721099   1.820   2.178   0.124  1.1817  0.6034  2.7617
   62MOL   H23821100   1.548   2.296   0.197  1.1427  1.5903  1.1841
   62MOL   H23921101   1.692   2.373   0.143  1.4111 -0.5070  0.5733
   62MOL   C24021102   1.393   2.077   7.716  0.5791 -0.5025  0.2513
   62MOL   C24121103   1.327   1.968   7.797  0.0024 -0.4779 -1.0057
   62MOL   N24221104   1.195   2.009   7.853 -0.0625 -0.4511 -0.3346
   62MOL   C24321105   1.164   2.003   0.096 -0.3889 -1.1193  0.0551
   62MOL   C24421106   1.018   2.047   0.113  0.1460 -0.1601 -0.2332
   62MOL   C24521107   0.986   2.119   7.887  0.4323 -0.5015  0.1029
   62MOL   C24621108   1.095   2.070   7.791  0.9271 -0.4398  0.7294
   62MOL   O24721109   1.077   2.066   7.666  0.4449  0.1710 -0.7663
   62MOL   H24821110   1.359   2.075   7.613 -2.2091  0.8923  1.0876
   62MOL   H24921111   1.361   2.175   7.752 -0.2589 -0.8314  0.4137
   62MOL   H25021112   1.384   1.939   7.886 -0.5917 -0.5381 -0.6453
   62MOL   H25121113   1.177   1.908   0.149  1.7460  0.2430  2.0557
   62MOL   H25221114   1.228   2.081   0.136 -0.5981 -0.1580 -1.4236
   62MOL   H25321115   0.962   1.958   0.141 -1.8711  1.2667  0.3163
   62MOL   H25421116   1.022   2.109   0.202  0.4480  1.2764 -1.2286
   62MOL   H25521117   0.892   2.088   7.841  0.3880  0.3512 -0.3967
   62MOL   H25621118   0.984   2.227   7.904  0.5967 -0.4825 -0.0037
   62MOL   C25721119   1.321   1.838   7.722 -0.6160 -0.9413 -0.2305
   62MOL   C25821120   1.243   1.724   7.785  0.3622  0.2359 -0.2623
   62MOL   N25921121   1.210   1.629   7.683 -0.2772  0.0649 -0.3154
   62MOL   C26021122   1.075   1.597   7.662 -0.3998  0.2024 -0.1898
   62MOL   C26121123   1.080   1.484   7.567  0.0630 -0.2942  0.1993
   62MOL   C26221124   1.225   1.462   7.520  0.5018  0.3016 -0.1878
   62MOL   C26321125   1.295   1.553   7.617 -0.0199 -0.6579 -0.0086
   62MOL   O26421126   1.421   1.552   7.624  0.0549 -0.1098 -0.3010
   62MOL   H26521127   1.422   1.799   7.715 -0.9721 -2.0714  0.6303
   62MOL   H26621128   1.286   1.863   7.621 -0.1468 -0.6558 -0.3237
   62MOL   H26721129   1.151   1.770   7.821  1.0867  1.8665 -0.4518
   62MOL   H26821130   1.024   1.580   7.757  1.4925 -0.8822  0.6639
   62MOL   H26921131   1.017   1.677   7.616  0.3786  1.0064  0.2069
   62MOL   H27021132   1.049   1.387   7.607 -0.6720 -0.8892 -1.7149
   62MOL   H27121133   1.014   1.490   7.481  0.3109 -1.9301 -0.1383
   62MOL   H27221134   1.265   1.363   7.544  0.2333  0.5518  1.3369
   62MOL   H27321135   1.246   1.487   7.416  2.5220 -0.7121 -0.0487
   62MOL   C27421136   1.309   1.653   0.001  0.0589  0.5540  0.3054
   62MOL   C27521137   1.213   1.547   0.073  0.0363  1.2427  0.1313
   62MOL   N27621138   1.293   1.470   0.163 -0.0194 -0.1406 -0.3650
   62MOL   C27721139   1.385   1.522   0.257  0.7722 -0.6454 -0.1043
   62MOL   C27821140   1.483   1.415   0.315  0.1896 -0.0706  0.0175
   62MOL   C27921141   1.411   1.288   0.276  0.3079 -0.7007  0.1053
   62MOL   C28021142   1.303   1.335   0.173  0.1282 -0.0144 -0.1784
   62MOL   O28121143   1.222   1.252   0.132 -0.4903 -0.1140  0.2828
   62MOL   H28221144   1.352   1.729   0.067 -1.3607  2.7129 -1.1877
   62MOL   H28321145   1.392   1.595   7.867 -0.5104 -0.5739  0.7313
   62MOL   H28421146   1.175   1.480   7.903 -0.2965 -0.1836  1.5317
   62MOL   H28521147   1.448   1.601   0.215  0.6070 -0.6286 -0.3201
   62MOL   H28621148   1.329   1.563   0.342 -0.1684  2.4825 -2.1370
   62MOL   H28721149   1.570   1.435   0.253 -0.3898 -3.3916 -2.0007
   62MOL   H28821150   1.523   1.422   0.416 -1.3935 -0.1699  0.6645
   62MOL   H28921151   1.488   1.222   0.234 -2.0502 -2.7213 -1.2320
   62MOL   H29021152   1.360   1.241   0.360 -2.1663  1.5586 -0.0893
   62MOL   C29121153   1.099   1.608   0.146 -0.0763 -0.0910  0.0369
   62MOL   C29221154   0.975   1.522   0.176 -0.2067 -0.2443  0.8755
   62MOL   N29321155   0.885   1.593   0.271 -0.4304  0.4370 -0.4735
   62MOL   C29421156   0.875   1.537   0.406  0.1905 -0.0482  0.3210
   62MOL   C29521157   0.772   1.623   0.476 -0.0555  0.0752  0.1853
   62MOL   C29621158   0.700   1.712   0.374 -0.5857  0.3661  0.5548
   62MOL   C29721159   0.789   1.690   0.250  0.4036  0.5400 -0.1499
   62MOL   O29821160   0.766   1.746   0.144 -0.7706  0.3526  0.2941
   62MOL   H29921161   1.069   1.693   0.085  0.0530  1.1916  1.7310
   62MOL   H30021162   1.122   1.659   0.239  1.8912 -1.9331  0.6026
   62MOL   H30121163   1.024   1.448   0.240  1.0579 -1.5978 -1.5759
   62MOL   H30221164   0.841   1.434   0.406  1.6115 -0.5431 -0.7809
   62MOL   H30321165   0.971   1.551   0.456  0.9437 -0.2067 -1.0670
   62MOL   H30421166   0.707   1.547   0.519 -0.4335  0.6711  0.6719
   62MOL   H30521167   0.818   1.681   0.556  0.9788 -0.8122  0.2380
   62MOL   H30621168   0.600   1.679   0.345 -0.1084  0.0718 -0.7788
   62MOL   H30721169   0.687   1.819   0.391 -1.2053  0.1212  1.6640
   62MOL   C30821170   0.907   1.442   0.066 -0.3005  0.0859 -0.5430
   62MOL   C30921171   0.796   1.346   0.117 -0.0597 -0.0159 -0.1624
   62MOL   N31021172   0.718   1.293   0.009  0.1794 -0.3917 -0.7462
   62MOL   C31121173   0.572   1.315   0.005  0.2911  0.0098  0.1066
   62MOL   C31221174   0.522   1.263   7.775  0.0798 -0.3373  0.1006
   62MOL   C31321175   0.646   1.194   7.714 -0.6266  0.1478  0.0230
   62MOL   C31421176   0.762   1.232   7.804  0.5006 -0.7322  0.4741
   62MOL   O31521177   0.869   1.181   7.777  0.6761 -0.2772  0.3301
   62MOL   H31621178   0.969   1.377   0.004 -0.1768 -0.7717  0.4652
   62MOL   H31721179   0.867   1.522   0.004  0.0092  0.0356 -0.8121
   62MOL   H31821180   0.730   1.410   0.176  0.6420  0.3067  0.2795
   62MOL   H31921181   0.518   1.282   0.093 -2.8942  0.6492 -1.5436
   62MOL   H32021182   0.556   1.423   7.901 -0.2432 -0.0683  0.1280
   62MOL   H32121183   0.440   1.193   7.792  0.3109 -0.4470  0.7767
   62MOL   H32221184   0.493   1.341   7.705  1.5882 -0.1617 -0.3566
   62MOL   H32321185   0.645   1.085   7.705  0.0863  0.3355 -2.4931
   62MOL   H32421186   0.674   1.244   7.622  1.3740 -0.5163  0.2544
   62MOL   C32521187   0.861   1.230   0.200 -0.2257  0.1434 -0.2754
   62MOL   C32621188   0.769   1.110   0.221 -0.8015 -0.1779 -0.4826
   62MOL   N32721189   0.837   1.016   0.313 -0.1371 -0.5074  0.4116
   62MOL   C32821190   0.932   0.919   0.265 -0.7056 -0.3101  0.1707
   62MOL   C32921191   0.916   0.800   0.360 -0.2511 -0.3543  1.2146
   62MOL   C33021192   0.852   0.862   0.486 -0.4870  0.1010 -0.4898
   62MOL   C33121193   0.789   0.992   0.436  0.2672 -0.0826 -0.7928
   62MOL   O33221194   0.705   1.065   0.492  0.2047  0.1055  0.3340
   62MOL   H33321195   0.894   1.272   0.295  0.6365  1.1285 -0.9968
   62MOL   H33421196   0.948   1.194   0.145 -0.8775 -0.5478 -0.8730
   62MOL   H33521197   0.756   1.058   0.125 -2.0330  0.7908 -0.8536
   62MOL   H33621198   0.906   0.896   0.162 -0.9434  0.9594 -0.0589
   62MOL   H33721199   1.034   0.960   0.265  0.2129 -2.5336 -0.3870
   62MOL   H33821200   0.845   0.727   0.323  0.1468  0.1300 -0.5660
   62MOL   H33921201   1.012   0.755   0.386 -0.2465 -1.2144 -0.2369
   62MOL   H34021202   0.772   0.798   0.523 -0.6097 -0.1979 -1.2604
   62MOL   H34121203   0.923   0.873   0.567 -0.5391  0.8099 -0.5371
   62MOL   H34221204   0.669   1.137   0.255 -1.4735 -0.9430 -1.8186
   63MOL     C121205   0.580   1.306   0.755 -0.1778 -0.0912  0.0062
   63MOL     C221206   0.501   1.228   0.856 -0.3089 -0.2163 -0.2054
   63MOL     N321207   0.492   1.291   0.985  0.1361  0.1915  0.7294
   63MOL     C421208   0.572   1.233   1.090 -0.0992 -0.2262 -0.6235
   63MOL     C521209   0.560   1.332   1.208  0.6306 -0.3723 -0.5159
   63MOL     C621210   0.478   1.449   1.157 -0.6810  0.3406 -0.3327
   63MOL     C721211   0.447   1.413   1.013 -0.1327 -0.5812 -0.0090
   63MOL     O821212   0.415   1.502   0.933 -0.3057  0.0230 -0.0058
   63MOL     H921213   0.665   1.338   0.815 -0.4096 -0.3330  0.4674
   63MOL    H1021214   0.610   1.245   0.670 -0.8771 -0.8694  0.3121
   63MOL    H1121215   0.546   1.132   0.881  1.0118 -0.0273 -1.8215
   63MOL    H1221216   0.530   1.135   1.114  2.7734 -0.8394  2.4300
   63MOL    H1321217   0.675   1.239   1.053 -0.1346  0.5644 -0.5895
   63MOL    H1421218   0.522   1.284   1.298 -1.5621 -0.0510 -1.2508
   63MOL    H1521219   0.661   1.357   1.242  1.2630 -2.6842 -0.6315
   63MOL    H1621220   0.393   1.464   1.224  0.8496  0.5303  1.6234
   63MOL    H1721221   0.537   1.540   1.160 -1.8029  1.0388  2.1572
   63MOL    H1821222   0.532   1.399   0.722 -0.1371  0.5926  1.7939
   63MOL    C1921223   0.353   1.210   0.811  0.0958  0.8684 -0.6839
   63MOL    C2021224   0.354   1.106   0.698  0.0133  0.2284 -0.3214
   63MOL    N2121225   0.384   0.978   0.766  0.0043  0.3584  0.0135
   63MOL    C2221226   0.509   0.910   0.728 -0.0368  0.1015  0.2579
   63MOL    C2321227   0.515   0.774   0.804 -0.0897  0.3956  0.0784
   63MOL    C2421228   0.406   0.785   0.905 -0.6000 -0.7718  0.1173
   63MOL    C2521229   0.329   0.908   0.867  0.6192 -0.4744  0.3666
   63MOL    O2621230   0.226   0.931   0.921  0.3043 -0.1955  0.1702
   63MOL    H2721231   0.313   1.306   0.777 -3.7644 -0.0268  1.0682
   63MOL    H2821232   0.293   1.181   0.897  0.2678 -1.2681 -1.2652
   63MOL    H2921233   0.433   1.125   0.625  0.7753  2.8120  1.1031
   63MOL    H3021234   0.507   0.895   0.620 -0.0928 -0.6235  0.3560
   63MOL    H3121235   0.599   0.971   0.733 -0.0141  0.0773  0.1296
   63MOL    H3221236   0.512   0.685   0.741 -0.5178  0.8958 -0.6066
   63MOL    H3321237   0.605   0.768   0.866 -0.1982 -1.9034  0.0540
   63MOL    H3421238   0.333   0.705   0.903 -0.3055 -1.0430  0.1597
   63MOL    H3521239   0.437   0.804   1.008 -1.5952  0.4922  0.2015
   63MOL    C3621240   0.227   1.093   0.614 -0.2780 -0.5279  0.4383
   63MOL    C3721241   0.162   1.222   0.554 -0.6861 -0.5599  0.1577
   63MOL    N3821242   0.283   1.294   0.487 -0.0357  0.1957  0.3618
   63MOL    C3921243   0.292   1.438   0.508 -0.1254 -0.0742 -0.5759
   63MOL    C4021244   0.419   1.481   0.436  0.0673 -0.1240  0.0624
   63MOL    C4121245   0.445   1.371   0.336  0.9359  0.0348 -0.2686
   63MOL    C4221246   0.363   1.255   0.383  0.7597 -0.7019 -0.8402
   63MOL    O4321247   0.359   1.148   0.328 -0.4157  0.4798 -0.3526
   63MOL    H4421248   0.151   1.053   0.680 -0.1363  0.4929  1.2254
   63MOL    H4521249   0.241   1.025   0.529  0.1436  0.8881 -0.6467
   63MOL    H4621250   0.120   1.281   0.635 -0.8659 -1.3056  0.6127
   63MOL    H4721251   0.202   1.494   0.480 -0.4999  0.5981  1.8440
   63MOL    H4821252   0.292   1.453   0.616  1.1841  3.0062 -0.9678
   63MOL    H4921253   0.401   1.576   0.386 -0.0795  0.1413  0.6142
   63MOL    H5021254   0.506   1.499   0.499  0.3381 -2.1810  0.3044
   63MOL    H5121255   0.411   1.402   0.238 -0.7149  1.5385  0.7520
   63MOL    H5221256   0.547   1.331   0.337 -0.5567 -4.0101 -0.3477
   63MOL    C5321257   0.047   1.182   0.453  0.7495 -0.5841  0.2935
   63MOL    C5421258   7.819   1.127   0.508  0.3147 -0.4253  0.1513
   63MOL    N5521259   7.740   1.235   0.569  0.6228  0.1724  0.2657
   63MOL    C5621260   7.698   1.229   0.713  0.5020  0.0692  0.4202
   63MOL    C5721261   7.594   1.340   0.731  0.3343  0.1168  0.5050
   63MOL    C5821262   7.609   1.426   0.610 -0.1436  0.7415  0.1881
   63MOL    C5921263   7.684   1.340   0.509 -0.2946 -0.1820  0.3780
   63MOL    O6021264   7.705   1.371   0.394  0.2353  0.1228 -0.5644
   63MOL    H6121265   0.099   1.125   0.376  1.9738 -0.0039  0.6698
   63MOL    H6221266   0.029   1.275   0.399 -0.0662 -1.2454 -0.5890
   63MOL    H6321267   7.845   1.062   0.591  1.5004 -1.2860 -0.8610
   63MOL    H6421268   7.663   1.129   0.739 -1.9179  1.2266  1.8352
   63MOL    H6521269   7.779   1.248   0.783 -0.8040  3.0015  1.2300
   63MOL    H6621270   7.496   1.296   0.744  0.2277  0.5040  1.0710
   63MOL    H6721271   7.608   1.405   0.818  2.8676  0.5041 -0.1512
   63MOL    H6821272   7.517   1.460   0.562 -0.3994 -1.9672 -1.3578
   63MOL    H6921273   7.675   1.511   0.625  1.1704 -0.3722  0.7736
   63MOL    C7021274   7.745   1.034   0.414 -0.5543 -0.1151 -0.4521
   63MOL    C7121275   7.824   0.908   0.387 -0.1019 -0.6235 -0.3564
   63MOL    N7221276   7.829   0.826   0.512 -0.3732  0.2862  0.3184
   63MOL    C7321277   0.044   0.744   0.542 -0.2335 -0.2601 -0.0735
   63MOL    C7421278   0.036   0.691   0.682  0.4333 -0.3309 -0.5088
   63MOL    C7521279   7.801   0.726   0.728  0.0249 -0.5530 -0.1233
   63MOL    C7621280   7.745   0.816   0.618  0.2725  0.0159  0.5154
   63MOL    O7721281   7.638   0.871   0.633 -0.3492 -0.6273 -0.0258
   63MOL    H7821282   7.729   1.087   0.320 -1.0408 -3.0967 -2.0987
   63MOL    H7921283   7.641   1.021   0.445 -1.2759  0.5042 -2.4943
   63MOL    H8021284   0.019   0.932   0.354  0.1916 -1.9045 -0.3974
   63MOL    H8121285   0.065   0.659   0.478 -1.0535 -1.4595  1.2147
   63MOL    H8221286   0.135   0.803   0.535 -0.9674  1.0827  1.2992
   63MOL    H8321287   0.056   0.583   0.685  1.5796 -0.1202 -0.2190
   63MOL    H8421288   0.114   0.746   0.734  0.0352 -0.1462 -0.1089
   63MOL    H8521289   7.747   0.631   0.733 -2.7279  0.9212 -1.0923
   63MOL    H8621290   7.792   0.766   0.829 -0.5208  1.6067 -0.9942
   63MOL    C8721291   7.761   0.825   0.272 -0.7681  0.1223 -0.3595
   63MOL    C8821292   7.856   0.724   0.198 -0.4973  0.0376 -0.3152
   63MOL    N8921293   7.805   0.589   0.209  0.1535 -0.5687  0.0805
   63MOL    C9021294   7.678   0.545   0.146  0.2504  0.7033 -0.1028
   63MOL    C9121295   7.661   0.409   0.216  0.6556  0.6005  0.1671
   63MOL    C9221296   7.802   0.364   0.257 -0.4375  0.1884  0.4807
   63MOL    C9321297   7.878   0.488   0.256  0.2665 -0.0605 -0.2565
   63MOL    O9421298   0.088   0.504   0.293 -0.6790  0.4035  0.3752
   63MOL    H9521299   7.721   0.894   0.198  1.5234  0.1155 -1.6497
   63MOL    H9621300   7.669   0.778   0.306 -1.9642 -0.0282 -3.6621
   63MOL    H9721301   0.045   0.740   0.249 -0.3133  1.5195 -1.0715
   63MOL    H9821302   7.591   0.609   0.162  0.2347  0.2507  1.6976
   63MOL    H9921303   7.685   0.517   0.041  0.4363  0.3534 -0.0006
   63MOL   H10021304   7.601   0.428   0.305 -0.7928 -1.5609 -0.3074
   63MOL   H10121305   7.620   0.328   0.156  1.8872  0.3419 -0.3475
   63MOL   H10221306   7.803   0.322   0.358  0.3269  1.2428  0.9206
   63MOL   H10321307   7.827   0.291   0.180 -1.1015 -0.7178  1.1081
   63MOL   C10421308   7.891   0.755   0.046 -0.0354 -0.2213  0.3466
   63MOL   C10521309   0.044   0.898   0.023  0.6233 -0.1973  0.2668
   63MOL   N10621310   0.195   0.901   0.017 -0.3634 -0.0388 -0.1488
   63MOL   C10721311   0.271   0.965   0.123  0.4364 -0.4791  0.0372
   63MOL   C10821312   0.421   0.948   0.091  0.2301 -0.2651  0.2188
   63MOL   C10921313   0.429   0.865   7.868  0.7024 -0.1481 -0.6410
   63MOL   C11021314   0.281   0.841   7.836 -1.1474 -0.6199  0.0758
   63MOL   O11121315   0.250   0.763   7.752 -0.0266  0.3920  0.1644
   63MOL   H11221316   7.797   0.739   7.900  0.2952 -0.5009 -0.1765
   63MOL   H11321317   0.040   0.674   7.904  1.5359  0.8878  0.2308
   63MOL   H11421318   0.019   0.960   0.110  2.0234 -0.0515  0.5899
   63MOL   H11521319   0.239   1.069   0.117 -1.2633 -0.6697  4.1965
   63MOL   H11621320   0.248   0.923   0.222 -1.7341 -1.1371 -0.7194
   63MOL   H11721321   0.474   1.042   0.075 -1.0828  0.7535  1.6902
   63MOL   H11821322   0.472   0.892   0.170 -1.7399  1.3694  2.7411
   63MOL   H11921323   0.474   0.766   7.884  2.0019  0.8996  2.5490
   63MOL   H12021324   0.475   0.914   7.783 -0.5268  0.0764 -1.1872
   63MOL   C12121325   7.893   0.955   7.803  0.1980 -0.1048 -0.7298
   63MOL   C12221326   7.748   0.993   7.809 -0.1725 -0.2573  0.5164
   63MOL   N12321327   7.706   1.109   7.880  0.2139 -0.3513 -0.3585
   63MOL   C12421328   7.772   1.233   7.872 -0.9713  0.3196 -0.0895
   63MOL   C12521329   7.686   1.333   0.042 -0.0177 -0.3592 -0.1009
   63MOL   C12621330   7.567   1.254   0.096  0.0343  0.0083 -0.0854
   63MOL   C12721331   7.590   1.121   0.040  0.2762 -0.2951  0.3496
   63MOL   O12821332   7.510   1.034   0.047 -0.1579 -0.5561  0.6155
   63MOL   H12921333   0.001   0.881   7.724 -3.4469 -0.2536 -1.3044
   63MOL   H13021334   0.040   1.044   7.770 -0.6839  1.2820  1.5052
   63MOL   H13121335   7.700   0.909   7.860  0.2705 -1.0707 -0.3740
   63MOL   H13221336   7.774   1.253   7.765  0.2954  0.3982 -0.0524
   63MOL   H13321337   7.871   1.219   0.010 -1.6046 -1.8517  0.7085
   63MOL   H13421338   7.745   1.390   0.114  0.4167 -2.1597  1.0069
   63MOL   H13521339   7.643   1.403   7.876 -0.0059  0.5818  0.7964
   63MOL   H13621340   7.560   1.267   0.204 -0.5697  1.2605 -0.2705
   63MOL   H13721341   7.469   1.290   0.066 -0.5321  0.4488  2.1909
   63MOL   C13821342   7.690   1.004   7.664 -0.2838 -0.2604  0.2436
   63MOL   C13921343   7.644   0.864   7.615 -0.6401  0.2916 -0.2851
   63MOL   N14021344   7.508   0.836   7.652 -0.2084  0.5758  0.3525
   63MOL   C14121345   7.486   0.718   7.735 -0.1602  0.4454 -0.4485
   63MOL   C14221346   7.333   0.709   7.712  0.2269  0.0130 -0.6475
   63MOL   C14321347   7.276   0.798   7.612 -0.2083 -0.0156  0.0729
   63MOL   C14421348   7.395   0.878   7.584 -0.1423  1.1491  0.6786
   63MOL   O14521349   7.393   0.981   7.521  0.0358 -0.4906  0.2605
   63MOL   H14621350   7.760   1.061   7.604  0.7895  0.3776  2.0625
   63MOL   H14721351   7.602   1.068   7.661 -1.2378 -1.4578  1.7826
   63MOL   H14821352   7.701   0.785   7.663 -2.1542 -0.7372 -0.1207
   63MOL   H14921353   7.540   0.633   7.692  0.9391  1.2009 -0.5788
   63MOL   H15021354   7.519   0.726   7.838 -1.8806  2.7590 -0.0376
   63MOL   H15121355   7.303   0.606   7.695  0.1273 -0.3515  1.5784
   63MOL   H15221356   7.279   0.737   7.803  1.1684 -0.4106  0.0484
   63MOL   H15321357   7.199   0.867   7.648  0.0817  0.0431  0.5850
   63MOL   H15421358   7.234   0.749   7.525  0.7753  1.2160 -1.1319
   63MOL   C15521359   7.667   0.850   7.468 -0.1581 -0.1593 -0.0754
   63MOL   C15621360   7.811   0.808   7.433  0.0452 -0.3947 -0.1473
   63MOL   N15721361   7.842   0.672   7.456  0.9914  0.1570  0.3749
   63MOL   C15821362   0.046   0.633   7.530 -0.1087  0.8252 -0.0728
   63MOL   C15921363   0.049   0.485   7.532 -1.4879  0.7344  0.0166
   63MOL   C16021364   7.843   0.438   7.440 -0.7685 -0.1898  0.6126
   63MOL   C16121365   7.782   0.571   7.391 -0.0934  0.5156  0.1388
   63MOL   O16221366   7.692   0.573   7.310 -0.3938  0.5285 -0.1030
   63MOL   H16321367   7.653   0.949   7.424 -0.1889  0.3268  1.0044
   63MOL   H16421368   7.595   0.778   7.430 -0.0141 -1.1313  1.4721
   63MOL   H16521369   7.880   0.868   7.492  0.4868 -1.7067  0.6723
   63MOL   H16621370   0.140   0.679   7.500  2.5742 -3.6058  1.1074
   63MOL   H16721371   0.018   0.648   7.635  0.4021 -1.9187  0.4879
   63MOL   H16821372   0.146   0.457   7.490 -1.5368 -1.5619  1.3332
   63MOL   H16921373   0.041   0.449   7.634  0.6506  2.7268  0.9172
   63MOL   H17021374   7.877   0.379   7.354  0.9400  0.6898  0.6580
   63MOL   H17121375   7.769   0.384   7.498 -2.4585  0.5961 -0.7548
   63MOL   C17221376   7.844   0.854   7.292 -0.1009 -0.4647  0.6562
   63MOL   C17321377   7.886   1.005   7.275  0.3306  1.1077 -0.2724
   63MOL   N17421378   0.116   1.037   7.319  0.3495  0.5973  0.1158
   63MOL   C17521379   0.130   1.129   7.423  0.5648 -0.1191  0.2697
   63MOL   C17621380   0.269   1.102   7.484  0.1898 -0.1579 -0.6166
   63MOL   C17721381   0.338   1.047   7.353 -0.0721  0.0076  0.1456
   63MOL   C17821382   0.226   0.981   7.283  0.3346  0.1002  0.4074
   63MOL   O17921383   0.243   0.890   7.205 -0.0589 -1.1532 -0.9356
   63MOL   H18021384   7.750   0.830   7.241  1.1864 -3.1092 -0.5792
   63MOL   H18121385   0.013   0.792   7.242  1.1969  0.1497  1.8243
   63MOL   H18221386   7.808   1.060   7.328 -0.2665  0.9376 -0.9595
   63MOL   H18321387   0.118   1.233   7.391 -1.7496 -0.4867 -0.1114
   63MOL   H18421388   0.058   1.129   7.505  1.4637  2.7346  1.1573
   63MOL   H18521389   0.264   1.017   7.552 -1.7881  0.3157 -0.1104
   63MOL   H18621390   0.311   1.186   7.539 -1.6753 -0.0434  0.7039
   63MOL   H18721391   0.366   1.134   7.292  1.1078 -1.1893 -1.0435
   63MOL   H18821392   0.429   0.989   7.369  1.2433  1.5083 -1.6211
   63MOL   C18921393   7.881   1.036   7.119  0.9460  0.3931  0.0261
   63MOL   C19021394   7.735   1.045   7.060 -0.7522 -0.5985  0.3882
   63MOL   N19121395   7.633   1.107   7.142 -0.6507 -0.5099  1.0680
   63MOL   C19221396   7.497   1.058   7.163 -0.8194 -0.8126 -0.7275
   63MOL   C19321397   7.407   1.176   7.213  0.1185 -0.8788  0.2047
   63MOL   C19421398   7.514   1.279   7.262  0.0328  0.3742  0.2401
   63MOL   C19521399   7.644   1.227   7.195 -0.8426  0.1052 -0.1487
   63MOL   O19621400   7.746   1.299   7.186 -0.3371  0.2568 -0.4976
   63MOL   H19721401   0.024   0.952   7.069  2.8808  1.0881  0.7054
   63MOL   H19821402   0.019   1.133   7.097 -2.2119  1.6489 -1.0190
   63MOL   H19921403   7.698   0.942   7.058  0.4101 -1.0338  0.7925
   63MOL   H20021404   7.460   1.023   7.066  1.2123 -0.6202 -1.5891
   63MOL   H20121405   7.510   0.977   7.235 -0.0359  0.1246  0.2012
   63MOL   H20221406   7.353   1.220   7.129  0.9983 -1.1969 -0.5514
   63MOL   H20321407   7.338   1.139   7.289 -1.1580  2.5344  0.7770
   63MOL   H20421408   7.509   1.387   7.248 -1.2541  0.3945  0.8740
   63MOL   H20521409   7.519   1.279   7.371 -2.2400  0.9021  0.3701
   63MOL   C20621410   7.735   1.108   6.918  0.0090 -0.4650  0.2681
   63MOL   C20721411   7.804   1.021   6.808 -0.0402  0.6341 -0.3145
   63MOL   N20821412   7.723   0.897   6.775  0.0053  0.3336  0.5567
   63MOL   C20921413   7.779   0.769   6.814 -0.0426  0.2212 -0.0268
   63MOL   C21021414   7.669   0.666   6.780  0.3558 -0.3215  0.0893
   63MOL   C21121415   7.560   0.737   6.699  0.0929  0.0454  0.0593
   63MOL   C21221416   7.602   0.887   6.709  0.8414  0.3424  0.3241
   63MOL   O21321417   7.529   0.976   6.662  0.0609  0.1228 -0.3046
   63MOL   H21421418   7.771   1.211   6.921 -2.8935  0.6071 -0.3015
   63MOL   H21521419   7.632   1.125   6.887  1.0769  0.4029 -3.0255
   63MOL   H21621420   7.900   0.988   6.849  0.0884  1.2671 -0.1021
   63MOL   H21721421   7.871   0.752   6.758 -0.4198 -0.5604 -0.4287
   63MOL   H21821422   7.801   0.775   6.920  1.9085 -2.0238 -0.2792
   63MOL   H21921423   7.706   0.584   6.720  0.1786 -0.8087  0.6463
   63MOL   H22021424   7.614   0.632   6.868 -1.7147 -1.3882 -1.5683
   63MOL   H22121425   7.561   0.719   6.591 -0.5813  0.7718 -0.0772
   63MOL   H22221426   7.457   0.728   6.733 -0.5599  0.9856 -1.6013
   63MOL   C22321427   7.836   1.101   6.680 -0.5801 -0.2722  0.0424
   63MOL   C22421428   0.034   1.215   6.691  0.3221 -0.6740  0.1096
   63MOL   N22521429   0.156   1.162   6.748 -0.4569 -0.1805  0.8575
   63MOL   C22621430   0.219   1.213   6.868 -0.3799  0.4532  0.8145
   63MOL   C22721431   0.337   1.126   6.904  0.0234 -0.1413 -0.3145
   63MOL   C22821432   0.333   1.014   6.793 -0.9061  0.7216 -0.3092
   63MOL   C22921433   0.227   1.061   6.696  0.2429  0.1446  0.3293
   63MOL   O23021434   0.210   1.003   6.587  0.0742  0.5446  0.3626
   63MOL   H23121435   7.739   1.136   6.643 -0.4358 -0.2125 -0.2737
   63MOL   H23221436   7.862   1.034   6.599  0.2396  2.6509 -2.1925
   63MOL   H23321437   7.903   1.288   6.763  1.5173 -2.0436  2.1658
   63MOL   H23421438   0.258   1.311   6.841 -0.6479 -0.1927 -2.1543
   63MOL   H23521439   0.150   1.235   6.949  1.3087 -2.1132  3.0256
   63MOL   H23621440   0.431   1.181   6.899 -0.0668 -0.0332 -0.8128
   63MOL   H23721441   0.319   1.084   7.003 -0.0449 -0.0261 -0.2786
   63MOL   H23821442   0.425   1.010   6.735 -0.1802  2.2086  0.6940
   63MOL   H23921443   0.305   0.917   6.834  0.6633  0.3961  0.0029
   63MOL   C24021444   0.043   1.287   6.559 -0.5689 -0.0984  0.3093
   63MOL   C24121445   7.821   1.377   6.532 -0.6043  0.0622 -0.7332
   63MOL   N24221446   7.814   1.509   6.607 -0.3084  0.0010 -0.5609
   63MOL   C24321447   7.698   1.527   6.707  1.2690 -0.2635 -0.1317
   63MOL   C24421448   7.738   1.650   6.793 -0.1333 -0.6275 -0.7055
   63MOL   C24521449   7.863   1.711   6.728 -0.1317 -0.5147  0.1372
   63MOL   C24621450   0.001   1.602   6.625 -0.2503 -0.8386 -0.6242
   63MOL   O24721451   0.110   1.599   6.574  0.2140 -0.2533 -0.0431
   63MOL   H24821452   0.056   1.222   6.473 -3.0260 -1.7131  1.1007
   63MOL   H24921453   0.133   1.347   6.551 -0.3421 -0.5710 -0.6861
   63MOL   H25021454   7.733   1.326   6.571  1.1270  0.1378  3.4589
   63MOL   H25121455   7.610   1.552   6.648 -0.1710 -0.3907  1.9329
   63MOL   H25221456   7.670   1.440   6.766 -1.3937  0.2150 -0.6405
   63MOL   H25321457   7.662   1.728   6.793  0.1579 -0.3434 -1.0006
   63MOL   H25421458   7.766   1.621   6.894  0.8017  1.5031 -0.3214
   63MOL   H25521459   7.832   1.803   6.680  0.0813  0.0114  0.9978
   63MOL   H25621460   0.033   1.738   6.802  0.5419 -0.5580 -0.5266
   63MOL   C25721461   7.810   1.416   6.385 -0.3391  0.0009  0.0978
   63MOL   C25821462   7.754   1.317   6.288 -0.3847  0.4518 -0.1101
   63MOL   N25921463   7.635   1.250   6.346  0.0162  0.1669 -0.0818
   63MOL   C26021464   7.622   1.108   6.316  0.0971 -0.0705  0.1291
   63MOL   C26121465   7.472   1.083   6.340  0.5030  0.7893 -0.7096
   63MOL   C26221466   7.418   1.202   6.426  0.6319  0.0418  0.1442
   63MOL   C26321467   7.519   1.306   6.389  0.2433  0.0865  0.0868
   63MOL   O26421468   7.499   1.424   6.399 -0.3312 -0.3901 -0.7132
   63MOL   H26521469   7.905   1.444   6.341 -0.6583 -0.0656 -0.6431
   63MOL   H26621470   7.761   1.514   6.379  3.3603  1.9349 -0.1779
   63MOL   H26721471   7.835   1.246   6.271  0.2728  1.4382 -1.1364
   63MOL   H26821472   7.642   1.080   6.213 -2.1946  0.1151 -0.3985
   63MOL   H26921473   7.682   1.051   6.386 -0.6551 -1.0443 -0.0058
   63MOL   H27021474   7.416   1.083   6.246 -1.5772  2.0854  0.4871
   63MOL   H27121475   7.468   0.985   6.386 -0.1634  0.7571 -0.8366
   63MOL   H27221476   7.314   1.227   6.406  0.6542  1.7204  2.0282
   63MOL   H27321477   7.426   1.174   6.531 -0.1599  0.4463  0.3127
   63MOL   C27421478   7.715   1.391   6.152 -0.5324 -1.2198 -0.1826
   63MOL   C27521479   7.824   1.400   6.040  0.4848  0.7288 -0.3851
   63MOL   N27621480   7.856   1.272   5.985 -0.1332 -0.3876 -0.6322
   63MOL   C27721481   0.082   1.219   6.004  0.0310  0.3944 -0.3779
   63MOL   C27821482   0.089   1.103   5.903  0.2869  0.5022  0.3477
   63MOL   C27921483   7.866   1.093   5.827 -0.3673  0.5328 -0.7467
   63MOL   C28021484   7.783   1.197   5.899  0.9600 -0.3076 -0.5924
   63MOL   O28121485   7.657   1.200   5.881 -0.0438 -0.3424  0.3501
   63MOL   H28221486   7.696   1.493   6.188  1.1478 -1.7928  2.4542
   63MOL   H28321487   7.620   1.361   6.107 -0.7384  0.7908 -1.1512
   63MOL   H28421488   0.013   1.423   6.087  1.0464 -1.5733 -0.3046
   63MOL   H28521489   0.159   1.296   6.001  0.5814  0.0255  2.3272
   63MOL   H28621490   0.086   1.174   6.104  1.4255  0.4582 -0.3934
   63MOL   H28721491   0.162   1.128   5.826 -0.6934  1.6802 -0.2225
   63MOL   H28821492   0.102   1.005   5.950 -1.9565  0.1261  0.2462
   63MOL   H28921493   7.865   1.127   5.723 -0.8878 -3.2890 -2.1005
   63MOL   H29021494   7.819   0.995   5.839 -0.1179  0.4650 -0.3251
   63MOL   C29121495   7.788   1.504   5.931  0.4522 -0.1806 -0.5715
   63MOL   C29221496   7.787   1.655   5.983  0.0616  0.2468 -0.2105
   63MOL   N29321497   0.014   1.691   6.037  0.2134 -0.0898 -0.4372
   63MOL   C29421498   0.016   1.728   6.176  0.3632  0.2154  0.3702
   63MOL   C29521499   0.163   1.741   6.210  0.1024 -0.1547  0.8631
   63MOL   C29621500   0.244   1.716   6.081 -0.0271  0.3937  0.0372
   63MOL   C29721501   0.134   1.691   5.978 -0.3622  0.4808  0.2858
   63MOL   O29821502   0.159   1.660   5.861  0.3409 -0.4274  0.0622
   63MOL   H29921503   7.690   1.478   5.893  0.3686 -1.1448  0.2543
   63MOL   H30021504   7.866   1.497   5.856  0.7609 -0.4552 -0.2297
   63MOL   H30121505   7.709   1.660   6.058  1.1877  0.0475  0.9820
   63MOL   H30221506   7.871   1.824   6.179 -2.5041 -1.1839 -1.3699
   63MOL   H30321507   7.873   1.652   6.237  1.0055 -0.9304 -0.5009
   63MOL   H30421508   0.180   1.845   6.240  0.6251  0.1210 -0.3681
   63MOL   H30521509   0.196   1.678   6.293  0.1263 -0.0979  0.8965
   63MOL   H30621510   0.297   1.803   6.045 -0.8388  0.9254  0.1130
   63MOL   H30721511   0.304   1.626   6.095  1.7315  1.4106 -0.8717
   63MOL   C30821512   7.748   1.748   5.864  0.8285  0.8028 -0.1498
   63MOL   C30921513   7.751   1.902   5.893 -0.0882 -0.7895  0.4799
   63MOL   N31021514   7.709   1.984   5.777 -0.7452 -0.2303 -0.8220
   63MOL   C31121515   7.802   2.071   5.713  0.3698  0.0018  0.0570
   63MOL   C31221516   7.748   2.086   5.575 -0.6868  0.1208 -0.1931
   63MOL   C31321517   7.600   2.059   5.589  0.1232 -0.4030 -0.8121
   63MOL   C31421518   7.596   1.969   5.711  0.2377 -0.1668  0.0983
   63MOL   O31521519   7.502   1.897   5.743  0.0609  0.5524 -0.0632
   63MOL   H31621520   7.648   1.718   5.832  1.6936 -2.2167 -0.1485
   63MOL   H31721521   7.812   1.726   5.779  0.0717 -2.3157  0.0390
   63MOL   H31821522   7.853   1.929   5.919  0.0861 -0.0207 -0.9157
   63MOL   H31921523   7.799   2.162   5.773  1.1464 -1.0001  1.6546
   63MOL   H32021524   0.001   2.040   5.715  0.3533 -0.0160  2.2832
   63MOL   H32121525   7.753   2.181   5.521  1.2486 -0.9538 -2.0122
   63MOL   H32221526   7.794   2.021   5.500  1.9920  0.2398  1.2850
   63MOL   H32321527   7.544   2.151   5.607 -1.1626 -1.3323  0.0075
   63MOL   H32421528   7.563   2.006   5.501  0.1248 -4.8643  1.7263
   63MOL   C32521529   7.664   1.936   6.013  0.7398  0.3880  0.5998
   63MOL   C32621530   7.669   2.080   6.060 -0.4348 -0.5408  0.0807
   63MOL   N32721531   7.545   2.156   6.045  0.3551 -0.1038 -0.8407
   63MOL   C32821532   7.542   2.267   5.950  0.1258  0.2920 -0.0308
   63MOL   C32921533   7.394   2.307   5.944 -0.0250 -0.1074 -0.2024
   63MOL   C33021534   7.322   2.224   6.054 -0.0105 -0.5671 -0.4661
   63MOL   C33121535   7.430   2.130   6.106  0.7384 -0.4891  0.4248
   63MOL   O33221536   7.413   2.047   6.190  0.2724  0.7754  0.2164
   63MOL   H33321537   7.697   1.870   6.094  0.2500  4.3755  4.2542
   63MOL   H33421538   7.560   1.906   6.004  1.4767 -2.1208  0.0316
   63MOL   H33521539   7.753   2.129   6.011  0.0218 -0.6590  0.7448
   63MOL   H33621540   7.604   2.347   5.992  0.7102 -0.4412  0.5243
   63MOL   H33721541   7.584   2.255   5.850  2.2808 -0.0894  0.8886
   63MOL   H33821542   7.372   2.413   5.950 -1.2561 -0.3722  0.0987
   63MOL   H33921543   7.352   2.266   5.852  0.3605  0.0886 -0.4626
   63MOL   H34021544   7.287   2.288   6.135  0.8558  0.1357 -0.6299
   63MOL   H34121545   7.239   2.169   6.010 -0.4464  0.2631 -0.7130
   63MOL   H34221546   7.699   2.089   6.164  1.3101  0.4418 -0.4877
   64MOL     C121547   6.392   1.610   6.752 -0.2545  0.7696  0.9487
   64MOL     C221548   6.471   1.639   6.889  0.1935  0.1772 -0.2881
   64MOL     N321549   6.386   1.721   6.981  0.1710 -0.1199 -0.4181
   64MOL     C421550   6.436   1.850   7.034 -0.3777 -0.0745 -0.6238
   64MOL     C521551   6.347   1.899   7.149  0.3017 -0.1193  0.5533
   64MOL     C621552   6.226   1.802   7.134  0.1473  0.5953  0.0169
   64MOL     C721553   6.274   1.690   7.042 -0.5225 -0.2503 -0.1623
   64MOL     O821554   6.202   1.586   7.026  0.5500 -0.4290 -0.4316
   64MOL     H921555   6.293   1.570   6.771  1.1395 -2.6387  1.5243
   64MOL    H1021556   6.379   1.696   6.686 -0.5653 -1.3488 -1.8335
   64MOL    H1121557   6.556   1.704   6.865  0.0634  0.4585  0.0180
   64MOL    H1221558   6.540   1.850   7.064  0.3761 -0.7877 -3.1110
   64MOL    H1321559   6.446   1.915   6.947  0.2585  2.6750  1.4554
   64MOL    H1421560   6.398   1.885   7.244  0.0517  0.2404  0.7397
   64MOL    H1521561   6.304   1.999   7.138 -1.5176 -0.7686  1.5909
   64MOL    H1621562   6.178   1.768   7.226 -0.2462  0.5060 -0.2226
   64MOL    H1721563   6.152   1.857   7.076 -1.6846 -1.2534  0.5742
   64MOL    H1821564   6.447   1.535   6.695 -0.0086 -0.3005  2.5415
   64MOL    C1921565   6.526   1.511   6.957  0.1493 -0.7333 -0.6626
   64MOL    C2021566   6.664   1.464   6.913 -0.7522  0.0158 -0.0779
   64MOL    N2121567   6.767   1.564   6.930 -0.6900 -0.0855  0.0465
   64MOL    C2221568   6.825   1.632   6.808  0.4159 -0.0694 -0.6623
   64MOL    C2321569   6.904   1.754   6.864  0.4494 -0.3716 -0.8703
   64MOL    C2421570   6.894   1.736   7.018  0.8324  0.7030 -0.0741
   64MOL    C2521571   6.798   1.626   7.045  0.4994  0.0409 -0.3406
   64MOL    O2621572   6.760   1.599   7.155 -0.0405 -0.0579 -0.1443
   64MOL    H2721573   6.453   1.431   6.948  1.8552 -2.5947  1.6419
   64MOL    H2821574   6.525   1.530   7.064  0.2426  0.9734 -0.9492
   64MOL    H2921575   6.657   1.447   6.805 -0.3677 -2.2877  0.2387
   64MOL    H3021576   6.885   1.566   6.745  0.1063  0.5021 -1.5635
   64MOL    H3121577   6.737   1.654   6.748  0.3589  2.1635  0.1886
   64MOL    H3221578   7.010   1.762   6.840  0.5416 -0.3042 -0.4454
   64MOL    H3321579   6.858   1.850   6.842  0.3447  1.0539  4.7244
   64MOL    H3421580   6.982   1.683   7.052  0.4182 -1.6562 -2.5195
   64MOL    H3521581   6.873   1.825   7.078  1.0846  1.0157 -0.4506
   64MOL    C3621582   6.702   1.327   6.990 -1.4480  0.3855  0.1058
   64MOL    C3721583   6.627   1.194   6.957 -0.0014  0.0625  0.8041
   64MOL    N3821584   6.594   1.187   6.807 -0.0478  0.2654 -0.7435
   64MOL    C3921585   6.460   1.188   6.754  0.3956  0.2378 -0.1266
   64MOL    C4021586   6.469   1.185   6.599  0.1081 -0.9882 -0.2075
   64MOL    C4121587   6.622   1.182   6.568  0.2640 -0.2046  0.2647
   64MOL    C4221588   6.683   1.193   6.711  0.1575 -0.3741 -0.0007
   64MOL    O4321589   6.806   1.207   6.716 -0.0028  0.5191  0.0634
   64MOL    H4421590   6.700   1.345   7.097  2.1693  1.7856  0.0015
   64MOL    H4521591   6.806   1.305   6.966 -1.3212 -0.0629  1.0396
   64MOL    H4621592   6.529   1.197   7.004 -0.3527  2.3083 -0.0018
   64MOL    H4721593   6.421   1.091   6.782 -3.7262  1.5101 -1.0224
   64MOL    H4821594   6.387   1.262   6.789  1.1850  2.3662 -2.7512
   64MOL    H4921595   6.416   1.094   6.570  1.3353 -1.1029 -2.1495
   64MOL    H5021596   6.408   1.270   6.568  0.4874 -0.6232  0.0488
   64MOL    H5121597   6.655   1.091   6.517  0.0786  0.4088 -0.9705
   64MOL    H5221598   6.654   1.264   6.504 -0.3074  1.2351  1.7858
   64MOL    C5321599   6.708   1.064   7.002  0.2958  0.1003 -0.3011
   64MOL    C5421600   6.691   1.031   7.151 -0.4901 -0.3497  0.4898
   64MOL    N5521601   6.555   0.988   7.187 -0.0493 -0.0068 -0.8510
   64MOL    C5621602   6.472   1.080   7.275 -0.3207 -0.2557  0.1355
   64MOL    C5721603   6.348   1.007   7.289  0.1496 -0.0383  0.1371
   64MOL    C5821604   6.335   0.910   7.176 -0.0820 -0.9923 -0.5137
   64MOL    C5921605   6.475   0.905   7.121  0.2523  0.5714 -0.4214
   64MOL    O6021606   6.505   0.827   7.031  0.3834 -0.0972 -0.2112
   64MOL    H6121607   6.812   1.066   6.971  0.7671 -1.1850  1.1571
   64MOL    H6221608   6.666   0.983   6.943 -0.3409  1.1180 -1.2791
   64MOL    H6321609   6.705   1.126   7.203  1.3978  0.1282 -0.8082
   64MOL    H6421610   6.526   1.100   7.367  1.5874 -0.4475 -0.8970
   64MOL    H6521611   6.459   1.176   7.225 -3.5333 -1.4063 -1.3550
   64MOL    H6621612   6.342   0.935   7.371 -2.9660  0.7779  0.6948
   64MOL    H6721613   6.260   1.071   7.299 -0.2576 -0.6642  0.6292
   64MOL    H6821614   6.286   0.818   7.208 -1.4252  0.4829  1.8572
   64MOL    H6921615   6.282   0.962   7.096  2.1572  0.6193 -1.0067
   64MOL    C7021616   6.797   0.920   7.195  0.1148 -0.6620 -0.5282
   64MOL    C7121617   6.940   0.971   7.232  0.3277  0.3519  0.2790
   64MOL    N7221618   6.945   1.101   7.300 -0.1018 -0.3336 -0.3559
   64MOL    C7321619   7.002   1.216   7.234 -0.2278  0.0971  0.1934
   64MOL    C7421620   7.004   1.328   7.338 -0.1739  0.1107  0.0825
   64MOL    C7521621   6.956   1.270   7.472  0.0362  0.3556  0.2266
   64MOL    C7621622   6.917   1.126   7.432  0.0009 -0.0873  0.1304
   64MOL    O7721623   6.882   1.041   7.512  0.5767 -0.4705 -0.2166
   64MOL    H7821624   6.794   0.848   7.113 -0.8205 -1.3391  0.1010
   64MOL    H7921625   6.756   0.881   7.288 -0.8685  0.6342 -0.4000
   64MOL    H8021626   6.986   0.996   7.136 -0.2495 -1.5111 -0.5128
   64MOL    H8121627   7.109   1.206   7.212 -0.1012 -1.1932  1.3657
   64MOL    H8221628   6.939   1.246   7.150 -1.2897  0.4792  1.1329
   64MOL    H8321629   7.104   1.370   7.351  0.8151 -1.1994 -2.9503
   64MOL    H8421630   6.937   1.408   7.305  0.9008  1.0396  0.1125
   64MOL    H8521631   7.038   1.265   7.543  2.2654  3.3513 -1.9860
   64MOL    H8621632   6.873   1.320   7.521  1.2976 -0.7975  3.6634
   64MOL    C8721633   7.038   0.872   7.302 -0.3963  0.5775  0.3029
   64MOL    C8821634   7.062   0.746   7.210 -0.1074  0.2328 -0.0037
   64MOL    N8921635   7.195   0.747   7.144  0.0345  0.3188 -0.2849
   64MOL    C9021636   7.209   0.800   7.010 -0.4431  0.1318  0.2921
   64MOL    C9121637   7.346   0.747   6.959  0.7571 -0.1855 -0.4091
   64MOL    C9221638   7.420   0.720   7.089  0.0603  0.3822  0.1941
   64MOL    C9321639   7.316   0.710   7.190  0.4473  0.0944  0.3101
   64MOL    O9421640   7.340   0.667   7.301  0.0315  0.4126  0.4858
   64MOL    H9521641   7.018   0.842   7.405 -0.9964  1.3265  0.4080
   64MOL    H9621642   7.132   0.919   7.329 -0.4611 -1.1523  3.7249
   64MOL    H9721643   6.988   0.722   7.133 -0.7622 -3.9861  1.8268
   64MOL    H9821644   7.124   0.755   6.958  1.0310 -0.2106 -1.9101
   64MOL    H9921645   7.215   0.909   7.002  2.2170  0.1696  2.0621
   64MOL   H10021646   7.342   0.659   6.895 -1.9778 -1.0760  0.9338
   64MOL   H10121647   7.388   0.829   6.901  0.4271 -0.1438 -0.5905
   64MOL   H10221648   7.470   0.624   7.096 -0.7578 -0.1117 -0.5615
   64MOL   H10321649   7.501   0.789   7.109 -0.2421  2.1659 -4.3201
   64MOL   C10421650   7.057   0.621   7.293  0.1235  0.0604  0.3741
   64MOL   C10521651   6.914   0.565   7.336 -0.6847 -0.0645  0.4749
   64MOL   N10621652   6.835   0.519   7.216  0.1462 -0.1684 -0.1605
   64MOL   C10721653   6.692   0.548   7.212  0.2005 -0.9268 -0.3686
   64MOL   C10821654   6.634   0.464   7.101  0.4935  0.1389  0.5080
   64MOL   C10921655   6.752   0.385   7.040  0.2246  0.6853 -0.6625
   64MOL   C11021656   6.870   0.423   7.129  0.1780  0.4516 -0.0363
   64MOL   O11121657   6.978   0.368   7.119  0.3890  0.2485  0.6408
   64MOL   H11221658   7.117   0.651   7.379  0.1858  0.3773  0.2201
   64MOL   H11321659   7.110   0.540   7.243  0.0839 -0.2798  0.8743
   64MOL   H11421660   6.853   0.643   7.381 -0.9337  1.3583 -2.2157
   64MOL   H11521661   6.649   0.527   7.310 -1.5124  0.7749 -0.7417
   64MOL   H11621662   6.671   0.654   7.208  0.7053 -0.6885  2.4314
   64MOL   H11721663   6.557   0.393   7.132 -3.3287  4.3016  1.0795
   64MOL   H11821664   6.581   0.520   7.025 -0.0422 -0.0939  0.7051
   64MOL   H11921665   6.767   0.402   6.933 -4.3331  1.5745 -1.2612
   64MOL   H12021666   6.736   0.278   7.050 -1.8778  1.1504  1.2875
   64MOL   C12121667   6.918   0.435   7.432  0.9756  0.3803 -0.0011
   64MOL   C12221668   6.972   0.439   7.572  0.2246 -0.1504  0.3183
   64MOL   N12321669   6.890   0.531   7.658  0.3035  0.0154  0.4851
   64MOL   C12421670   6.951   0.623   7.746  0.5483 -0.1934 -0.3411
   64MOL   C12521671   6.846   0.734   7.761 -0.2557  0.6471  0.2333
   64MOL   C12621672   6.714   0.674   7.719  0.1192  0.1316 -0.0896
   64MOL   C12721673   6.760   0.556   7.641 -0.0256 -0.3170 -0.2845
   64MOL   O12821674   6.685   0.500   7.563  1.1000  0.4582  0.2731
   64MOL   H12921675   6.980   0.368   7.374 -1.6706 -1.4434 -0.8260
   64MOL   H13021676   6.827   0.375   7.433  2.1459 -1.4439 -1.1099
   64MOL   H13121677   7.075   0.475   7.567 -0.0465  0.4572 -1.0829
   64MOL   H13221678   7.049   0.664   7.721  0.4410 -0.2786 -0.8971
   64MOL   H13321679   6.947   0.578   7.845  0.0639  0.5511 -0.0155
   64MOL   H13421680   6.832   0.780   7.860 -2.0675  0.4408  0.1010
   64MOL   H13521681   6.870   0.815   7.693  2.9376  0.0613  0.5877
   64MOL   H13621682   6.662   0.632   7.805 -1.1059  0.2241 -0.7814
   64MOL   H13721683   6.656   0.751   7.669  1.1918  1.1627  0.2326
   64MOL   C13821684   6.976   0.294   7.622 -0.2830 -0.3501 -0.1400
   64MOL   C13921685   7.038   0.261   7.758  0.0081  0.1808  0.8914
   64MOL   N14021686   7.036   0.110   7.768  0.0439 -0.7959  0.6464
   64MOL   C14121687   6.939   0.042   7.844  0.1925  0.1953  0.3188
   64MOL   C14221688   6.962   7.799   7.816  0.4114  0.2784 -0.0471
   64MOL   C14321689   7.066   7.798   7.711  0.0578  0.3502  0.3700
   64MOL   C14421690   7.115   0.032   7.694  0.2673  0.1484 -0.5961
   64MOL   O14521691   7.220   0.064   7.635  0.0596  0.4209  0.1562
   64MOL   H14621692   7.016   0.238   7.538 -3.8831 -1.8452 -0.9767
   64MOL   H14721693   6.876   0.258   7.645 -1.5416  3.0929  0.1027
   64MOL   H14821694   6.972   0.305   7.833 -0.0778  2.4819 -0.4691
   64MOL   H14921695   6.936   0.070   0.044  0.6492 -0.0869  0.4075
   64MOL   H15021696   6.844   0.057   7.793  0.1389 -1.6566 -0.1369
   64MOL   H15121697   6.996   7.751   0.002  3.1619 -0.0400 -1.1633
   64MOL   H15221698   6.869   7.753   7.784 -0.0054 -0.3478  2.0035
   64MOL   H15321699   7.029   7.761   7.615 -1.4227  3.3193 -0.2523
   64MOL   H15421700   7.143   7.724   7.735 -0.2809  0.6953  2.5685
   64MOL   C15521701   7.180   0.331   7.782  0.1079 -0.1737  0.3277
   64MOL   C15621702   7.260   0.287   0.004  0.0249 -0.4625 -0.0861
   64MOL   N15721703   7.399   0.241   7.879  0.3860 -0.2608  0.4726
   64MOL   C15821704   7.432   0.109   0.026 -0.8070  0.2159  0.1189
   64MOL   C15921705   7.573   0.090   7.881  0.1887  0.1205 -0.6086
   64MOL   C16021706   7.620   0.212   7.804  0.4585  0.5360  0.6771
   64MOL   C16121707   7.498   0.303   7.814 -0.2350 -0.2837 -0.0470
   64MOL   O16221708   7.492   0.417   7.764  0.1078 -0.1851 -0.2975
   64MOL   H16321709   7.156   0.435   7.807 -0.6363 -0.2961  0.1211
   64MOL   H16421710   7.235   0.321   7.689  1.2261 -0.9770  1.0639
   64MOL   H16521711   7.202   0.204   0.045 -2.8225  0.5040 -1.9486
   64MOL   H16621712   7.434   0.105   0.135  2.0790 -0.3716  0.0664
   64MOL   H16721713   7.361   0.034   7.897 -0.4573 -0.0431 -0.0357
   64MOL   H16821714   7.642   0.066   0.057 -0.6403  1.5980  0.5338
   64MOL   H16921715   7.580   7.905   7.820 -0.0516 -0.4446  0.1953
   64MOL   H17021716   7.699   0.270   7.852  1.1194 -0.4888  0.8472
   64MOL   H17121717   7.653   0.206   7.701  3.6133  0.5143  1.6430
   64MOL   C17221718   7.263   0.392   0.119 -1.0547  0.0642  0.1436
   64MOL   C17321719   7.132   0.400   0.190 -0.4361  1.0997 -0.0005
   64MOL   N17421720   7.130   0.308   0.306 -0.0985 -0.2068 -0.6788
   64MOL   C17521721   7.048   0.184   0.291  0.9599  0.2263  0.5939
   64MOL   C17621722   7.043   0.114   0.435 -0.3302 -1.0802  0.5392
   64MOL   C17721723   7.157   0.191   0.515  0.2273 -0.4688 -0.5999
   64MOL   C17821724   7.194   0.314   0.426  1.2324  0.5022 -0.3380
   64MOL   O17921725   7.271   0.401   0.458 -0.2762  0.1442 -0.2734
   64MOL   H18021726   7.301   0.484   0.075  2.8962 -0.2415  2.6742
   64MOL   H18121727   7.340   0.368   0.192 -0.7663 -1.8182 -0.7553
   64MOL   H18221728   7.060   0.367   0.116  0.6124  0.3742 -0.7261
   64MOL   H18321729   6.946   0.196   0.253  2.1020 -0.2493 -2.8026
   64MOL   H18421730   7.096   0.115   0.222  0.2115 -1.0044  1.2861
   64MOL   H18521731   7.063   0.007   0.429 -0.3012 -1.0476  0.0166
   64MOL   H18621732   6.943   0.128   0.477 -0.1992 -0.5277  0.6610
   64MOL   H18721733   7.124   0.222   0.614  1.3175 -3.5475  0.7718
   64MOL   H18821734   7.246   0.129   0.527 -2.1378 -3.7139  0.9121
   64MOL   C18921735   7.077   0.537   0.234 -0.7678  0.5289  0.0193
   64MOL   C19021736   6.943   0.531   0.313 -0.6984  0.1772  0.2990
   64MOL   N19121737   6.920   0.664   0.374 -0.6343  0.4098 -0.5448
   64MOL   C19221738   6.919   0.681   0.514  0.1739  0.1353 -0.1718
   64MOL   C19321739   6.879   0.822   0.558 -0.1269 -0.4453 -0.0306
   64MOL   C19421740   6.882   0.899   0.425 -0.1834  0.0880  0.3580
   64MOL   C19521741   6.894   0.784   0.322 -0.2664 -0.3370 -0.8910
   64MOL   O19621742   6.863   0.806   0.205 -1.0208  0.4055 -0.2064
   64MOL   H19721743   7.064   0.603   0.148  0.6858 -0.1543 -0.7312
   64MOL   H19821744   7.153   0.587   0.293 -0.2689  0.7408 -0.7958
   64MOL   H19921745   6.954   0.461   0.395 -0.4001  0.9796  0.9580
   64MOL   H20021746   6.850   0.614   0.564  0.2291  1.2336  1.4169
   64MOL   H20121747   7.017   0.657   0.556 -0.6687 -2.7772  0.2466
   64MOL   H20221748   6.778   0.832   0.598  0.3576 -2.1815  1.6638
   64MOL   H20321749   6.945   0.859   0.637 -1.2005 -2.0594  1.6614
   64MOL   H20421750   6.796   0.964   0.409  0.7878  0.6246 -3.1196
   64MOL   H20521751   6.968   0.966   0.431 -0.8052  0.9333 -0.0987
   64MOL   C20621752   6.822   0.484   0.236 -0.9480 -0.3502 -0.8198
   64MOL   C20721753   6.692   0.468   0.312 -0.5147  0.1324 -0.3581
   64MOL   N20821754   6.574   0.474   0.219  0.5455  1.1714 -0.4387
   64MOL   C20921755   6.490   0.583   0.208 -0.2910 -0.1742  0.1472
   64MOL   C21021756   6.389   0.551   0.091 -0.1243  0.4783  0.7839
   64MOL   C21121757   6.445   0.427   0.019 -0.4063 -0.4898  0.6613
   64MOL   C21221758   6.559   0.387   0.111  0.1296  0.3920  0.2274
   64MOL   O21321759   6.637   0.289   0.082  0.1676  0.5787 -0.6596
   64MOL   H21421760   6.836   0.392   0.179 -0.3203 -0.7705  0.0142
   64MOL   H21521761   6.811   0.553   0.152 -0.1261  0.0708 -0.5851
   64MOL   H21621762   6.693   0.562   0.368 -2.1846  0.3112 -0.6032
   64MOL   H21721763   6.441   0.611   0.301  2.0808  1.4965  0.9288
   64MOL   H21821764   6.554   0.658   0.163 -1.2391  0.0924 -0.7671
   64MOL   H21921765   6.294   0.542   0.143  0.1758  1.0456  1.4610
   64MOL   H22021766   6.381   0.628   0.015 -0.0957 -0.8590 -0.5767
   64MOL   H22121767   6.365   0.353   0.026 -0.7938 -0.4153 -2.5662
   64MOL   H22221768   6.484   0.465   7.831  0.9920 -1.8733  0.6627
   64MOL   C22321769   6.692   0.347   0.406 -0.7193  0.3971 -0.6862
   64MOL   C22421770   6.590   0.362   0.525 -0.1277 -0.6887 -0.1815
   64MOL   N22521771   6.574   0.234   0.590  0.4940  0.1436 -0.0637
   64MOL   C22621772   6.439   0.164   0.593 -0.2488  0.4926 -0.2973
   64MOL   C22721773   6.471   0.043   0.688 -0.1676 -0.4620  0.1792
   64MOL   C22821774   6.606   0.069   0.759  0.8511  0.1359  0.8426
   64MOL   C22921775   6.662   0.181   0.675  0.2156  0.5795 -0.4093
   64MOL   O23021776   6.786   0.205   0.678 -0.5851 -0.7238  0.4543
   64MOL   H23121777   6.791   0.323   0.443  0.2845  1.0453 -2.8371
   64MOL   H23221778   6.667   0.262   0.342  1.2582  1.1623 -2.5439
   64MOL   H23321779   6.494   0.372   0.475 -0.1953 -0.0274  0.0762
   64MOL   H23421780   6.358   0.226   0.630 -0.7851 -0.2125 -0.2833
   64MOL   H23521781   6.399   0.131   0.497 -0.2210  3.0981 -1.2531
   64MOL   H23621782   6.387   0.026   0.755 -1.9840  1.2157 -1.5793
   64MOL   H23721783   6.487   7.862   0.624 -0.7157 -0.8252  0.5359
   64MOL   H23821784   6.601   0.123   0.854  1.0502 -0.3833  1.1523
   64MOL   H23921785   6.673   7.889   0.766  1.9680  1.0035  1.0974
   64MOL   C24021786   6.596   0.479   0.622 -0.5566  0.3428 -0.4863
   64MOL   C24121787   6.475   0.518   0.700  0.3731  0.5731 -0.2633
   64MOL   N24221788   6.514   0.572   0.834  0.1908  0.1274 -0.0969
   64MOL   C24321789   6.475   0.502   0.948 -0.7679  0.6177  0.2448
   64MOL   C24421790   6.572   0.560   1.055  0.1945  0.2184 -0.2486
   64MOL   C24521791   6.616   0.700   1.002 -0.3334 -0.0589  0.2842
   64MOL   C24621792   6.581   0.683   0.854  0.0519 -0.3874  0.0673
   64MOL   O24721793   6.622   0.758   0.763  0.1510  0.1819 -0.4245
   64MOL   H24821794   6.630   0.572   0.577  1.5562 -0.5435 -0.7476
   64MOL   H24921795   6.670   0.453   0.697 -0.4649 -1.2285 -1.1125
   64MOL   H25021796   6.421   0.426   0.719 -0.3355  0.8892 -0.7484
   64MOL   H25121797   6.368   0.516   0.960 -0.6026  1.3501  0.8940
   64MOL   H25221798   6.490   0.394   0.950  0.8805  0.8409  0.7262
   64MOL   H25321799   6.528   0.564   1.155 -1.0753  1.2440 -0.8392
   64MOL   H25421800   6.667   0.507   1.051 -0.6207 -1.1869 -1.6206
   64MOL   H25521801   6.563   0.773   1.062  0.6620  1.1112 -0.2585
   64MOL   H25621802   6.719   0.732   1.013 -0.5165  0.4774  0.4312
   64MOL   C25721803   6.379   0.612   0.622  0.0731  0.7163 -0.6221
   64MOL   C25821804   6.241   0.638   0.694  0.3443  1.1275  0.8274
   64MOL   N25921805   6.177   0.755   0.631 -0.7508 -1.0942 -0.0242
   64MOL   C26021806   6.145   0.870   0.713 -0.0074  0.1847 -0.2534
   64MOL   C26121807   6.049   0.956   0.634  0.1666 -0.0182  0.1238
   64MOL   C26221808   6.045   0.901   0.498 -0.6575  0.8731  0.4965
   64MOL   C26321809   6.128   0.770   0.505 -0.2627 -0.3037 -0.0773
   64MOL   O26421810   6.143   0.693   0.406  0.4172 -0.3897  0.1612
   64MOL   H26521811   6.364   0.570   0.522 -3.0138  0.8280 -0.2462
   64MOL   H26621812   6.432   0.701   0.587  2.1577 -0.3406 -0.1941
   64MOL   H26721813   6.270   0.688   0.787  1.5478  1.3113  0.3582
   64MOL   H26821814   6.105   0.850   0.813 -0.0502  1.6117  0.0137
   64MOL   H26921815   6.238   0.923   0.733  0.0453 -0.2675  0.7400
   64MOL   H27021816   5.950   0.935   0.677 -0.1724 -1.0424 -1.1152
   64MOL   H27121817   6.079   1.059   0.652  0.4868  0.3141 -2.2006
   64MOL   H27221818   5.943   0.887   0.463 -1.5052  2.9389  2.0458
   64MOL   H27321819   6.107   0.965   0.436 -0.8265  0.9450  0.4029
   64MOL   C27421820   6.144   0.518   0.719  0.8390  0.8603  0.2685
   64MOL   C27521821   6.031   0.544   0.825  0.3063  0.4031 -0.2461
   64MOL   N27621822   5.940   0.429   0.826 -0.3112  0.0152  0.1986
   64MOL   C27721823   5.808   0.445   0.765 -0.4747  0.1041 -0.4197
   64MOL   C27821824   5.746   0.310   0.778 -1.0463  0.7502  0.4010
   64MOL   C27921825   5.860   0.212   0.802 -0.1559 -0.4966  0.2800
   64MOL   C28021826   5.976   0.302   0.849  0.0488 -0.5814  0.5560
   64MOL   O28121827   6.088   0.265   0.874 -0.1813 -0.0549  0.1426
   64MOL   H28221828   6.208   0.436   0.751  0.1531  0.8214  1.6065
   64MOL   H28321829   6.098   0.485   0.625 -1.3862  2.9679  0.5487
   64MOL   H28421830   5.978   0.633   0.788  0.2860  0.7485  0.6152
   64MOL   H28521831   5.744   0.529   0.792 -0.2092 -0.4671  2.0667
   64MOL   H28621832   5.820   0.458   0.657  0.6820 -0.4163 -0.3590
   64MOL   H28721833   5.679   0.314   0.864 -0.0666 -0.7680  1.2529
   64MOL   H28821834   5.693   0.271   0.691 -0.1379  0.2909  0.0575
   64MOL   H28921835   5.827   0.155   0.888  2.7640  0.1995  1.9337
   64MOL   H29021836   5.876   0.144   0.719 -2.5920 -1.0029  0.1782
   64MOL   C29121837   6.099   0.570   0.968  1.2192  0.2501 -0.1293
   64MOL   C29221838   5.998   0.624   1.076  0.2427  0.0007 -0.5414
   64MOL   N29321839   6.055   0.616   1.211 -0.3333  0.1182  0.2489
   64MOL   C29421840   5.977   0.543   1.314  0.7112 -0.1533 -0.1027
   64MOL   C29521841   6.053   0.554   1.443 -0.3095 -0.7888  0.0583
   64MOL   C29621842   6.195   0.588   1.397  0.3072  0.4025 -0.2331
   64MOL   C29721843   6.184   0.627   1.252 -0.4252  0.0324  0.7107
   64MOL   O29821844   6.287   0.655   1.187 -0.1315  0.3154  0.4899
   64MOL   H29921845   6.161   0.658   0.951  1.1396 -0.0138 -1.7823
   64MOL   H30021846   6.164   0.491   1.005 -1.3197 -2.2828 -0.9553
   64MOL   H30121847   5.909   0.562   1.061  2.1767 -2.3779 -2.4348
   64MOL   H30221848   5.880   0.592   1.324  1.4864  1.2203  0.9676
   64MOL   H30321849   5.956   0.439   1.290  0.7822  0.0243 -0.9478
   64MOL   H30421850   6.012   0.631   1.509  0.1496  1.0874 -1.7965
   64MOL   H30521851   6.054   0.460   1.499 -0.1661 -1.0629 -0.4016
   64MOL   H30621852   6.238   0.665   1.461  0.5685  0.4480 -0.4591
   64MOL   H30721853   6.266   0.505   1.404  1.1814  1.3005  2.2410
   64MOL   C30821854   5.954   0.775   1.047  0.3474 -0.2600 -0.6302
   64MOL   C30921855   5.851   0.839   1.150  0.4583  0.8353 -0.7589
   64MOL   N31021856   5.862   0.991   1.124  0.3341 -0.3051  0.3304
   64MOL   C31121857   5.907   1.075   1.231 -0.1668 -0.2341  0.6216
   64MOL   C31221858   5.882   1.221   1.189  0.6490 -0.5611 -0.2508
   64MOL   C31321859   5.823   1.215   1.052 -0.0180  0.3228  0.3491
   64MOL   C31421860   5.818   1.066   1.020 -0.3135 -0.3188 -0.3985
   64MOL   O31521861   5.787   1.025   0.916 -0.0279 -0.5539  0.8566
   64MOL   H31621862   5.916   0.788   0.945 -2.5709 -1.3776  0.2518
   64MOL   H31721863   6.040   0.841   1.057  0.2708  0.0214 -1.6811
   64MOL   H31821864   5.899   0.821   1.246  0.8390  3.5121 -0.4106
   64MOL   H31921865   5.853   1.053   1.323  1.3130 -1.0336  1.3101
   64MOL   H32021866   6.014   1.058   1.245  0.0039 -0.1643 -0.5026
   64MOL   H32121867   5.804   1.262   1.253  1.2173 -1.0687  0.7737
   64MOL   H32221868   5.968   1.287   1.197 -1.7895  2.6731  0.2425
   64MOL   H32321869   5.717   1.235   1.059  0.0891  1.0208 -0.0118
   64MOL   H32421870   5.871   1.281   0.979  2.3500 -0.2295  1.3664
   64MOL   C32521871   5.705   0.782   1.137  0.1756 -0.9062  0.0694
   64MOL   C32621872   5.607   0.841   1.246  0.0071 -0.9106 -0.3638
   64MOL   N32721873   5.498   0.755   1.272 -0.4127  0.7325  0.1353
   64MOL   C32821874   5.372   0.814   1.258 -0.2862  0.4899  0.1146
   64MOL   C32921875   5.280   0.715   1.328 -0.9963 -0.3324 -0.1559
   64MOL   C33021876   5.351   0.585   1.329 -0.5128 -0.3076  0.3698
   64MOL   C33121877   5.496   0.626   1.304 -0.2226  0.4448 -0.3254
   64MOL   O33221878   5.587   0.539   1.318  0.6860  0.3455  0.2341
   64MOL   H33321879   5.711   0.673   1.142  0.1189 -0.8546  1.6966
   64MOL   H33421880   5.667   0.808   1.039  1.1964  1.2635  0.2183
   64MOL   H33521881   5.588   0.944   1.216  1.1324 -0.0408  1.7747
   64MOL   H33621882   5.374   0.912   1.306  0.8007  0.3715  0.3297
   64MOL   H33721883   5.351   0.828   1.153 -0.2886 -0.3947 -0.0064
   64MOL   H33821884   5.253   0.747   1.429 -0.8395  0.1180 -0.2573
   64MOL   H33921885   5.180   0.714   1.283 -1.6909  2.4817  1.2088
   64MOL   H34021886   5.339   0.534   1.425 -0.4683  0.7769  0.9652
   64MOL   H34121887   5.311   0.521   1.251 -2.6387 -0.4881  1.5763
   64MOL   H34221888   5.667   0.850   1.337 -0.0367 -0.9981 -0.3258
   65MOL     C121889   6.464   6.912   1.264  0.3830 -0.1631 -0.6786
   65MOL     C221890   6.418   6.910   1.412  0.6656 -0.2152 -0.0957
   65MOL     N321891   6.270   6.904   1.417  0.2293  0.0317 -0.8029
   65MOL     C421892   6.214   7.042   1.405  0.1137  0.6668  0.0626
   65MOL     C521893   6.056   7.029   1.418  0.3398 -0.4430  0.4972
   65MOL     C621894   6.041   6.871   1.388  0.3816 -0.0615 -0.1439
   65MOL     C721895   6.175   6.808   1.396  0.4874 -0.0471  0.1510
   65MOL     O821896   6.201   6.689   1.389 -0.5071 -0.6202 -0.3387
   65MOL     H921897   6.403   6.845   1.203 -0.2802  0.5364 -0.7931
   65MOL    H1021898   6.455   7.014   1.227 -2.0910 -0.1333 -0.0946
   65MOL    H1121899   6.457   7.000   1.459  0.6751  0.5277 -1.4774
   65MOL    H1221900   6.264   7.105   1.478  0.9278 -1.5327  1.4551
   65MOL    H1321901   6.235   7.088   1.308  0.4336  1.1126  0.3426
   65MOL    H1421902   6.009   7.042   1.515  2.2834 -0.8792  1.5207
   65MOL    H1521903   5.984   7.084   1.357  1.2412  0.4823  0.2595
   65MOL    H1621904   5.972   6.819   1.454 -0.3721  0.9059 -0.1618
   65MOL    H1721905   6.011   6.836   1.289  4.5059 -2.6872 -0.5997
   65MOL    H1821906   6.566   6.885   1.238  1.1843  1.1988  0.9747
   65MOL    C1921907   6.485   6.796   1.497 -0.1415  0.6331  0.3097
   65MOL    C2021908   6.430   6.760   1.633 -0.6284 -0.2708 -0.4939
   65MOL    N2121909   6.491   6.632   1.672 -0.2750 -0.0653 -0.2162
   65MOL    C2221910   6.410   6.509   1.677  0.1289 -1.2320  0.3373
   65MOL    C2321911   6.515   6.393   1.657 -0.6570  0.0475 -0.1135
   65MOL    C2421912   6.640   6.453   1.718  0.2703  0.4780  1.0410
   65MOL    C2521913   6.619   6.599   1.696  0.2231 -0.4138  0.0518
   65MOL    O2621914   6.714   6.679   1.705 -0.2469 -0.2965  0.3049
   65MOL    H2721915   6.593   6.804   1.492  0.0959 -1.9333  0.5536
   65MOL    H2821916   6.478   6.706   1.436 -2.1533  0.2747  1.0365
   65MOL    H2921917   6.323   6.741   1.636 -0.8824  0.9007 -1.8770
   65MOL    H3021918   6.357   6.518   1.772 -0.7955  2.8437 -0.4470
   65MOL    H3121919   6.345   6.521   1.589  1.7594  0.2571 -0.7039
   65MOL    H3221920   6.479   6.301   1.703 -0.7993  0.3856  0.4518
   65MOL    H3321921   6.526   6.377   1.550  0.0731  0.6102 -0.1283
   65MOL    H3421922   6.655   6.430   1.824  1.0502  0.9174  1.0304
   65MOL    H3521923   6.731   6.431   1.662 -0.7999 -0.7612 -0.2450
   65MOL    C3621924   6.459   6.872   1.735 -0.1297 -0.2925 -0.0180
   65MOL    C3721925   6.323   6.941   1.776 -0.7676  0.1520 -0.1719
   65MOL    N3821926   6.223   6.847   1.831  0.1490  0.1608 -0.2730
   65MOL    C3921927   6.084   6.871   1.777 -0.0483  0.2386  0.3890
   65MOL    C4021928   5.995   6.777   1.861  0.3768 -0.4376  0.3427
   65MOL    C4121929   6.087   6.711   1.968  0.1190 -0.9845  0.3623
   65MOL    C4221930   6.230   6.752   1.927  0.1769 -0.4575  0.1007
   65MOL    O4321931   6.335   6.708   1.980  0.0428 -0.1994  0.0481
   65MOL    H4421932   6.539   6.940   1.707 -0.9069  1.2027  1.3117
   65MOL    H4521933   6.488   6.831   1.832 -2.1387  0.3965  0.9026
   65MOL    H4621934   6.281   6.989   1.688 -2.5761 -0.5025  0.3127
   65MOL    H4721935   6.062   6.977   1.778  0.8555  0.4310  1.1052
   65MOL    H4821936   6.081   6.833   1.675  2.9293  0.5596  0.1315
   65MOL    H4921937   5.916   6.833   1.911  0.4248 -0.5713  0.5687
   65MOL    H5021938   5.944   6.697   1.808  0.2180  0.9652 -1.7100
   65MOL    H5121939   6.061   6.739   2.070  0.4661  2.9406 -0.5630
   65MOL    H5221940   6.076   6.602   1.961  0.3702 -0.8826 -2.2877
   65MOL    C5321941   6.350   7.057   1.875  0.8518 -0.3165 -0.5287
   65MOL    C5421942   6.431   7.177   1.807  0.3814  0.0896 -0.3870
   65MOL    N5521943   6.351   7.245   1.706  0.1709 -0.1390  0.2267
   65MOL    C5621944   6.415   7.317   1.602  0.0851 -0.6166  0.5115
   65MOL    C5721945   6.297   7.384   1.522 -0.0796  0.5038  0.7465
   65MOL    C5821946   6.181   7.389   1.619 -0.1780 -0.1421 -0.6277
   65MOL    C5921947   6.220   7.278   1.716  0.4149 -0.7656  0.6466
   65MOL    O6021948   6.140   7.243   1.798  0.3100  0.5849 -0.4806
   65MOL    H6121949   6.412   7.024   1.958 -2.5560 -0.6835  1.9878
   65MOL    H6221950   6.262   7.092   1.929  2.2098  0.3401  1.3060
   65MOL    H6321951   6.527   7.138   1.771  1.4220  0.9910  1.3483
   65MOL    H6421952   6.480   7.394   1.645 -1.8812  2.4957 -1.8519
   65MOL    H6521953   6.473   7.256   1.533  2.1448 -2.2613  3.5964
   65MOL    H6621954   6.327   7.482   1.485  0.6760 -0.0137 -0.0383
   65MOL    H6721955   6.260   7.331   1.434 -0.6765 -1.9267  2.4080
   65MOL    H6821956   6.185   7.481   1.677  2.5185 -0.6270  0.0542
   65MOL    H6921957   6.083   7.371   1.576 -1.4475  1.0482  1.6771
   65MOL    C7021958   6.468   7.285   1.910 -0.2882  0.7087 -0.3440
   65MOL    C7121959   6.571   7.239   2.021  0.3441  0.3418 -0.0670
   65MOL    N7221960   6.682   7.168   1.968  0.3962 -0.1576  0.2444
   65MOL    C7321961   6.704   7.036   2.012 -0.1818  0.0582  0.0551
   65MOL    C7421962   6.805   6.988   1.908 -0.1117 -0.2358  0.9694
   65MOL    C7521963   6.856   7.105   1.826 -0.6716  0.4588  0.2716
   65MOL    C7621964   6.766   7.214   1.876  0.2552  0.3119  0.0834
   65MOL    O7721965   6.776   7.327   1.827  0.4877 -0.5698 -0.2108
   65MOL    H7821966   6.386   7.335   1.962  0.8514  2.2143  0.0440
   65MOL    H7921967   6.525   7.361   1.856  4.3213 -1.1874  1.6559
   65MOL    H8021968   6.520   7.171   2.089  1.6378 -1.3779 -0.7846
   65MOL    H8121969   6.740   7.029   2.115 -0.8538  1.5571  0.4121
   65MOL    H8221970   6.610   6.981   2.016 -1.4369  2.1415 -0.1326
   65MOL    H8321971   6.880   6.925   1.957  0.6768  0.0572  0.1557
   65MOL    H8421972   6.758   6.915   1.843  1.2670  0.7424 -1.2110
   65MOL    H8521973   6.962   7.129   1.835 -0.2580 -1.6365  1.3139
   65MOL    H8621974   6.831   7.100   1.720  1.3509  0.2716 -0.2199
   65MOL    C8721975   6.622   7.357   2.111 -0.3051  0.4153  0.7173
   65MOL    C8821976   6.713   7.332   2.234  0.5951 -0.0316  0.1937
   65MOL    N8921977   6.753   7.458   2.296  0.2178 -0.1819 -0.4710
   65MOL    C9021978   6.892   7.504   2.281 -0.1765 -0.1202  0.4375
   65MOL    C9121979   6.902   7.619   2.375 -0.7419 -0.3593  0.1911
   65MOL    C9221980   6.761   7.665   2.406 -0.6940 -0.0061  0.4665
   65MOL    C9321981   6.677   7.548   2.364 -0.0098  0.3999  0.5656
   65MOL    O9421982   6.559   7.539   2.398  0.1589 -0.5464  0.4938
   65MOL    H9521983   6.529   7.396   2.153 -2.7584 -3.0013 -1.3458
   65MOL    H9621984   6.672   7.424   2.041  1.3549 -1.2531  0.2784
   65MOL    H9721985   6.799   7.280   2.191  0.1522 -0.4499 -0.1835
   65MOL    H9821986   6.965   7.426   2.301 -1.5760 -1.5454  0.0421
   65MOL    H9921987   6.891   7.542   2.179  4.7827 -0.1242  0.2630
   65MOL   H10021988   6.959   7.588   2.463 -2.2098 -0.8350  1.0057
   65MOL   H10121989   6.954   7.709   2.344 -2.6493  0.7063  0.0080
   65MOL   H10221990   6.744   7.684   2.512 -0.9968  0.0053  0.4165
   65MOL   H10321991   6.737   7.743   2.334  2.1307  1.6032  1.1793
   65MOL   C10421992   6.642   7.245   2.345 -0.2013  0.0356  0.1630
   65MOL   C10521993   6.730   7.207   2.469 -1.0881  0.6282 -0.4630
   65MOL   N10621994   6.681   7.261   2.598  0.1786  0.6989 -0.0773
   65MOL   C10721995   6.765   7.356   2.674 -0.2432  0.5175  0.0329
   65MOL   C10821996   6.716   7.350   2.819  0.0776 -0.3401  0.0489
   65MOL   C10921997   6.566   7.311   2.796 -0.4697  0.2277 -0.1253
   65MOL   C11021998   6.564   7.238   2.661  0.0288  0.2093 -1.0274
   65MOL   O11121999   6.472   7.162   2.629 -0.1349  0.1078  0.0624
   65MOL   H11222000   6.613   7.159   2.285 -0.8924  1.5873 -1.7680
   65MOL   H11322001   6.549   7.293   2.376 -0.7557  0.4459 -2.0627
   65MOL   H11422002   6.836   7.230   2.464 -1.2670  1.1758 -2.2496
   65MOL   H11522003   6.871   7.330   2.667 -1.0316 -3.0243  0.1786
   65MOL   H11622004   6.759   7.459   2.640  0.2679  1.1161  1.7059
   65MOL   H11722005   6.775   7.275   2.872  0.5939  0.8078  1.1216
   65MOL   H11822006   6.740   7.436   2.881 -1.4461 -0.8822  1.4259
   65MOL   H11922007   6.500   7.398   2.796  0.0261  0.6034  0.1575
   65MOL   H12022008   6.522   7.254   2.879  0.4350  0.0060  0.2089
   65MOL   C12122009   6.744   7.056   2.475 -0.1533  0.3463 -0.1371
   65MOL   C12222010   6.812   7.003   2.606 -0.3597  0.0890  0.4419
   65MOL   N12322011   6.762   6.862   2.635  0.1641 -0.0315 -0.5591
   65MOL   C12422012   6.669   6.850   2.743 -0.9329  0.7717 -0.2395
   65MOL   C12522013   6.616   6.705   2.727 -0.2706 -0.2822  0.4008
   65MOL   C12622014   6.712   6.635   2.628  0.0800  0.0863  0.3667
   65MOL   C12722015   6.787   6.750   2.572 -0.0114  0.2914  0.1356
   65MOL   O12822016   6.863   6.743   2.474  0.1523  0.1244 -0.2413
   65MOL   H12922017   6.799   7.020   2.389 -0.7191  0.3860 -0.5223
   65MOL   H13022018   6.643   7.014   2.468 -0.5234  0.2920  3.8382
   65MOL   H13122019   6.773   7.056   2.693 -1.5520  1.0440 -0.6511
   65MOL   H13222020   6.575   6.905   2.732 -1.6096 -0.5012 -0.9500
   65MOL   H13322021   6.720   6.857   2.839 -0.2429  0.1722 -0.5655
   65MOL   H13422022   6.622   6.661   2.826 -1.1959  0.5203  0.8137
   65MOL   H13522023   6.510   6.695   2.706 -0.5192  1.5029  0.7712
   65MOL   H13622024   6.788   6.570   2.671  1.7816  0.5868 -1.7882
   65MOL   H13722025   6.669   6.574   2.548  0.2235 -0.1099  0.4375
   65MOL   C13822026   6.968   7.012   2.603  0.1293  0.0501  0.1505
   65MOL   C13922027   7.036   6.979   2.736  0.0779  0.1005  0.2329
   65MOL   N14022028   7.175   6.968   2.721  0.0494 -0.2135  0.2234
   65MOL   C14122029   7.251   6.842   2.743  0.1640  0.0404 -0.2014
   65MOL   C14222030   7.389   6.865   2.680 -0.2853  0.1755 -0.2242
   65MOL   C14322031   7.400   7.019   2.690 -0.2920  0.6927  0.0375
   65MOL   C14422032   7.260   7.065   2.691 -0.1850  0.2941  0.3029
   65MOL   O14522033   7.234   7.187   2.671  0.4602 -0.7947 -0.2246
   65MOL   H14622034   6.988   7.116   2.575 -0.7873  0.1858 -0.0256
   65MOL   H14722035   7.002   6.948   2.522 -1.4468 -2.2870  1.2945
   65MOL   H14822036   6.997   6.882   2.764  2.6696 -1.0682 -0.1386
   65MOL   H14922037   7.259   6.811   2.847 -0.8284 -1.3038 -0.5127
   65MOL   H15022038   7.181   6.775   2.692  2.3017 -1.0936 -1.7477
   65MOL   H15122039   7.466   6.819   2.741 -2.7214 -3.4197  0.3191
   65MOL   H15222040   7.388   6.835   2.575  1.1031  2.0942 -0.8115
   65MOL   H15322041   7.461   7.060   2.609  0.1233  2.4126  1.1836
   65MOL   H15422042   7.454   7.060   2.775  1.4025  0.4462 -0.9058
   65MOL   C15522043   6.989   7.083   2.853 -0.6979 -0.1167 -0.1242
   65MOL   C15622044   7.065   7.062   2.990 -0.3182 -0.1035  0.0496
   65MOL   N15722045   7.046   7.176   3.076  0.5018  0.7482 -0.4233
   65MOL   C15822046   7.151   7.271   3.097  0.1367 -0.4516 -0.4138
   65MOL   C15922047   7.094   7.390   3.180 -0.3003  0.3342 -0.4556
   65MOL   C16022048   6.947   7.353   3.190 -0.0395  0.6636  0.3308
   65MOL   C16122049   6.932   7.223   3.121  1.3265  0.1050 -0.3704
   65MOL   O16222050   6.817   7.174   3.105  0.1611  0.3950 -0.5303
   65MOL   H16322051   6.881   7.080   2.862 -0.6175 -1.3804  0.5120
   65MOL   H16422052   7.010   7.186   2.825 -1.8755  0.5881  1.5185
   65MOL   H16522053   7.171   7.048   2.969 -0.5187 -1.6837  0.0578
   65MOL   H16622054   7.242   7.228   3.139  0.3676  0.3637 -0.0680
   65MOL   H16722055   7.195   7.325   3.013  2.5585  0.9216  1.6535
   65MOL   H16822056   7.133   7.397   3.282 -0.1770 -1.4305 -0.3742
   65MOL   H16922057   7.106   7.484   3.126 -0.4789  0.6796  0.0965
   65MOL   H17022058   6.912   7.351   3.293 -1.6326 -1.2059 -0.2101
   65MOL   H17122059   6.877   7.420   3.139  1.0808  0.8614 -0.9777
   65MOL   C17222060   7.025   6.932   3.057  0.4550  0.3207  0.0190
   65MOL   C17322061   7.059   6.902   3.205 -0.0882 -0.5061  0.3136
   65MOL   N17422062   6.987   6.781   3.249  0.0651 -0.0299 -0.1237
   65MOL   C17522063   6.890   6.783   3.361 -0.0803  0.2483  0.2908
   65MOL   C17622064   6.845   6.644   3.396  0.0120  0.6217  0.3962
   65MOL   C17722065   6.927   6.558   3.297  0.2426 -0.8517  0.3843
   65MOL   C17822066   7.000   6.654   3.207 -0.6957 -0.5801  0.5290
   65MOL   O17922067   7.070   6.618   3.107  0.1381  0.6504 -0.3740
   65MOL   H18022068   7.052   6.853   2.986  0.7039 -0.2717  0.7759
   65MOL   H18122069   6.916   6.934   3.051  0.4335 -1.0726 -0.2367
   65MOL   H18222070   7.018   6.989   3.256 -2.1834 -0.5672 -1.2167
   65MOL   H18322071   6.931   6.844   3.442 -1.0811  1.3426  0.0021
   65MOL   H18422072   6.805   6.841   3.325 -0.1906 -1.7916 -2.9419
   65MOL   H18522073   6.737   6.629   3.399  0.0977  0.1251  1.4788
   65MOL   H18622074   6.875   6.620   3.498 -1.1721  0.2587  0.6679
   65MOL   H18722075   7.003   6.502   3.352 -0.1692 -1.6521  0.1392
   65MOL   H18822076   6.862   6.502   3.230  0.7775 -0.6244 -0.3367
   65MOL   C18922077   7.210   6.907   3.230  0.1712  0.0912  0.5813
   65MOL   C19022078   7.250   6.959   3.371 -0.2422  0.3928  0.8817
   65MOL   N19122079   7.395   6.920   3.383  0.0281 -0.1250 -0.7360
   65MOL   C19222080   7.443   6.829   3.485 -0.3844  0.4029 -0.5435
   65MOL   C19322081   7.588   6.850   3.513 -0.7050  0.0997  0.7161
   65MOL   C19422082   7.630   6.946   3.403 -0.5993  0.2793 -0.0110
   65MOL   C19522083   7.506   6.965   3.319 -0.5581 -0.5984 -0.2289
   65MOL   O19622084   7.504   7.023   3.214 -0.1364  0.4271 -0.3511
   65MOL   H19722085   7.266   6.954   3.149 -1.5506  1.0969 -0.0710
   65MOL   H19822086   7.240   6.804   3.215 -0.2029  0.1252 -0.4360
   65MOL   H19922087   7.190   6.904   3.443  2.5431 -1.7839  1.6594
   65MOL   H20022088   7.387   6.868   3.570  0.8051  3.2581 -0.9936
   65MOL   H20122089   7.411   6.730   3.455  1.5043  0.5448 -3.2269
   65MOL   H20222090   7.608   6.903   3.606  2.3802  0.9557 -0.3630
   65MOL   H20322091   7.647   6.758   3.517  0.6094  0.9451  1.6114
   65MOL   H20422092   7.659   7.046   3.435 -1.4189  0.8121 -0.9027
   65MOL   H20522093   7.719   6.914   3.350  1.3069  0.3935  3.0185
   65MOL   C20622094   7.224   7.108   3.390  0.2348 -0.0205  0.8146
   65MOL   C20722095   7.248   7.157   3.539  0.2481  0.3856 -0.6176
   65MOL   N20822096   7.384   7.220   3.553 -0.1157 -0.1241 -0.3675
   65MOL   C20922097   7.428   7.339   3.468 -0.2442  0.0783 -0.3717
   65MOL   C21022098   7.560   7.383   3.530  0.3113 -0.1785  0.7597
   65MOL   C21122099   7.592   7.272   3.639 -0.2847  0.1397  0.3827
   65MOL   C21222100   7.473   7.183   3.645 -0.4173  0.0850 -0.4616
   65MOL   O21322101   7.466   7.094   3.734 -0.4206  0.4849  0.5365
   65MOL   H21422102   7.122   7.129   3.356  0.1731 -3.3294 -1.2369
   65MOL   H21522103   7.288   7.161   3.320 -1.1137 -0.6088 -0.8924
   65MOL   H21622104   7.235   7.069   3.602 -0.8768  0.4604 -0.7435
   65MOL   H21722105   7.446   7.321   3.362  2.6486 -3.3795  0.5734
   65MOL   H21822106   7.349   7.413   3.475  1.0102  1.2316  2.9013
   65MOL   H21922107   7.636   7.380   3.451  0.4054  1.9155  0.7545
   65MOL   H22022108   7.542   7.482   3.572 -0.3580 -0.9184  2.2596
   65MOL   H22122109   7.688   7.224   3.618  0.2461  1.2105  0.3302
   65MOL   H22222110   7.607   7.327   3.731  1.0242  0.2175  0.1353
   65MOL   C22322111   7.128   7.262   3.583 -0.9681  0.1458 -0.6077
   65MOL   C22422112   7.149   7.315   3.728  0.4372  0.5038 -1.0789
   65MOL   N22522113   7.067   7.432   3.742 -0.2605  0.0717  0.2868
   65MOL   C22622114   7.122   7.559   3.704 -0.5659  0.1163  0.4270
   65MOL   C22722115   7.019   7.671   3.733 -0.1963 -1.0917  0.2092
   65MOL   C22822116   6.885   7.584   3.741  0.0412 -1.4117 -0.2523
   65MOL   C22922117   6.934   7.439   3.759 -0.1133 -0.5696 -0.2319
   65MOL   O23022118   6.851   7.354   3.779 -0.1964 -0.6025  0.0691
   65MOL   H23122119   7.029   7.217   3.578 -0.9984 -0.1512  2.1567
   65MOL   H23222120   7.139   7.338   3.506 -0.9686 -0.7503 -1.5045
   65MOL   H23322121   7.253   7.348   3.734  0.2748  0.7121  0.8144
   65MOL   H23422122   7.208   7.579   3.769  1.0262 -2.5120 -0.7900
   65MOL   H23522123   7.149   7.569   3.599 -2.1981 -1.4051 -0.1507
   65MOL   H23622124   7.040   7.708   3.833 -0.7740 -0.3410  0.0601
   65MOL   H23722125   7.006   7.753   3.662  1.2017 -1.6293 -0.7023
   65MOL   H23822126   6.818   7.615   3.820  0.2554  0.4325 -0.7780
   65MOL   H23922127   6.841   7.602   3.642 -0.3639 -2.3378 -0.2465
   65MOL   C24022128   7.132   7.197   3.834  0.2441  0.9081  0.4456
   65MOL   C24122129   7.159   7.232   3.985 -1.3218 -0.3157 -0.4742
   65MOL   N24222130   7.098   7.134   4.076 -0.8688 -0.0927  0.4602
   65MOL   C24322131   7.008   7.180   4.177 -0.4942  0.6856 -0.6340
   65MOL   C24422132   6.961   7.053   4.253  0.1724 -0.1795 -0.0631
   65MOL   C24522133   7.028   6.932   4.186  0.2793 -0.2947  0.0225
   65MOL   C24622134   7.103   6.997   4.067 -0.0856 -0.7987  0.7711
   65MOL   O24722135   7.166   6.931   3.983  0.2121  0.0954  0.1269
   65MOL   H24822136   7.196   7.114   3.805  0.4735  1.1764  0.1865
   65MOL   H24922137   7.041   7.139   3.824  0.8359  0.2162 -1.0595
   65MOL   H25022138   7.106   7.325   4.005 -0.7229 -0.3042  1.1538
   65MOL   H25122139   7.059   7.246   4.248 -1.0391  1.9910 -1.4311
   65MOL   H25222140   6.924   7.235   4.135 -0.0661  0.6407 -1.5539
   65MOL   H25322141   6.984   7.056   4.360  2.4750  1.5973 -0.5762
   65MOL   H25422142   6.852   7.048   4.247  0.1722  1.3323 -1.9332
   65MOL   H25522143   7.108   6.889   4.247 -0.2667  1.9198  2.3941
   65MOL   H25622144   6.953   6.861   4.153  0.1674 -1.2561  2.2310
   65MOL   C25722145   7.312   7.249   3.997 -0.0902  0.4549  0.0585
   65MOL   C25822146   7.363   7.317   4.129 -0.8378 -0.2452  0.1564
   65MOL   N25922147   7.502   7.270   4.157 -0.3076 -0.7306  0.1115
   65MOL   C26022148   7.524   7.172   4.263 -0.6023 -0.3211 -0.1590
   65MOL   C26122149   7.673   7.150   4.269  0.0407  0.0645 -0.6021
   65MOL   C26222150   7.735   7.249   4.173  0.2735 -0.9275  0.3352
   65MOL   C26322151   7.614   7.312   4.101 -0.8291  0.0857  0.3247
   65MOL   O26422152   7.632   7.387   4.004 -0.0007  0.0253  0.4098
   65MOL   H26522153   7.348   7.317   3.920  1.3581  0.4263  0.6953
   65MOL   H26622154   7.354   7.150   3.982  2.5751  1.3901  0.9833
   65MOL   H26722155   7.291   7.273   4.198 -3.2691  1.1611 -1.3772
   65MOL   H26822156   7.496   7.225   4.354 -4.0975  1.4996 -2.1715
   65MOL   H26922157   7.469   7.078   4.257  1.4073 -1.4906 -0.5590
   65MOL   H27022158   7.705   7.168   4.371  2.0134 -1.6217 -0.8865
   65MOL   H27122159   7.689   7.044   4.247 -0.9231 -0.1150 -0.4485
   65MOL   H27222160   7.785   7.329   4.227 -0.6671  0.7898 -1.3182
   65MOL   H27322161   7.799   7.196   4.102 -0.0823 -2.5559  1.2003
   65MOL   C27422162   7.347   7.476   4.132 -0.2415  0.0762 -0.5597
   65MOL   C27522163   7.338   7.546   4.273  0.9219 -0.7276  0.3609
   65MOL   N27622164   7.405   7.681   4.279  0.1340 -0.6696  0.2570
   65MOL   C27722165   7.504   7.710   4.381 -0.9021  0.3351 -0.1370
   65MOL   C27822166   7.525   7.862   4.395  0.3671  0.0485 -0.3060
   65MOL   C27922167   7.430   0.001   4.270 -0.1039  0.0210  1.0388
   65MOL   C28022168   7.371   7.787   4.212 -0.4123 -0.0063  0.3724
   65MOL   O28122169   7.291   7.773   4.117  0.0723 -0.3218 -0.0097
   65MOL   H28222170   7.254   7.498   4.082 -1.1994 -2.0351  0.2169
   65MOL   H28322171   7.423   7.517   4.066 -0.3428 -1.1823 -1.4774
   65MOL   H28422172   7.394   7.479   4.339  0.7903 -0.4138  0.7931
   65MOL   H28522173   7.477   7.678   4.482  0.8815 -0.5171  0.0893
   65MOL   H28622174   7.598   7.660   4.358  0.7964  3.2062  0.3423
   65MOL   H28722175   7.492   7.901   4.491 -1.1123 -0.4448 -0.5997
   65MOL   H28822176   7.630   7.887   4.385  0.8647 -1.0923  1.8124
   65MOL   H28922177   7.357   0.083   4.276 -1.3490 -0.7641 -2.3221
   65MOL   H29022178   7.499   0.031   4.192 -0.3506 -0.3348  0.6803
   65MOL   C29122179   7.189   7.556   4.315 -0.2340  0.3974  0.0826
   65MOL   C29222180   7.162   7.651   4.436  0.2503 -0.7959 -0.4921
   65MOL   N29322181   7.023   7.697   4.429  0.1475 -0.1652  0.2853
   65MOL   C29422182   6.999   7.837   4.423 -0.6120  0.0700  0.0760
   65MOL   C29522183   6.852   7.846   4.431  0.2208  0.2540 -0.6614
   65MOL   C29622184   6.793   7.704   4.451 -0.1125  0.0713 -0.1013
   65MOL   C29722185   6.913   7.619   4.449 -1.1764  0.1095  0.1654
   65MOL   O29822186   6.911   7.494   4.465 -0.0349  0.6889  0.2831
   65MOL   H29922187   7.150   7.455   4.327  1.9818 -0.3696  1.1952
   65MOL   H30022188   7.131   7.591   4.229 -1.8404  2.5792  2.0070
   65MOL   H30122189   7.224   7.741   4.433 -1.3604  0.3966  0.5684
   65MOL   H30222190   7.062   7.894   4.491 -0.5845  0.3236 -0.1611
   65MOL   H30322191   7.036   7.864   4.324  1.0074  2.5428  1.2985
   65MOL   H30422192   6.831   7.905   4.520  0.4105  1.1363 -1.1982
   65MOL   H30522193   6.818   7.892   4.339  4.1134 -0.0462 -2.3388
   65MOL   H30622194   6.751   7.698   4.551  1.7666  0.1990  0.7199
   65MOL   H30722195   6.712   7.691   4.380 -1.4460  1.5391  1.1336
   65MOL   C30822196   7.192   7.588   4.571  0.5329  0.0508  0.0845
   65MOL   C30922197   7.197   7.680   4.697  0.3528 -0.1596 -0.1652
   65MOL   N31022198   7.169   7.601   4.821 -0.6372 -0.6568  0.0578
   65MOL   C31122199   7.044   7.616   4.894 -0.1137 -0.2596  0.1858
   65MOL   C31222200   7.058   7.528   5.017  0.0863 -0.1408 -0.5993
   65MOL   C31322201   7.180   7.439   4.995 -0.7548  0.1168 -0.2050
   65MOL   C31422202   7.251   7.515   4.885  0.4992  0.0808 -0.4391
   65MOL   O31522203   7.362   7.479   4.854 -0.3314 -0.2425  0.3097
   65MOL   H31622204   7.286   7.531   4.568  1.1855  0.9724  2.1466
   65MOL   H31722205   7.126   7.506   4.598 -0.2562  1.0785  1.2768
   65MOL   H31822206   7.111   7.747   4.697  0.9239  0.5988 -0.5171
   65MOL   H31922207   7.026   7.720   4.923 -0.9325  0.3785 -2.4459
   65MOL   H32022208   6.964   7.580   4.829  2.3502  0.8928 -3.7000
   65MOL   H32122209   7.073   7.601   5.097  2.7784 -1.4945  0.1937
   65MOL   H32222210   6.972   7.468   5.049 -0.9940  1.7122  0.0463
   65MOL   H32322211   7.246   7.442   5.082 -0.1744  0.5662 -0.6592
   65MOL   H32422212   7.143   7.342   4.962  1.2574 -1.5539  2.2444
   65MOL   C32522213   7.322   7.766   4.695  0.1014  0.0983  0.6720
   65MOL   C32622214   7.319   7.880   4.791 -0.6065 -0.7845 -0.4951
   65MOL   N32722215   7.437   0.057   4.787  0.2900 -0.3166  0.6301
   65MOL   C32822216   7.546   0.029   4.880  0.0460  0.4629  0.0049
   65MOL   C32922217   7.652   0.135   4.851  0.1443  0.4616  0.0253
   65MOL   C33022218   7.606   0.209   4.720 -0.8433  0.0854  0.0056
   65MOL   C33122219   7.467   0.152   4.700 -0.0417  0.1891  0.8013
   65MOL   O33222220   7.392   0.189   4.608  0.0904  0.2235  0.2626
   65MOL   H33322221   7.313   7.824   4.603 -0.8438 -0.5905  0.3199
   65MOL   H33422222   7.412   7.705   4.696  0.9603  1.3349  2.5103
   65MOL   H33522223   7.316   7.848   4.895 -1.1811  1.7778  0.3212
   65MOL   H33622224   7.513   0.037   4.984 -0.6975  1.2681 -0.2871
   65MOL   H33722225   7.569   7.829   4.864  1.5463  0.6414  0.9097
   65MOL   H33822226   7.649   0.206   4.933  2.8698  0.0300  0.5398
   65MOL   H33922227   7.747   0.083   4.851 -1.7885 -3.3020  3.2410
   65MOL   H34022228   7.597   0.317   4.736 -2.5264 -0.0970  0.3492
   65MOL   H34122229   7.673   0.196   4.635 -0.3313  0.6940  0.3126
   65MOL   H34222230   7.229   0.034   4.777  0.9177  0.9620 -3.2464
   66MOL     C122231   1.859   7.616   5.877  0.6931  0.7257 -0.1445
   66MOL     C222232   1.846   7.528   5.752  0.3739 -0.2501 -0.6732
   66MOL     N322233   1.711   7.482   5.727  0.4324 -0.4733  0.5705
   66MOL     C422234   1.660   7.363   5.794  0.2672 -0.4004  0.0887
   66MOL     C522235   1.513   7.351   5.772 -0.0515  0.3345  0.8544
   66MOL     C622236   1.480   7.460   5.674  0.3443 -0.1982 -1.1313
   66MOL     C722237   1.608   7.540   5.660  0.4421  0.1026 -0.1372
   66MOL     O822238   1.622   7.643   5.585 -0.3778  0.1845  0.3312
   66MOL     H922239   1.795   7.704   5.876  0.6196  0.6701 -0.3832
   66MOL    H1022240   1.835   7.561   5.969 -2.1111  1.2917 -0.4936
   66MOL    H1122241   1.909   7.440   5.749 -0.9259 -1.1430 -2.3182
   66MOL    H1222242   1.716   7.276   5.758 -3.5415 -2.3619 -1.2718
   66MOL    H1322243   1.659   7.366   5.903  1.5165  2.3919  0.0732
   66MOL    H1422244   1.482   7.252   5.737  0.1911  0.3193  0.6836
   66MOL    H1522245   1.451   7.366   5.860 -0.2720  1.7396  0.4794
   66MOL    H1622246   1.444   7.421   5.579  0.3475 -2.2545 -0.3188
   66MOL    H1722247   1.394   7.521   5.701  0.1821  0.4901 -3.0991
   66MOL    H1822248   1.958   7.660   5.879  1.0685 -0.1132  0.2578
   66MOL    C1922249   1.897   7.590   5.625  0.2793  0.1559 -0.1870
   66MOL    C2022250   2.050   7.604   5.619 -0.3679  0.2996 -0.0000
   66MOL    N2122251   2.115   7.474   5.601  0.1281  0.0457  0.3375
   66MOL    C2222252   2.218   7.443   5.691 -0.5409  0.9494 -0.0565
   66MOL    C2322253   2.241   7.288   5.672  0.0738 -1.2053  0.0635
   66MOL    C2422254   2.162   7.248   5.551  0.8886  0.0781  0.3977
   66MOL    C2522255   2.083   7.370   5.520 -0.1370  0.3102  0.4621
   66MOL    O2622256   2.001   7.375   5.431 -0.4179  0.1616  0.6167
   66MOL    H2722257   1.852   7.689   5.621 -1.9820 -0.6787  3.2731
   66MOL    H2822258   1.855   7.527   5.546 -2.7004  1.4865  0.2742
   66MOL    H2922259   2.090   7.655   5.706  0.6053 -1.7224  0.7685
   66MOL    H3022260   2.305   7.503   5.664  0.6482 -0.1261  1.2875
   66MOL    H3122261   2.196   7.453   5.798  2.1107 -1.8155  0.8259
   66MOL    H3222262   2.348   7.269   5.663 -0.0547 -1.9263  0.0396
   66MOL    H3322263   2.202   7.242   5.762 -0.0974  0.5028  0.8739
   66MOL    H3422264   2.222   7.236   5.460  1.7243 -0.0842  0.9617
   66MOL    H3522265   2.099   7.161   5.567 -1.3611  1.7001  0.6569
   66MOL    C3622266   2.091   7.691   5.494 -0.0234 -0.7713 -0.3767
   66MOL    C3722267   2.035   7.832   5.479 -0.4341  0.0849 -0.5990
   66MOL    N3822268   2.074   0.017   5.591 -0.1629 -0.3248 -0.0579
   66MOL    C3922269   1.976   0.066   5.682 -0.1931 -0.4583 -0.6535
   66MOL    C4022270   2.051   0.149   5.790 -0.3081 -0.4984  0.3089
   66MOL    C4122271   2.196   0.159   5.740  0.2836  0.2629 -0.0374
   66MOL    C4222272   2.196   0.059   5.624 -0.1703 -0.1425  0.2241
   66MOL    O4322273   2.297   0.036   5.560 -0.0210  0.3391  0.3086
   66MOL    H4422274   2.073   7.624   5.411  2.1499 -0.4000 -1.1846
   66MOL    H4522275   2.200   7.686   5.486  0.2954  1.2251  1.8840
   66MOL    H4622276   1.927   7.822   5.479 -0.3807 -0.4979 -0.6097
   66MOL    H4722277   1.910   0.131   5.623 -0.2367 -0.1740 -0.2925
   66MOL    H4822278   1.927   7.883   5.721 -1.7566  0.7174  0.1000
   66MOL    H4922279   2.000   0.244   5.806  0.2682 -0.3821  1.5271
   66MOL    H5022280   2.042   0.090   5.881 -0.4793  0.3215  0.8330
   66MOL    H5122281   2.202   0.261   5.700  0.6363  0.1764 -0.2086
   66MOL    H5222282   2.256   0.134   5.828  1.0483  1.0952 -0.3104
   66MOL    C5322283   2.086   7.889   5.344  0.8831  0.4769 -0.3712
   66MOL    C5422284   2.042   7.812   5.221 -0.2947 -0.0294 -0.0638
   66MOL    N5522285   1.899   7.797   5.205 -0.5990  0.3006  0.1347
   66MOL    C5622286   1.834   7.665   5.222 -0.3054 -0.2428  0.1958
   66MOL    C5722287   1.688   7.690   5.237 -0.0847 -0.3682  0.5476
   66MOL    C5822288   1.667   7.836   5.168 -0.6863  0.6133  0.0532
   66MOL    C5922289   1.812   7.894   5.172  0.4635  0.2898  0.6280
   66MOL    O6022290   1.837   0.109   5.154  0.2187 -0.0016 -0.6720
   66MOL    H6122291   2.193   0.002   5.344  0.8529  0.6805  0.9328
   66MOL    H6222292   2.049   0.086   5.335 -0.4646  0.3203  2.5987
   66MOL    H6322293   2.073   7.708   5.230  1.4914  0.4960  0.0382
   66MOL    H6422294   1.855   7.598   5.140 -0.1198 -1.4372  1.2015
   66MOL    H6522295   1.864   7.613   5.313  0.6154  1.5632  0.9646
   66MOL    H6622296   1.638   7.610   5.183 -1.6913  0.1753  1.1829
   66MOL    H6722297   1.648   7.678   5.338 -0.4369 -1.3285  0.2994
   66MOL    H6822298   1.626   7.828   5.067  1.6563 -0.6773 -0.8438
   66MOL    H6922299   1.609   7.905   5.229 -2.5565 -1.1065  0.2597
   66MOL    C7022300   2.096   7.878   5.093  0.4737  0.1782  0.3887
   66MOL    C7122301   2.243   7.844   5.067  0.1267  0.1090 -0.6592
   66MOL    N7222302   2.256   7.701   5.064  0.0523 -0.1288  0.6336
   66MOL    C7322303   2.333   7.638   5.165  0.7653  0.0670 -0.2337
   66MOL    C7422304   2.314   7.495   5.139  0.3886 -0.4291 -0.5951
   66MOL    C7522305   2.243   7.481   5.005 -0.7589  0.7473  0.4058
   66MOL    C7622306   2.207   7.623   4.968 -0.3619  0.1776  0.1484
   66MOL    O7722307   2.141   7.661   4.872  0.1965 -0.2662  0.4215
   66MOL    H7822308   2.104   0.081   5.093 -0.7734  0.3070 -2.6778
   66MOL    H7922309   2.038   7.850   5.005  3.8905  0.5577 -2.0890
   66MOL    H8022310   2.293   7.884   5.156 -0.1211  2.1511 -1.4158
   66MOL    H8122311   2.438   7.664   5.152  0.9822 -0.9953 -0.6829
   66MOL    H8222312   2.288   7.673   5.258  1.9878  0.5117  0.2022
   66MOL    H8322313   2.413   7.449   5.136  1.2877  1.3696  0.3218
   66MOL    H8422314   2.262   7.446   5.221  1.3484  0.4938  0.5878
   66MOL    H8522315   2.302   7.431   4.928 -1.6773 -1.3808  1.0416
   66MOL    H8622316   2.151   7.424   5.025 -0.5674  0.6772  1.1024
   66MOL    C8722317   2.306   0.007   4.939 -0.5275  0.9486  1.2440
   66MOL    C8822318   2.401   0.121   4.973 -0.1876 -0.3686  0.6851
   66MOL    N8922319   2.495   0.139   4.860 -0.7109 -0.0054 -0.1893
   66MOL    C9022320   2.640   0.140   4.896 -0.5719  0.6522  0.6876
   66MOL    C9122321   2.710   0.164   4.761  0.1845  0.7270  0.5091
   66MOL    C9222322   2.602   0.159   4.647 -0.1198 -0.3877 -0.3867
   66MOL    C9322323   2.474   0.154   4.725  0.1025  0.2924 -0.7764
   66MOL    O9422324   2.363   0.177   4.677  0.3717  0.2836 -0.4089
   66MOL    H9522325   2.224   0.045   4.879  1.1137  0.6253 -1.2710
   66MOL    H9622326   2.366   7.844   4.879 -3.1258 -2.3079  2.2697
   66MOL    H9722327   2.449   0.089   5.065 -0.7239 -0.0063  1.0923
   66MOL    H9822328   2.671   0.214   4.970  0.8639  1.0404 -0.2781
   66MOL    H9922329   2.666   0.040   4.929  0.2140  0.4787 -0.4333
   66MOL   H10022330   2.748   0.266   4.770  0.4704  0.5117  1.7916
   66MOL   H10122331   2.793   0.096   4.744  1.8557  2.5820  1.0402
   66MOL   H10222332   2.599   0.251   4.587 -1.3071 -0.9255 -1.1766
   66MOL   H10322333   2.618   0.072   4.584  0.1666 -1.4797  1.1744
   66MOL   C10422334   2.325   0.258   4.999 -0.1529 -0.0634 -0.0264
   66MOL   C10522335   2.302   0.293   5.151 -0.5996 -0.0049 -0.0068
   66MOL   N10622336   2.427   0.279   5.232 -0.7542 -0.3838  0.1096
   66MOL   C10722337   2.454   0.173   5.337  0.5799 -0.1271  1.3139
   66MOL   C10822338   2.608   0.169   5.359  0.1958  0.9104 -0.3658
   66MOL   C10922339   2.647   0.310   5.320 -0.5057 -0.2722  0.0858
   66MOL   C11022340   2.536   0.354   5.222 -0.5296  0.0541 -0.2204
   66MOL   O11122341   2.546   0.447   5.140 -0.1804  0.5048  0.5087
   66MOL   H11222342   2.236   0.244   4.937  1.0425  0.0094 -1.7835
   66MOL   H11322343   2.365   0.349   4.953 -0.3775 -0.7087 -1.5133
   66MOL   H11422344   2.245   0.210   5.192 -2.3241  0.4027 -1.5000
   66MOL   H11522345   2.404   0.205   5.429 -0.3501 -0.5392  0.9650
   66MOL   H11622346   2.433   0.067   5.326 -0.8354  0.1720  1.0039
   66MOL   H11722347   2.635   0.140   5.460  2.0989  0.8620 -0.8775
   66MOL   H11822348   2.656   0.099   5.291  1.7038 -0.9704  2.5753
   66MOL   H11922349   2.752   0.318   5.291 -0.1566 -3.8755  0.1938
   66MOL   H12022350   2.627   0.375   5.406 -0.8796  2.0641 -1.7323
   66MOL   C12122351   2.228   0.422   5.176  0.1453  0.0380 -0.4842
   66MOL   C12222352   2.075   0.447   5.131  0.0060  0.7924 -0.2661
   66MOL   N12322353   2.005   0.527   5.235 -0.4045 -0.3914  0.9625
   66MOL   C12422354   1.916   0.468   5.337  0.1764  0.3335  0.0477
   66MOL   C12522355   1.888   0.580   5.439 -0.5090 -0.0973 -0.2521
   66MOL   C12622356   1.964   0.701   5.390 -0.4718 -0.4343  0.7503
   66MOL   C12722357   2.035   0.660   5.261  0.0118  0.1934 -0.3444
   66MOL   O12822358   2.126   0.720   5.219 -0.0028  0.3990  0.2619
   66MOL   H12922359   2.294   0.508   5.161 -0.1305  0.5839  1.2610
   66MOL   H13022360   2.214   0.411   5.284 -0.9971 -0.2865 -0.6612
   66MOL   H13122361   2.031   0.348   5.126  3.6793 -0.8956 -1.0500
   66MOL   H13222362   1.960   0.382   5.388  1.1233  0.6939 -0.1587
   66MOL   H13322363   1.824   0.432   5.291 -0.0095  2.1212 -1.0259
   66MOL   H13422364   1.783   0.603   5.454 -0.2282 -0.1393  1.9472
   66MOL   H13522365   1.914   0.545   5.539  0.3892 -0.3018 -0.5530
   66MOL   H13622366   1.898   0.783   5.362 -0.6118 -1.1826 -1.1499
   66MOL   H13722367   2.026   0.735   5.474 -1.7818  1.6853  0.8901
   66MOL   C13822368   2.064   0.524   4.999  0.1812 -0.4339 -0.4385
   66MOL   C13922369   2.000   0.462   4.868  0.0190  0.0701  0.3413
   66MOL   N14022370   1.869   0.399   4.894 -0.8528 -0.5788  0.1660
   66MOL   C14122371   1.844   0.270   4.831  0.7616  0.1410 -1.0152
   66MOL   C14222372   1.702   0.238   4.882  0.9327 -0.3515  0.0772
   66MOL   C14322373   1.660   0.341   4.984 -0.1030 -0.4196 -0.5171
   66MOL   C14422374   1.773   0.442   4.977  0.3084 -0.3624  0.7645
   66MOL   O14522375   1.771   0.546   5.037  0.1548 -0.3932  0.1069
   66MOL   H14622376   2.166   0.547   4.966  0.4238 -0.2128  0.4459
   66MOL   H14722377   2.027   0.625   5.014 -3.5312 -1.5507 -1.6083
   66MOL   H14822378   2.068   0.390   4.823  1.7962  2.7019 -1.3486
   66MOL   H14922379   1.848   0.280   4.723  1.6736 -0.8541 -1.0813
   66MOL   H15022380   1.914   0.195   4.868  0.8193  0.9775  0.6515
   66MOL   H15122381   1.643   0.241   4.790  1.2992 -1.5359 -0.1976
   66MOL   H15222382   1.690   0.134   4.912  0.0880 -1.4217 -3.7497
   66MOL   H15322383   1.644   0.296   5.082  1.1692  1.7937  0.7287
   66MOL   H15422384   1.572   0.403   4.968  0.2316 -0.1726 -1.4761
   66MOL   C15522385   1.978   0.573   4.763  1.1753 -0.1122  0.0717
   66MOL   C15622386   2.093   0.637   4.681  0.1489 -0.0247 -0.4175
   66MOL   N15722387   2.159   0.530   4.600  0.6252 -0.1404 -0.1955
   66MOL   C15822388   2.302   0.527   4.598 -0.0116  0.4418  0.0106
   66MOL   C15922389   2.334   0.438   4.478 -0.4021 -0.7428 -0.2368
   66MOL   C16022390   2.205   0.373   4.431 -0.3862  0.0011 -0.5206
   66MOL   C16122391   2.097   0.444   4.518  0.4223 -0.4152 -0.2335
   66MOL   O16222392   1.974   0.424   4.493 -0.2507 -0.0323 -0.6967
   66MOL   H16322393   1.919   0.645   4.820  0.9874  0.6211 -1.0457
   66MOL   H16422394   1.908   0.535   4.689  1.2768  0.1485 -0.1574
   66MOL   H16522395   2.170   0.678   4.746  0.8244 -0.3011 -1.0350
   66MOL   H16622396   2.357   0.620   4.583  2.3411 -1.1242 -1.5871
   66MOL   H16722397   2.325   0.473   4.689 -1.5479  2.6532  1.7610
   66MOL   H16822398   2.367   0.506   4.399  0.9301 -1.0667  0.0308
   66MOL   H16922399   2.413   0.367   4.503  1.2928  0.5413 -1.7920
   66MOL   H17022400   2.188   0.376   4.324 -1.2872 -0.0925 -0.3840
   66MOL   H17122401   2.219   0.267   4.454  0.9482 -0.1167 -1.8094
   66MOL   C17222402   2.046   0.760   4.591  0.1098 -0.8205  0.5668
   66MOL   C17322403   2.003   0.878   4.674 -0.5574  0.4053  0.6284
   66MOL   N17422404   2.120   0.951   4.731 -0.5832  0.2753 -1.1672
   66MOL   C17522405   2.160   0.929   4.872 -0.4360 -0.0342  0.4999
   66MOL   C17622406   2.294   0.997   4.892 -0.3932  0.5862  0.1623
   66MOL   C17722407   2.314   1.093   4.772 -0.4499  0.0542 -0.0520
   66MOL   C17822408   2.210   1.037   4.672 -0.3177  0.4317  0.1445
   66MOL   O17922409   2.215   1.068   4.554 -0.5500  0.6817  0.3043
   66MOL   H18022410   1.963   0.730   4.527 -0.4173  0.1476  0.7806
   66MOL   H18122411   2.123   0.798   4.524 -2.2918  0.0010 -1.8420
   66MOL   H18222412   1.941   0.837   4.754 -0.8407 -0.1256  0.1450
   66MOL   H18322413   2.077   0.969   4.932 -0.1741 -2.7915  2.8060
   66MOL   H18422414   2.163   0.822   4.891 -0.7446 -0.3184 -1.0369
   66MOL   H18522415   2.364   0.913   4.895 -1.2507 -0.2459 -1.8980
   66MOL   H18622416   2.292   1.046   4.989 -1.6398  0.2301  0.3143
   66MOL   H18722417   2.295   1.199   4.792  1.4417  0.6191 -1.1660
   66MOL   H18822418   2.421   1.090   4.750 -0.4002 -0.8394  0.2716
   66MOL   C18922419   1.919   0.981   4.600 -0.3006 -0.0660 -0.2989
   66MOL   C19022420   1.785   0.930   4.540 -0.3211 -0.0139  0.0761
   66MOL   N19122421   1.700   0.854   4.645 -0.0372  0.3306 -0.1957
   66MOL   C19222422   1.639   0.730   4.598 -0.0120 -0.3676 -0.9221
   66MOL   C19322423   1.528   0.702   4.704  0.1224 -0.1808  0.2926
   66MOL   C19422424   1.559   0.794   4.822 -0.5555  0.1410  0.2302
   66MOL   C19522425   1.663   0.889   4.769  0.5816  0.1841 -0.1353
   66MOL   O19622426   1.703   0.988   4.832 -0.5222  0.0685  0.2120
   66MOL   H19722427   1.977   1.028   4.521  1.0100 -2.5579 -0.8615
   66MOL   H19822428   1.887   1.059   4.670 -1.7109  0.6902 -1.7548
   66MOL   H19922429   1.799   0.861   4.457 -1.8500  0.4726 -0.6081
   66MOL   H20022430   1.596   0.733   4.499  0.3587 -0.3644 -1.0837
   66MOL   H20122431   1.719   0.656   4.603 -0.1137 -0.3833  1.1057
   66MOL   H20222432   1.436   0.736   4.654  0.0652 -0.7902 -0.0153
   66MOL   H20322433   1.519   0.597   4.730  1.7873 -0.5737 -0.6679
   66MOL   H20422434   1.472   0.845   4.864 -1.0807 -0.0689 -0.6004
   66MOL   H20522435   1.600   0.728   4.899  0.7878 -1.6637 -1.9587
   66MOL   C20622436   1.701   1.041   4.486  0.2206 -0.0857  0.1181
   66MOL   C20722437   1.748   1.097   4.351  0.5970 -0.3487 -0.4884
   66MOL   N20822438   1.719   1.012   4.232  0.1392 -0.4713 -0.1472
   66MOL   C20922439   1.591   0.952   4.201  0.0624  0.4573 -0.2798
   66MOL   C21022440   1.601   0.910   4.050 -0.1042  0.7587  0.0540
   66MOL   C21122441   1.744   0.945   4.015 -0.8814 -0.1285  0.4897
   66MOL   C21222442   1.805   1.001   4.132  0.3700  0.3797  0.1498
   66MOL   O21322443   1.928   1.033   4.136 -0.3448 -0.2174 -0.2128
   66MOL   H21422444   1.692   1.117   4.564  0.4532 -0.0943  0.1540
   66MOL   H21522445   1.597   1.010   4.479  0.2453  0.2045 -1.8486
   66MOL   H21622446   1.856   1.115   4.352  0.5662 -0.1764 -0.0322
   66MOL   H21722447   1.578   0.869   4.271  1.5854 -0.2729 -0.8341
   66MOL   H21822448   1.511   1.023   4.221 -1.0581 -0.7400 -0.4490
   66MOL   H21922449   1.588   0.802   4.050  0.8817  0.6269  0.9142
   66MOL   H22022450   1.527   0.944   3.978  2.0336  0.3811 -2.3646
   66MOL   H22122451   1.791   0.858   3.969  0.7037  0.4997  0.8871
   66MOL   H22222452   1.735   1.024   3.941  2.7752  1.3375  1.5314
   66MOL   C22322453   1.702   1.242   4.316 -0.0005  0.3752 -0.3401
   66MOL   C22422454   1.756   1.353   4.406  0.8119 -0.2006 -0.5173
   66MOL   N22522455   1.902   1.367   4.394  0.6623 -0.1325 -0.2954
   66MOL   C22622456   1.974   1.356   4.518  0.7558  0.3349  0.3865
   66MOL   C22722457   2.120   1.400   4.491  0.4415 -0.6441 -0.0602
   66MOL   C22822458   2.133   1.377   4.341  0.2027  0.2311  0.6363
   66MOL   C22922459   1.990   1.386   4.295  0.2791  0.1057 -0.1276
   66MOL   O23022460   1.956   1.418   4.181  0.4653  0.0198 -0.0547
   66MOL   H23122461   1.593   1.244   4.319 -0.1054 -1.9860 -1.9471
   66MOL   H23222462   1.742   1.268   4.218 -0.1515  2.7063  0.1881
   66MOL   H23322463   1.753   1.322   4.510  0.6558  0.1290 -0.4228
   66MOL   H23422464   1.923   1.410   4.598 -1.9657  0.8326 -1.6083
   66MOL   H23522465   1.985   1.254   4.556 -1.0034  0.2044  0.5971
   66MOL   H23622466   2.133   1.506   4.512 -0.8323 -0.7406  1.2508
   66MOL   H23722467   2.198   1.348   4.547  1.2421  0.4581 -0.1394
   66MOL   H23822468   2.193   1.446   4.280  0.5836 -1.3871 -0.8780
   66MOL   H23922469   2.157   1.276   4.308  3.4055  0.5811  1.6992
   66MOL   C24022470   1.680   1.482   4.401  0.0277 -0.1028 -0.2712
   66MOL   C24122471   1.539   1.474   4.479 -0.0463 -0.4447 -0.0080
   66MOL   N24222472   1.550   1.451   4.619 -0.2555  0.1268  0.0599
   66MOL   C24322473   1.486   1.334   4.679 -0.2313 -0.4951 -0.5488
   66MOL   C24422474   1.508   1.355   4.832 -0.3398 -0.1681 -0.3438
   66MOL   C24522475   1.621   1.460   4.837  0.2095  0.3884  0.0000
   66MOL   C24622476   1.626   1.520   4.703  0.0423  0.0866 -0.2800
   66MOL   O24722477   1.687   1.623   4.678 -0.2806 -0.6443 -0.3871
   66MOL   H24822478   1.667   1.511   4.296  0.7767 -1.0274 -0.6250
   66MOL   H24922479   1.749   1.553   4.446  0.1420 -0.5281  0.2270
   66MOL   H25022480   1.492   1.393   4.425  2.5838 -0.9612 -1.6010
   66MOL   H25122481   1.381   1.306   4.668 -0.3344 -0.6134  0.7193
   66MOL   H25222482   1.538   1.247   4.641  1.5662  0.6284 -0.7292
   66MOL   H25322483   1.411   1.382   4.875 -1.2713  0.5528 -2.8168
   66MOL   H25422484   1.540   1.259   4.870 -0.1208 -0.2077 -0.6270
   66MOL   H25522485   1.626   1.544   4.907  0.0581 -0.1688  0.6805
   66MOL   H25622486   1.716   1.409   4.851 -0.0896 -0.3872 -0.7869
   66MOL   C25722487   1.453   1.601   4.455 -0.1257  0.4673  0.6711
   66MOL   C25822488   1.300   1.573   4.489 -0.9099  0.0909  0.1306
   66MOL   N25922489   1.253   1.647   4.607 -0.1265  0.4653 -0.3914
   66MOL   C26022490   1.251   1.792   4.610 -0.1032  0.2741  0.3612
   66MOL   C26122491   1.208   1.833   4.756  0.7900  0.6914  0.5463
   66MOL   C26222492   1.201   1.705   4.834 -0.0966 -0.3845  0.1661
   66MOL   C26322493   1.219   1.593   4.729 -0.8918 -0.3464  0.2851
   66MOL   O26422494   1.196   1.474   4.754  0.1248  0.6818 -0.7568
   66MOL   H26522495   1.468   1.640   4.354 -0.9821  4.2192  1.9310
   66MOL   H26622496   1.484   1.688   4.512 -1.0996  0.9615  0.4574
   66MOL   H26722497   1.282   1.468   4.509 -1.6613  0.3369  0.7505
   66MOL   H26822498   1.346   1.838   4.581  0.6119 -0.2084  1.8999
   66MOL   H26922499   1.166   1.819   4.547 -0.2502  2.8220  1.6189
   66MOL   H27022500   1.273   1.914   4.789  1.7020  0.5669 -0.8838
   66MOL   H27122501   1.106   1.872   4.755  0.1564 -0.9440 -0.7626
   66MOL   H27222502   1.291   1.698   4.896  1.0761 -1.1417 -1.5769
   66MOL   H27322503   1.109   1.692   4.892  0.2069 -1.6918  0.3708
   66MOL   C27422504   1.201   1.607   4.372 -0.4097  0.9804 -0.0589
   66MOL   C27522505   1.193   1.514   4.241  0.3044  0.4877 -0.7353
   66MOL   N27622506   1.077   1.558   4.157  0.3475 -0.3050 -0.0414
   66MOL   C27722507   0.937   1.503   4.178  0.2194 -0.3841  0.4470
   66MOL   C27822508   0.842   1.583   4.087  0.0708 -0.2846 -0.5648
   66MOL   C27922509   0.935   1.689   4.023 -0.5729  0.1015 -0.3265
   66MOL   C28022510   1.075   1.651   4.065 -1.0699  0.4872 -0.6523
   66MOL   O28122511   1.175   1.712   4.027 -0.0489  0.7617 -0.1330
   66MOL   H28222512   1.217   1.710   4.339 -0.0453  1.2797  1.0614
   66MOL   H28322513   1.101   1.608   4.415 -0.2158 -0.3649  0.4344
   66MOL   H28422514   1.156   1.419   4.280  0.8783  0.7730  0.5472
   66MOL   H28522515   0.922   1.399   4.147 -0.8464 -0.8338  2.3594
   66MOL   H28622516   0.899   1.488   4.279 -0.2964  0.6785  0.4120
   66MOL   H28722517   0.793   1.518   4.014 -1.5668  0.7784 -0.4297
   66MOL   H28822518   0.758   1.629   4.140  0.8337 -0.5016  0.8444
   66MOL   H28922519   0.935   1.705   3.915 -2.4930  0.6021 -0.2718
   66MOL   H29022520   0.908   1.782   4.073  1.3929 -0.5851  2.0709
   66MOL   C29122521   1.319   1.488   4.156 -0.4669  0.3557 -0.3002
   66MOL   C29222522   1.305   1.408   4.024 -0.7836 -0.3582 -0.2678
   66MOL   N29322523   1.437   1.412   3.956 -0.1926  0.5204 -0.4157
   66MOL   C29422524   1.466   1.514   3.855 -0.6470  0.0585  0.4237
   66MOL   C29522525   1.622   1.520   3.846 -0.2954 -0.2584 -0.5187
   66MOL   C29622526   1.676   1.407   3.928 -0.2948 -0.1362  0.8511
   66MOL   C29722527   1.548   1.341   3.985 -0.1272  0.1833  0.8606
   66MOL   O29822528   1.549   1.244   4.052 -0.2863 -0.5867  0.1447
   66MOL   H29922529   1.374   1.426   4.227  0.7978  0.9073 -0.7882
   66MOL   H30022530   1.366   1.585   4.139  2.4360 -0.3208  3.1712
   66MOL   H30122531   1.242   1.462   3.954 -0.7660 -0.9253 -0.7217
   66MOL   H30222532   1.450   1.466   3.759 -0.3459 -1.1162  0.9503
   66MOL   H30322533   1.421   1.613   3.861  1.6727  1.3497 -2.2993
   66MOL   H30422534   1.655   1.513   3.743 -1.0163 -2.6930 -0.6137
   66MOL   H30522535   1.671   1.612   3.876 -1.5540  0.7286 -1.4474
   66MOL   H30622536   1.740   1.339   3.871  1.0336  1.6338  0.1837
   66MOL   H30722537   1.739   1.442   4.010 -0.0346  1.0845  0.1272
   66MOL   C30822538   1.249   1.266   4.045 -0.1333  0.5624 -0.4207
   66MOL   C30922539   1.226   1.167   3.923  0.7296  0.4058  0.4434
   66MOL   N31022540   1.205   1.022   3.964  0.0357 -0.1612  0.0426
   66MOL   C31122541   1.239   0.922   3.867  0.1683 -0.4604  0.2646
   66MOL   C31222542   1.262   0.799   3.957 -0.0576 -0.3585  0.2908
   66MOL   C31322543   1.197   0.828   4.095 -0.3297 -0.8976 -0.6346
   66MOL   C31422544   1.167   0.976   4.080 -0.0954 -0.3320  0.8560
   66MOL   O31522545   1.116   1.041   4.167  0.1233 -0.7296  0.3636
   66MOL   H31622546   1.156   1.280   4.101  0.9863 -1.4332  2.0271
   66MOL   H31722547   1.326   1.216   4.103 -0.2046 -0.1714 -0.9518
   66MOL   H31822548   1.325   1.165   3.877  1.1540 -0.8959  1.3982
   66MOL   H31922549   1.155   0.893   3.803 -0.3084  1.9066 -0.2232
   66MOL   H32022550   1.326   0.939   3.804  1.0522  2.2982  2.1278
   66MOL   H32122551   1.209   0.716   3.910 -0.1001 -0.0103 -0.2771
   66MOL   H32222552   1.368   0.774   3.965  0.1327  0.4529  0.3575
   66MOL   H32322553   1.114   0.759   4.102 -0.2840 -1.1362 -2.2988
   66MOL   H32422554   1.268   0.799   4.173 -1.3694 -0.9535  0.2977
   66MOL   C32522555   1.120   1.207   3.815  0.5485  0.0242 -0.0783
   66MOL   C32622556   1.191   1.302   3.709  0.0603 -0.2683 -0.1662
   66MOL   N32722557   1.098   1.323   3.593  0.1117 -0.2279  0.3257
   66MOL   C32822558   1.080   1.460   3.539 -0.2265 -0.5996  0.9228
   66MOL   C32922559   0.977   1.442   3.422 -0.1983 -0.0868  0.2192
   66MOL   C33022560   0.968   1.289   3.398  0.3195  0.0010  0.0686
   66MOL   C33122561   1.055   1.225   3.506  0.2370 -0.4722 -0.0851
   66MOL   O33222562   1.076   1.101   3.508 -0.2039 -0.8313 -0.1110
   66MOL   H33322563   1.031   1.241   3.867 -0.5013  0.0680 -1.8600
   66MOL   H33422564   1.091   1.119   3.759  1.2196 -0.2638  0.0193
   66MOL   H33522565   1.281   1.254   3.672  0.2576  0.6948 -0.9750
   66MOL   H33622566   1.049   1.525   3.621 -1.1785 -2.0277  1.7057
   66MOL   H33722567   1.170   1.498   3.491 -0.6012  0.6855  1.2201
   66MOL   H33822568   0.883   1.485   3.456 -0.8017 -1.8407  0.8368
   66MOL   H33922569   1.006   1.506   3.338  1.4770 -0.2337  0.6678
   66MOL   H34022570   0.864   1.259   3.404  0.4467 -1.0402 -2.3332
   66MOL   H34122571   1.008   1.264   3.300 -0.8371 -2.5552  0.2172
   66MOL   H34222572   1.220   1.402   3.741 -1.0594  0.4612 -1.3778
   67MOL     C122573   2.414   4.923   3.470 -0.2830 -0.4773  0.5027
   67MOL     C222574   2.521   5.001   3.551 -0.6332  0.2905 -0.6224
   67MOL     N322575   2.626   5.061   3.466  0.1809 -0.4272  0.3795
   67MOL     C422576   2.758   4.998   3.457 -0.3981 -0.1634  0.5341
   67MOL     C522577   2.844   5.109   3.386  0.3147  0.9606 -0.6328
   67MOL     C622578   2.743   5.183   3.301 -0.3543  0.2425  0.0311
   67MOL     C722579   2.608   5.147   3.366 -0.0286  0.8518 -0.0737
   67MOL     O822580   2.497   5.185   3.325 -0.2932  0.4771 -0.7341
   67MOL     H922581   2.454   4.879   3.378  2.6012  3.1972 -0.1234
   67MOL    H1022582   2.375   4.843   3.533 -1.6549  0.8068  1.3063
   67MOL    H1122583   2.570   4.933   3.620 -2.9370 -1.1893 -0.3930
   67MOL    H1222584   2.787   4.975   3.559  0.0968 -1.3926  0.1164
   67MOL    H1322585   2.758   4.912   3.390 -0.6665 -1.5684  2.3195
   67MOL    H1422586   2.885   5.181   3.457  2.4149  0.4815 -1.3327
   67MOL    H1522587   2.926   5.069   3.326  0.0237 -0.0264 -0.3794
   67MOL    H1622588   2.768   5.289   3.299 -2.2457  0.7200  0.9798
   67MOL    H1722589   2.747   5.152   3.197  1.1224 -1.9236  0.7015
   67MOL    H1822590   2.333   4.989   3.437  0.7988  0.3680 -0.5019
   67MOL    C1922591   2.460   5.100   3.650  0.2547  0.0580 -0.4559
   67MOL    C2022592   2.540   5.132   3.776 -0.1509 -0.2617  0.1057
   67MOL    N2122593   2.667   5.204   3.752  0.4628  0.7001  0.1086
   67MOL    C2222594   2.789   5.148   3.804  0.2326  0.4568 -0.3539
   67MOL    C2322595   2.898   5.251   3.766 -0.7003 -0.0616  0.0401
   67MOL    C2422596   2.826   5.378   3.709  0.0918  0.1437  0.7296
   67MOL    C2522597   2.681   5.330   3.697 -0.0679 -0.1063  0.0183
   67MOL    O2622598   2.595   5.401   3.639 -0.1668  0.0662  0.4194
   67MOL    H2722599   2.362   5.068   3.683  0.2412  2.5499  2.2047
   67MOL    H2822600   2.442   5.194   3.597  0.6459  0.0824 -0.5462
   67MOL    H2922601   2.554   5.029   3.809 -0.5650 -0.8731 -1.5386
   67MOL    H3022602   2.773   5.126   3.909  4.3228  2.5999  0.8606
   67MOL    H3122603   2.814   5.053   3.758  1.1105  0.8201 -0.6578
   67MOL    H3222604   2.960   5.278   3.852 -1.8093  0.8773  0.5555
   67MOL    H3322605   2.961   5.209   3.687 -0.1668 -2.4221  1.6658
   67MOL    H3422606   2.833   5.471   3.765  0.2472  0.2735  0.4955
   67MOL    H3522607   2.865   5.395   3.609 -4.1089  0.6535 -0.9226
   67MOL    C3622608   2.455   5.212   3.879  0.3138  0.0869  0.5038
   67MOL    C3722609   2.345   5.136   3.968 -0.3038 -0.0056 -0.4924
   67MOL    N3822610   2.386   5.000   4.015 -0.6975 -0.1440  0.4510
   67MOL    C3922611   2.332   4.880   3.958  0.8187  0.5923 -1.0896
   67MOL    C4022612   2.412   4.766   4.013 -0.1827  0.7554 -1.3228
   67MOL    C4122613   2.527   4.826   4.101  0.0766  1.0005  0.2148
   67MOL    C4222614   2.493   4.973   4.098 -0.4708  0.3133 -0.0664
   67MOL    O4322615   2.569   5.054   4.154  0.3137  0.4309 -0.2561
   67MOL    H4422616   2.410   5.293   3.822 -2.4559 -2.3644 -0.9274
   67MOL    H4522617   2.519   5.265   3.950 -0.7681  1.0010  0.8112
   67MOL    H4622618   2.260   5.121   3.901 -0.0824 -0.7792 -0.6084
   67MOL    H4722619   2.228   4.867   3.988  1.8183 -1.5720  1.7604
   67MOL    H4822620   2.332   4.884   3.849  0.5711  1.6854 -1.0540
   67MOL    H4922621   2.349   4.697   4.069 -2.3521  1.8043 -2.4038
   67MOL    H5022622   2.449   4.704   3.931 -1.5479  1.8208 -2.7657
   67MOL    H5122623   2.517   4.794   4.205 -3.3462 -0.0295 -0.3653
   67MOL    H5222624   2.629   4.806   4.068 -0.5523  0.1257 -1.2351
   67MOL    C5322625   2.283   5.218   4.083  0.0481 -0.4268  0.3880
   67MOL    C5422626   2.173   5.319   4.038  0.0470 -0.7665  0.0587
   67MOL    N5522627   2.045   5.253   4.001 -0.2938 -0.4159 -0.5034
   67MOL    C5622628   2.006   5.269   3.857  0.4488  0.1650  0.5501
   67MOL    C5722629   1.860   5.223   3.849  0.3757 -0.4480 -0.0478
   67MOL    C5822630   1.848   5.134   3.974 -0.2060  0.5539 -0.2504
   67MOL    C5922631   1.952   5.178   4.068 -0.0369  0.4827  0.0147
   67MOL    O6022632   1.958   5.148   4.185 -0.2585 -0.1398  0.0994
   67MOL    H6122633   2.367   5.269   4.129 -1.5351  1.0426  1.7353
   67MOL    H6222634   2.241   5.146   4.153 -2.2896  0.5524  0.0602
   67MOL    H6322635   2.206   5.368   3.946  3.4007  0.0824  1.6300
   67MOL    H6422636   2.009   5.372   3.823  1.5047 -0.7798 -2.4267
   67MOL    H6522637   2.068   5.203   3.795 -1.3621 -2.4707  1.4461
   67MOL    H6622638   1.786   5.302   3.859  1.5679  1.3960 -4.6656
   67MOL    H6722639   1.851   5.176   3.752 -2.9352 -0.1681  0.0586
   67MOL    H6822640   1.748   5.140   4.016  1.1552  2.8359  2.8259
   67MOL    H6922641   1.883   5.034   3.947 -0.3295  0.4490 -0.0218
   67MOL    C7022642   2.148   5.423   4.152  0.2948 -0.1936  0.3642
   67MOL    C7122643   2.256   5.531   4.196 -0.6450  0.5818 -0.0752
   67MOL    N7222644   2.308   5.609   4.079  0.6673  0.2423  0.0612
   67MOL    C7322645   2.449   5.577   4.040 -0.4268  0.6098 -0.2860
   67MOL    C7422646   2.469   5.653   3.915 -0.3381  0.4190 -0.5860
   67MOL    C7522647   2.343   5.732   3.886 -0.3791  0.1522 -0.4043
   67MOL    C7622648   2.254   5.703   4.001  0.5709 -0.1365  0.2771
   67MOL    O7722649   2.147   5.761   4.018 -0.4571 -0.6712  0.2900
   67MOL    H7822650   2.138   5.355   4.236  1.1382  0.3906  0.9365
   67MOL    H7922651   2.051   5.465   4.125 -0.2878 -1.7077 -0.0057
   67MOL    H8022652   2.343   5.475   4.231 -0.8559  0.1553 -0.2299
   67MOL    H8122653   2.523   5.588   4.120 -0.3754  2.9295 -0.6226
   67MOL    H8222654   2.459   5.478   3.998  1.2135 -0.5215  2.6272
   67MOL    H8322655   2.552   5.724   3.917 -0.1454  0.1505  0.9038
   67MOL    H8422656   2.499   5.590   3.831 -1.0008 -0.2871 -0.2999
   67MOL    H8522657   2.357   5.838   3.870 -1.8056  0.2008 -1.4933
   67MOL    H8622658   2.290   5.690   3.801  0.4240  0.4366 -1.0406
   67MOL    C8722659   2.195   5.613   4.306 -0.1116 -0.2496  0.0744
   67MOL    C8822660   2.186   5.534   4.443 -0.6504  0.3508 -0.0617
   67MOL    N8922661   2.313   5.504   4.497  0.2631  0.0040 -0.2655
   67MOL    C9022662   2.345   5.361   4.516  0.5823  0.2928  1.0058
   67MOL    C9122663   2.479   5.358   4.588  0.1957 -0.8077 -0.6857
   67MOL    C9222664   2.521   5.500   4.609  0.5352  0.4936 -0.7090
   67MOL    C9322665   2.405   5.585   4.552 -0.7046 -0.3397 -0.1016
   67MOL    O9422666   2.391   5.706   4.565 -0.2487  0.2962  0.3446
   67MOL    H9522667   2.095   5.643   4.273  0.6120  1.6578 -0.4454
   67MOL    H9622668   2.247   5.707   4.325  0.4920 -0.8602  1.4901
   67MOL    H9722669   2.135   5.440   4.422  1.2851 -0.6772 -0.2518
   67MOL    H9822670   2.268   5.305   4.570  0.5115  1.1062  1.7694
   67MOL    H9922671   2.355   5.320   4.416  1.1340  0.5946  0.9346
   67MOL   H10022672   2.461   5.306   4.682 -0.4738 -0.5671 -0.6855
   67MOL   H10122673   2.543   5.290   4.530 -0.2909 -0.9820 -1.0222
   67MOL   H10222674   2.544   5.520   4.714 -0.3086  3.1377 -0.9935
   67MOL   H10322675   2.601   5.531   4.542  0.5709  0.4433 -0.6900
   67MOL   C10422676   2.084   5.599   4.539  0.0878 -0.0352 -0.0223
   67MOL   C10522677   1.932   5.613   4.496 -0.3659 -0.3611  0.8086
   67MOL   N10622678   1.883   5.483   4.445  0.1567  0.1200 -0.4192
   67MOL   C10722679   1.794   5.494   4.324 -0.5225 -0.1149  0.3666
   67MOL   C10822680   1.727   5.353   4.311 -0.0742 -0.8980 -0.1283
   67MOL   C10922681   1.787   5.265   4.422  0.5310  0.2760  0.4780
   67MOL   C11022682   1.874   5.358   4.502 -0.5308  0.2892 -0.0043
   67MOL   O11122683   1.929   5.328   4.607  0.3202 -0.1055 -0.6031
   67MOL   H11222684   2.113   5.702   4.556 -2.7484  1.3058 -2.7117
   67MOL   H11322685   2.079   5.546   4.634  0.5839  0.3015  0.1896
   67MOL   H11422686   1.929   5.689   4.419 -0.0801 -2.2391 -1.0932
   67MOL   H11522687   1.722   5.576   4.329 -1.9727 -1.3748  0.7049
   67MOL   H11622688   1.850   5.513   4.233  1.4026 -0.1909  1.5277
   67MOL   H11722689   1.622   5.365   4.336 -0.0088  0.5916 -0.5688
   67MOL   H11822690   1.734   5.315   4.209  0.1361 -2.3364  0.3988
   67MOL   H11922691   1.832   5.173   4.383  1.8278  1.0332  0.1897
   67MOL   H12022692   1.703   5.246   4.489  0.0624  0.8745  0.0507
   67MOL   C12122693   1.840   5.666   4.603 -0.7432 -0.1055  0.5946
   67MOL   C12222694   1.857   5.805   4.646 -0.1624  0.0173 -0.0561
   67MOL   N12322695   1.846   5.899   4.532 -0.0880 -0.1032 -0.3262
   67MOL   C12422696   1.969   5.971   4.487 -0.1329  0.8095 -0.4294
   67MOL   C12522697   1.934   6.065   4.367  0.5373 -0.1571 -0.6732
   67MOL   C12622698   1.777   6.042   4.357 -0.8766  0.2057  0.1023
   67MOL   C12722699   1.736   5.945   4.468 -0.0873  0.3321 -0.2762
   67MOL   O12822700   1.621   5.921   4.493  0.1837 -0.0364  0.3323
   67MOL   H12922701   1.841   5.606   4.694 -1.7492  0.9424  1.3172
   67MOL   H13022702   1.738   5.646   4.568 -0.5621 -1.7584  0.9853
   67MOL   H13122703   1.960   5.811   4.680  0.1719  0.5239 -1.1275
   67MOL   H13222704   2.044   5.896   4.462  0.0354  0.8709 -0.1157
   67MOL   H13322705   2.017   6.019   4.573 -1.4294  2.9196 -0.8458
   67MOL   H13422706   1.963   6.168   4.389  0.5317 -0.4401  0.6828
   67MOL   H13522707   1.992   6.026   4.284  0.3147 -1.7361 -0.1057
   67MOL   H13622708   1.723   6.136   4.366  0.2515  0.8914 -0.2255
   67MOL   H13722709   1.764   6.002   4.256 -0.5083 -1.9420  0.8855
   67MOL   C13822710   1.765   5.849   4.766  0.3894 -0.4552  0.4483
   67MOL   C13922711   1.799   5.977   4.845  0.2107  0.0106 -0.5167
   67MOL   N14022712   1.681   6.064   4.854 -0.0271  0.1114  0.0026
   67MOL   C14122713   1.680   6.197   4.791  0.4818  0.0199 -0.6275
   67MOL   C14222714   1.531   6.237   4.803  0.5199  0.8172  0.0020
   67MOL   C14322715   1.454   6.132   4.879  0.0961 -0.0031 -0.5565
   67MOL   C14422716   1.564   6.030   4.911  0.2924 -0.0502 -0.0611
   67MOL   O14522717   1.538   5.927   4.970  0.4289 -0.6196  0.0258
   67MOL   H14622718   1.768   5.758   4.826 -0.4510 -0.5045  0.4234
   67MOL   H14722719   1.666   5.851   4.721  0.2168 -1.1824  0.7900
   67MOL   H14822720   1.877   6.031   4.793 -0.9064  1.0096 -1.1724
   67MOL   H14922721   1.743   6.264   4.849  0.0322 -0.0389 -0.0558
   67MOL   H15022722   1.715   6.201   4.688 -0.1219 -1.5511 -0.9090
   67MOL   H15122723   1.520   6.326   4.864 -0.1700  0.3534  0.5613
   67MOL   H15222724   1.498   6.249   4.700 -0.7501 -1.4388  0.1001
   67MOL   H15322725   1.371   6.086   4.826 -1.4470  1.4369  0.5919
   67MOL   H15422726   1.412   6.169   4.972 -0.0785 -0.3468 -0.4968
   67MOL   C15522727   1.850   5.948   4.987 -0.7489 -0.9401 -0.5566
   67MOL   C15622728   2.005   5.893   4.992  0.1720 -0.5315  0.4379
   67MOL   N15722729   2.098   5.985   4.927 -0.3271 -0.1029  0.0371
   67MOL   C15822730   2.215   5.935   4.852 -0.2290 -0.3520 -0.8603
   67MOL   C15922731   2.325   6.047   4.849  0.0558  0.2925  0.0093
   67MOL   C16022732   2.249   6.174   4.901 -0.1088  0.2756 -0.0432
   67MOL   C16122733   2.123   6.113   4.966 -0.2228 -0.0204 -0.1133
   67MOL   O16222734   2.052   6.172   5.051  0.1086 -0.2623  0.2311
   67MOL   H16322735   1.781   5.883   5.041 -0.8950 -0.8532 -0.6384
   67MOL   H16422736   1.843   6.042   5.041  2.0104 -1.0041 -0.0215
   67MOL   H16522737   2.013   5.812   4.920  1.3317  0.8349 -1.0354
   67MOL   H16622738   2.254   5.839   4.888  1.0778  0.5269  0.1008
   67MOL   H16722739   2.186   5.919   4.748  0.0349  0.0874 -1.0006
   67MOL   H16822740   2.404   6.028   4.921 -0.7812 -1.1302  0.5674
   67MOL   H16922741   2.368   6.061   4.750 -0.6515  0.7209 -0.2460
   67MOL   H17022742   2.312   6.228   4.971  0.3628 -1.5560  0.9794
   67MOL   H17122743   2.226   6.247   4.823  0.9569 -0.2223 -0.8384
   67MOL   C17222744   2.055   5.861   5.135  0.0938  0.5066  0.3638
   67MOL   C17322745   2.011   5.725   5.189 -0.7815  0.2340 -0.0817
   67MOL   N17422746   2.050   5.617   5.100 -0.1338  0.7817  0.5069
   67MOL   C17522747   1.944   5.541   5.033  1.0541  0.1061  0.0157
   67MOL   C17622748   2.017   5.455   4.938  0.2122  0.1932  0.0801
   67MOL   C17722749   2.154   5.435   5.000  0.2242  0.3440  0.0700
   67MOL   C17822750   2.172   5.566   5.085  0.5050  0.6461  0.1003
   67MOL   O17922751   2.278   5.604   5.123 -0.8076 -0.5093 -0.0210
   67MOL   H18022752   2.018   5.939   5.203  0.3606 -0.2464  1.3952
   67MOL   H18122753   2.164   5.860   5.138  0.0875 -0.0532  0.3980
   67MOL   H18222754   1.902   5.725   5.193 -0.7923 -1.4958 -0.1233
   67MOL   H18322755   1.882   5.489   5.107  0.1117  0.0488 -0.8047
   67MOL   H18422756   1.878   5.610   4.981 -0.4910 -0.8913  0.6080
   67MOL   H18522757   2.029   5.508   4.843  1.2355 -0.0082  0.0876
   67MOL   H18622758   1.964   5.367   4.901 -1.3227  0.9671  0.3942
   67MOL   H18722759   2.156   5.344   5.060  0.4250  0.9252  0.9519
   67MOL   H18822760   2.240   5.442   4.933 -0.5363 -0.3315 -1.0133
   67MOL   C18922761   2.058   5.701   5.339  0.5592 -0.5232  0.0110
   67MOL   C19022762   1.995   5.808   5.433 -0.1012 -0.3573 -0.2478
   67MOL   N19122763   1.847   5.805   5.442  0.6566 -0.3535  0.2026
   67MOL   C19222764   1.766   5.912   5.383  0.3199  0.4466  0.6345
   67MOL   C19322765   1.618   5.869   5.395 -0.0013  0.0663  0.1060
   67MOL   C19422766   1.625   5.731   5.455 -0.0742 -0.6081  0.0584
   67MOL   C19522767   1.768   5.706   5.480 -0.4390 -0.1384 -0.0009
   67MOL   O19622768   1.798   5.594   5.528 -1.2961 -0.6485  0.7245
   67MOL   H19722769   2.165   5.706   5.358  0.0778  1.8031  2.4103
   67MOL   H19822770   2.023   5.600   5.362 -0.8620 -0.7424 -2.9073
   67MOL   H19922771   2.023   5.907   5.398 -0.7474 -0.1432 -0.1766
   67MOL   H20022772   1.776   6.005   5.439 -0.8396  0.8601  0.1814
   67MOL   H20122773   1.792   5.926   5.278 -5.2936  1.6251 -0.7580
   67MOL   H20222774   1.569   5.939   5.463  1.0529 -0.2830  1.2350
   67MOL   H20322775   1.573   5.867   5.296 -0.0218 -0.7148  0.1291
   67MOL   H20422776   1.566   5.723   5.546 -0.1558 -2.7407 -0.1486
   67MOL   H20522777   1.592   5.652   5.387  1.0819  0.7477 -2.1066
   67MOL   C20622778   2.057   5.792   5.579 -0.5348  0.2649 -0.5195
   67MOL   C20722779   2.213   5.804   5.582  0.7577  0.5570  0.5380
   67MOL   N20822780   2.255   5.935   5.525 -0.1589  0.1530  0.0792
   67MOL   C20922781   2.313   5.947   5.390  0.2207 -0.2749  0.6653
   67MOL   C21022782   2.302   6.096   5.352 -0.3633  0.2109 -0.3924
   67MOL   C21122783   2.279   6.167   5.484 -0.9424 -0.4041  0.6377
   67MOL   C21222784   2.247   6.057   5.585  0.4506  0.3953  0.3086
   67MOL   O21322785   2.196   6.085   5.695 -0.2030 -0.5467  0.0809
   67MOL   H21422786   2.032   5.693   5.617 -1.5037  0.8607  0.4332
   67MOL   H21522787   2.019   5.874   5.640 -2.0363 -0.0315 -1.0352
   67MOL   H21622788   2.268   5.726   5.528 -0.1779 -0.1823  0.6398
   67MOL   H21722789   2.411   5.909   5.421 -0.2365  0.2195  2.7944
   67MOL   H21822790   2.284   5.874   5.314 -0.7477  0.5269  0.2641
   67MOL   H21922791   2.392   6.123   5.297  0.4111 -0.0406  0.7338
   67MOL   H22022792   2.219   6.121   5.286 -1.6828  0.0976  1.1748
   67MOL   H22122793   2.364   6.219   5.529  0.1302 -0.5705 -1.1372
   67MOL   H22222794   2.194   6.234   5.471  0.3396  1.6782  2.5941
   67MOL   C22322795   2.262   5.793   5.736 -0.1454  0.6580  0.3326
   67MOL   C22422796   2.248   5.651   5.804 -0.0384  0.1892 -0.1352
   67MOL   N22522797   2.284   5.531   5.720 -0.1891  0.3427  0.4481
   67MOL   C22622798   2.192   5.429   5.663  0.0349  0.1701  0.1539
   67MOL   C22722799   2.272   5.327   5.579 -0.3289 -0.5746  0.8556
   67MOL   C22822800   2.420   5.375   5.602  0.5285  0.3320 -0.2007
   67MOL   C22922801   2.408   5.501   5.681  0.2391  0.5446 -0.2191
   67MOL   O23022802   2.507   5.575   5.710  0.6086 -0.0186  0.2465
   67MOL   H23122803   2.198   5.859   5.795  0.4217  0.5764  1.0352
   67MOL   H23222804   2.368   5.819   5.740 -0.0186  0.1224  0.4308
   67MOL   H23322805   2.145   5.625   5.828 -0.2397  0.5027 -0.6468
   67MOL   H23422806   2.151   5.369   5.744  1.2365 -3.1908 -1.6539
   67MOL   H23522807   2.105   5.478   5.619  0.2064  0.0319 -0.3489
   67MOL   H23622808   2.259   5.221   5.601 -2.9822 -0.2435  1.0557
   67MOL   H23722809   2.255   5.334   5.472 -1.4957 -1.4064  0.9853
   67MOL   H23822810   2.484   5.299   5.645  0.5054 -1.3935 -3.0963
   67MOL   H23922811   2.455   5.406   5.503 -0.9535 -0.4061 -0.9818
   67MOL   C24022812   2.327   5.640   5.936  0.4041 -0.5977 -0.5364
   67MOL   C24122813   2.256   5.738   6.046  0.3190 -0.3608  0.2496
   67MOL   N24222814   2.124   5.692   6.096  0.5348 -0.2369  0.2773
   67MOL   C24322815   2.014   5.788   6.087  0.5656  0.3098 -0.3374
   67MOL   C24422816   1.893   5.717   6.156  0.7612 -0.0604 -0.3701
   67MOL   C24522817   1.937   5.577   6.170  0.4767  0.1707  0.5514
   67MOL   C24622818   2.089   5.576   6.146  0.5687  0.2571 -0.4944
   67MOL   O24722819   2.167   5.478   6.173 -0.0505  0.2769  0.1849
   67MOL   H24822820   2.431   5.673   5.928  0.3440  0.0373  1.0311
   67MOL   H24922821   2.330   5.539   5.978  1.5473  0.1612  1.3160
   67MOL   H25022822   2.243   5.832   5.994 -1.2878 -1.4226 -1.3298
   67MOL   H25122823   2.048   5.878   6.138  0.9754  0.3415 -0.6615
   67MOL   H25222824   1.986   5.799   5.983 -2.7496 -0.0114  0.4441
   67MOL   H25322825   1.886   5.765   6.254 -0.5109  2.2395 -1.5313
   67MOL   H25422826   1.799   5.723   6.102  0.9380 -3.3402 -1.1465
   67MOL   H25522827   1.916   5.537   6.270 -1.2390  1.6809  0.8156
   67MOL   H25622828   1.885   5.528   6.089 -0.5750  2.2409 -0.0368
   67MOL   C25722829   2.354   5.751   6.167 -0.4375 -0.2717 -0.6108
   67MOL   C25822830   2.319   5.857   6.271 -0.4951 -0.1017  0.7756
   67MOL   N25922831   2.244   5.795   6.380  0.6636 -0.0138  0.3729
   67MOL   C26022832   2.307   5.703   6.473  0.0921  0.3232  0.2889
   67MOL   C26122833   2.216   5.711   6.594 -0.5484 -0.1150  0.3857
   67MOL   C26222834   2.077   5.762   6.547 -0.4122 -0.1893  0.9847
   67MOL   C26322835   2.124   5.838   6.426  0.7328 -0.3107  0.3569
   67MOL   O26422836   2.073   5.941   6.386  0.4162  0.9302  0.1163
   67MOL   H26522837   2.456   5.773   6.136  0.1706  0.3901  1.7876
   67MOL   H26622838   2.366   5.653   6.214  0.4283  0.4111  0.6218
   67MOL   H26722839   2.248   5.923   6.220 -1.2903 -0.1658  1.7785
   67MOL   H26822840   2.328   5.606   6.429  3.3050  2.0803 -2.3575
   67MOL   H26922841   2.407   5.739   6.500  0.1942 -1.3405  2.2935
   67MOL   H27022842   2.204   5.622   6.654  2.2285 -0.5748  0.3219
   67MOL   H27122843   2.265   5.791   6.650  0.7423  0.3062 -1.2725
   67MOL   H27222844   2.012   5.677   6.526 -0.3426 -0.1839  0.7478
   67MOL   H27322845   2.018   5.824   6.614 -0.9357  0.6980 -0.2842
   67MOL   C27422846   2.435   5.946   6.325  0.2332 -0.2096 -0.3193
   67MOL   C27522847   2.504   6.050   6.228 -0.1231  0.2272  0.2297
   67MOL   N27622848   2.417   6.170   6.214  0.3582  0.6232 -0.1674
   67MOL   C27722849   2.328   6.186   6.101  0.3120  0.3035  0.2749
   67MOL   C27822850   2.237   6.304   6.138 -0.0198 -0.2660 -0.5143
   67MOL   C27922851   2.301   6.373   6.262  0.1736 -0.0400 -0.1886
   67MOL   C28022852   2.398   6.262   6.303 -1.1817  0.3856  0.2378
   67MOL   O28122853   2.461   6.271   6.409 -0.6805  0.8307 -0.0636
   67MOL   H28222854   2.512   5.878   6.361 -0.4732 -1.0854 -0.4662
   67MOL   H28322855   2.398   6.006   6.409  2.3412  0.2537  0.3177
   67MOL   H28422856   2.494   6.011   6.127  0.7313  2.9041 -0.9181
   67MOL   H28522857   2.386   6.218   6.014  4.0572 -1.3542  2.0478
   67MOL   H28622858   2.266   6.100   6.077 -0.0959  1.0050 -1.2253
   67MOL   H28722859   2.237   6.379   6.059  3.0772 -0.5219 -0.7956
   67MOL   H28822860   2.131   6.292   6.161  0.4159  2.0531  3.3117
   67MOL   H28922861   2.356   6.457   6.219  0.8435 -1.0367 -1.3058
   67MOL   H29022862   2.231   6.405   6.339  0.3351 -0.4033  0.1144
   67MOL   C29122863   2.655   6.071   6.259  0.4774  0.0965  0.6451
   67MOL   C29222864   2.749   5.955   6.215  0.0289  0.1106  0.2157
   67MOL   N29322865   2.792   5.975   6.072  0.9648  0.3600 -0.6156
   67MOL   C29422866   2.795   5.869   5.974  0.1840 -0.5232  0.4785
   67MOL   C29522867   2.846   5.932   5.848 -0.8559  0.0780 -0.3666
   67MOL   C29622868   2.931   6.053   5.896  1.0186 -0.7169  0.2780
   67MOL   C29722869   2.869   6.074   6.033 -0.9512 -0.1076  0.3340
   67MOL   O29822870   2.889   6.183   6.084  0.0222 -0.2076 -0.0255
   67MOL   H29922871   2.670   6.103   6.362 -0.4790  3.2752 -0.1196
   67MOL   H30022872   2.685   6.160   6.203 -0.7174 -0.3650 -0.7798
   67MOL   H30122873   2.695   5.861   6.213  2.4635 -1.3380  1.1470
   67MOL   H30222874   2.854   5.783   6.007 -1.2538 -0.6982  2.7031
   67MOL   H30322875   2.695   5.829   5.955 -0.8318  1.3654  1.7121
   67MOL   H30422876   2.899   5.864   5.781 -0.5268 -0.6556  0.6386
   67MOL   H30522877   2.756   5.968   5.798 -1.9838 -0.7002  1.0906
   67MOL   H30622878   3.030   6.013   5.914  1.1066 -0.4761  0.3319
   67MOL   H30722879   2.925   6.145   5.838  1.2839  0.1834  1.6436
   67MOL   C30822880   2.872   5.927   6.310 -0.2511  0.0619 -0.1638
   67MOL   C30922881   2.828   5.852   6.441  0.5543  0.6431 -0.0509
   67MOL   N31022882   2.808   5.701   6.420 -0.5175  0.1018 -0.2036
   67MOL   C31122883   2.676   5.648   6.422 -0.2170  0.2144  0.7644
   67MOL   C31222884   2.700   5.504   6.451  0.9655 -0.2140 -0.4326
   67MOL   C31322885   2.840   5.472   6.384 -0.8288 -0.3546  0.5929
   67MOL   C31422886   2.906   5.612   6.401  0.5548 -0.6123 -0.7309
   67MOL   O31522887   3.027   5.624   6.403  0.6520 -0.2314 -0.2947
   67MOL   H31622888   2.913   6.025   6.332  0.6914 -0.2653 -0.4291
   67MOL   H31722889   2.956   5.883   6.255 -0.6290 -0.3781 -0.3930
   67MOL   H31822890   2.731   5.880   6.483 -0.8524  0.0068 -2.7524
   67MOL   H31922891   2.608   5.701   6.489 -0.0177  2.4605 -0.7523
   67MOL   H32022892   2.638   5.650   6.320 -0.0307 -0.8443  0.6686
   67MOL   H32122893   2.695   5.482   6.558 -1.1093 -0.4837 -0.5479
   67MOL   H32222894   2.624   5.444   6.400  1.9672 -1.1301 -0.8803
   67MOL   H32322895   2.901   5.398   6.437 -0.6373 -1.1894 -0.7638
   67MOL   H32422896   2.825   5.449   6.279 -2.0763 -0.5629  0.8128
   67MOL   C32522897   2.933   5.881   6.559  0.0618 -0.0240 -0.0078
   67MOL   C32622898   2.973   6.023   6.592  0.5288 -0.4057  0.2981
   67MOL   N32722899   2.853   6.111   6.614 -0.4243  0.1437  0.4471
   67MOL   C32822900   2.858   6.242   6.550  0.0068  1.0016 -0.1279
   67MOL   C32922901   2.748   6.323   6.621  0.0126  0.0104  0.5861
   67MOL   C33022902   2.683   6.233   6.725  0.0916 -0.2168 -0.7603
   67MOL   C33122903   2.760   6.102   6.709 -0.0787 -0.1259  0.0665
   67MOL   O33222904   2.733   6.001   6.769 -0.4781 -0.1815  0.2250
   67MOL   H33322905   3.026   5.826   6.544 -1.1317 -2.0382 -0.3277
   67MOL   H33422906   2.884   5.837   6.647  0.2190  2.6826  1.4733
   67MOL   H33522907   3.025   6.062   6.505  0.2368  0.4608  0.5025
   67MOL   H33622908   2.954   6.290   6.568  0.6302  0.7661 -2.6387
   67MOL   H33722909   2.852   6.243   6.441 -2.4719 -2.8058 -0.1182
   67MOL   H33822910   2.787   6.411   6.671 -0.4097  0.7538 -0.3606
   67MOL   H33922911   2.671   6.362   6.554  1.6373  1.4426 -0.5100
   67MOL   H34022912   2.698   6.270   6.826  0.5780 -1.3911 -0.3979
   67MOL   H34122913   2.578   6.211   6.704  0.4627 -2.6453 -0.1573
   67MOL   H34222914   3.043   6.017   6.675  0.4360 -0.5048  0.3690
   68MOL     C122915   5.546   5.287   3.076  0.2490  0.2830  0.2188
   68MOL     C222916   5.418   5.359   3.102 -0.1506  0.0151  0.4494
   68MOL     N322917   5.366   5.410   2.975  0.4274 -0.0291 -0.2612
   68MOL     C422918   5.409   5.543   2.930 -1.1477 -0.2752 -0.3178
   68MOL     C522919   5.395   5.535   2.781  0.3636  0.6893 -0.2985
   68MOL     C622920   5.290   5.428   2.751 -0.2324 -0.7894 -0.7567
   68MOL     C722921   5.309   5.345   2.875 -0.3599  0.3502 -0.2378
   68MOL     O822922   5.270   5.227   2.873  0.2443  0.7023  0.1000
   68MOL     H922923   5.539   5.205   3.005  0.3210  1.1079 -0.7439
   68MOL    H1022924   5.622   5.351   3.030 -0.5584 -0.2332 -1.8831
   68MOL    H1122925   5.446   5.446   3.161 -1.2339  0.9830 -0.4354
   68MOL    H1222926   5.340   5.618   2.967 -0.4670  0.2601 -0.1192
   68MOL    H1322927   5.513   5.550   2.964 -1.5219  0.9603  0.5838
   68MOL    H1422928   5.382   5.630   2.729  0.7432  1.3961  0.8657
   68MOL    H1522929   5.491   5.505   2.738 -0.2514 -3.6277  1.1223
   68MOL    H1622930   5.191   5.473   2.736 -0.8326 -1.1406  1.9281
   68MOL    H1722931   5.323   5.370   2.665  1.6410 -0.4711 -0.2783
   68MOL    H1822932   5.592   5.248   3.167  0.8852  0.3020 -0.0876
   68MOL    C1922933   5.312   5.276   3.178 -0.2420 -0.2735 -0.3853
   68MOL    C2022934   5.341   5.239   3.325 -0.8137  0.2713  0.2046
   68MOL    N2122935   5.359   5.355   3.405 -0.5509 -0.0013 -0.1916
   68MOL    C2222936   5.456   5.347   3.511 -0.1262 -0.0905  0.7706
   68MOL    C2322937   5.441   5.478   3.593  0.4626 -0.5745  0.4008
   68MOL    C2422938   5.325   5.550   3.534  0.5182 -0.1680  0.4364
   68MOL    C2522939   5.281   5.464   3.421 -0.5992 -0.1474  0.1533
   68MOL    O2622940   5.191   5.504   3.342  0.5783  0.4156 -0.4686
   68MOL    H2722941   5.280   5.189   3.120 -2.9798  1.1401 -1.1093
   68MOL    H2822942   5.217   5.330   3.175 -1.1118 -1.7918 -1.2743
   68MOL    H2922943   5.432   5.180   3.336 -0.9759  0.2317  1.3810
   68MOL    H3022944   5.435   5.266   3.581  2.3143 -1.3008  0.1667
   68MOL    H3122945   5.558   5.350   3.473 -1.5430 -1.5749 -3.4095
   68MOL    H3222946   5.407   5.458   3.695  1.8288 -1.6256  0.6643
   68MOL    H3322947   5.529   5.542   3.598  0.3014 -0.2986 -0.3488
   68MOL    H3422948   5.239   5.576   3.596 -0.9749 -1.8177 -0.9041
   68MOL    H3522949   5.350   5.649   3.496  2.0869 -0.5163  0.5462
   68MOL    C3622950   5.220   5.164   3.377  0.5352 -0.2500 -0.6026
   68MOL    C3722951   5.163   5.027   3.328  0.0941 -0.1693 -0.9405
   68MOL    N3822952   5.268   4.919   3.333  0.3075 -0.3557 -0.0260
   68MOL    C3922953   5.350   4.896   3.218 -0.5514 -0.2937  0.5351
   68MOL    C4022954   5.463   4.815   3.267 -0.1482 -0.5430  0.3175
   68MOL    C4122955   5.432   4.778   3.416  0.2017 -0.4500  0.6906
   68MOL    C4222956   5.303   4.853   3.445 -0.1882  0.2658  0.3448
   68MOL    O4322957   5.252   4.848   3.556 -0.4968  0.0963  0.6586
   68MOL    H4422958   5.136   5.233   3.385  0.2404 -0.3237 -2.8320
   68MOL    H4522959   5.247   5.143   3.481  0.2374  0.2760 -0.4136
   68MOL    H4622960   5.145   5.046   3.222 -2.2174  0.5805 -0.4432
   68MOL    H4722961   5.289   4.837   3.150 -0.5147 -1.2683  1.3378
   68MOL    H4822962   5.378   4.993   3.178 -0.4862 -0.7953 -0.6442
   68MOL    H4922963   5.465   4.725   3.206 -1.2372  0.6106 -1.4744
   68MOL    H5022964   5.559   4.865   3.259  0.5026 -1.9334 -0.7356
   68MOL    H5122965   5.422   4.675   3.452 -0.2466 -0.1758  1.3546
   68MOL    H5222966   5.510   4.817   3.481 -0.5862  2.0654  0.1728
   68MOL    C5322967   5.036   4.981   3.403  0.4000 -0.2333 -1.3120
   68MOL    C5422968   4.912   5.052   3.355  0.2045  0.0258 -0.1040
   68MOL    N5522969   4.879   5.008   3.212  0.4199  0.3870  0.4951
   68MOL    C5622970   4.894   5.098   3.105  0.3802 -0.1134 -0.3905
   68MOL    C5722971   4.846   5.027   2.977 -0.0088  0.0849 -0.1001
   68MOL    C5822972   4.812   4.884   3.021 -0.0286  0.1708  0.6286
   68MOL    C5922973   4.815   4.895   3.173 -0.6024  0.3997  0.1108
   68MOL    O6022974   4.742   4.816   3.236  0.2530 -0.2358 -0.2948
   68MOL    H6122975   5.046   5.003   3.509 -0.3603  0.1412 -1.3112
   68MOL    H6222976   5.017   4.873   3.398  0.7360 -0.3401 -0.3720
   68MOL    H6322977   4.935   5.156   3.333  1.9374 -0.9023 -2.9594
   68MOL    H6422978   4.817   5.170   3.129  2.2014  1.9043 -0.4272
   68MOL    H6522979   4.989   5.152   3.101  0.4865 -0.2686  0.0132
   68MOL    H6622980   4.756   5.067   2.930  0.6576 -0.0591 -1.5204
   68MOL    H6722981   4.927   5.021   2.905 -0.7491 -2.4944 -0.7858
   68MOL    H6822982   4.716   4.846   2.985 -0.5591 -0.6942  2.8658
   68MOL    H6922983   4.889   4.817   2.984  0.0451 -0.2168  1.4634
   68MOL    C7022984   4.788   5.058   3.454  0.2411  0.0822 -0.2793
   68MOL    C7122985   4.813   5.166   3.567 -0.5129 -0.3265 -0.0114
   68MOL    N7222986   4.816   5.304   3.527 -0.1389  0.2611  0.1642
   68MOL    C7322987   4.901   5.399   3.589 -0.9387  0.3062 -0.7111
   68MOL    C7422988   4.860   5.541   3.533  0.6507  0.5150 -0.2937
   68MOL    C7522989   4.716   5.512   3.495  0.0672  0.6644  0.2542
   68MOL    C7622990   4.719   5.366   3.458 -0.3858 -0.8547  0.4335
   68MOL    O7722991   4.635   5.320   3.385  0.2189 -0.6522 -0.5111
   68MOL    H7822992   4.781   4.956   3.492  0.4741  0.9330  2.1124
   68MOL    H7922993   4.696   5.074   3.398 -0.3568  2.9415  1.4425
   68MOL    H8022994   4.916   5.150   3.599 -0.0336  1.1988 -0.7443
   68MOL    H8122995   4.886   5.412   3.696  2.4175 -2.7352  0.2052
   68MOL    H8222996   5.005   5.385   3.559 -1.1418  1.7789 -2.1653
   68MOL    H8322997   4.858   5.626   3.600 -2.1244  0.4783 -0.2691
   68MOL    H8422998   4.918   5.564   3.443 -0.5020  2.1647 -0.6213
   68MOL    H8522999   4.652   5.529   3.583 -0.1813 -0.0384  0.2119
   68MOL    H8623000   4.686   5.572   3.409  0.1275 -0.8600 -0.8394
   68MOL    C8723001   4.709   5.151   3.683 -0.4001 -0.0044 -0.3442
   68MOL    C8823002   4.719   5.025   3.767 -0.3430 -0.8397 -0.4358
   68MOL    N8923003   4.855   5.031   3.825  0.5116 -1.5259 -0.2107
   68MOL    C9023004   4.942   4.918   3.795  0.1728 -0.3729 -0.4869
   68MOL    C9123005   5.076   4.967   3.836 -0.0845  0.6426  0.1416
   68MOL    C9223006   5.050   5.090   3.927  0.5081 -0.2281  0.2798
   68MOL    C9323007   4.911   5.123   3.899  0.7282  0.1437  0.2478
   68MOL    O9423008   4.866   5.223   3.952  0.4619  0.1667 -0.3465
   68MOL    H9523009   4.613   5.144   3.632 -0.1483 -0.8316 -0.7209
   68MOL    H9623010   4.701   5.241   3.744  0.9453 -0.5389  0.6518
   68MOL    H9723011   4.710   4.947   3.691  0.7541 -0.7833 -0.6360
   68MOL    H9823012   4.914   4.829   3.852 -0.7962  1.2812  1.6959
   68MOL    H9923013   4.954   4.888   3.691  1.5700 -1.0112 -0.1556
   68MOL   H10023014   5.129   4.889   3.890 -1.0616 -0.3338 -0.2899
   68MOL   H10123015   5.132   4.987   3.744 -2.0200 -2.4789 -1.8179
   68MOL   H10223016   5.056   5.052   4.029 -0.7328  1.0206  0.8256
   68MOL   H10323017   5.128   5.165   3.915  0.9837 -0.5132  1.5004
   68MOL   C10423018   4.606   5.016   3.860  0.0986  0.0082 -0.6533
   68MOL   C10523019   4.559   4.888   3.936  0.2681  0.3637  0.8430
   68MOL   N10623020   4.668   4.806   3.999 -0.3583 -0.3369 -0.2807
   68MOL   C10723021   4.699   4.683   3.930  0.2733 -0.3033  0.0812
   68MOL   C10823022   4.784   4.601   4.025 -0.3145  1.0266 -0.1742
   68MOL   C10923023   4.799   4.689   4.153  1.1443 -0.7810  1.0882
   68MOL   C11023024   4.735   4.817   4.113 -0.3475  0.3891 -0.3390
   68MOL   O11123025   4.728   4.917   4.190 -0.6543 -0.2773  0.0128
   68MOL   H11223026   4.520   5.040   3.797 -2.4090 -0.1814  2.5240
   68MOL   H11323027   4.608   5.102   3.927 -1.1371 -0.4064 -0.0674
   68MOL   H11423028   4.507   4.827   3.862 -2.2368  0.3831  2.5346
   68MOL   H11523029   4.612   4.626   3.897 -0.2199 -0.0591  0.9405
   68MOL   H11623030   4.746   4.707   3.834  1.3490  0.4560  0.7894
   68MOL   H11723031   4.732   4.510   4.052 -0.2818  1.1990  0.4608
   68MOL   H11823032   4.876   4.574   3.972  0.6300  0.9147  1.5027
   68MOL   H11923033   4.898   4.729   4.175  1.6228 -1.0333 -0.5775
   68MOL   H12023034   4.760   4.659   4.250  2.1555 -2.0343  1.1138
   68MOL   C12123035   4.455   4.934   4.040 -0.2630  0.8819  0.1341
   68MOL   C12223036   4.381   4.836   4.135 -0.9910  0.7977 -0.7789
   68MOL   N12323037   4.315   4.919   4.240 -0.2260 -0.9541  0.4975
   68MOL   C12423038   4.319   4.877   4.376 -0.3543  0.4751 -0.1878
   68MOL   C12523039   4.249   4.981   4.463  0.0901 -0.2155  0.1963
   68MOL   C12623040   4.214   5.098   4.365  0.1004  0.3451 -0.0299
   68MOL   C12723041   4.242   5.033   4.226  0.0757 -0.6564 -1.3535
   68MOL   O12823042   4.211   5.082   4.111 -0.5120 -0.2418 -0.4065
   68MOL   H12923043   4.388   4.990   3.975 -1.1698 -0.3774 -0.0392
   68MOL   H13023044   4.497   5.004   4.111 -0.4690 -2.4325  3.6740
   68MOL   H13123045   4.437   4.758   4.185 -2.7346 -0.2644 -0.4639
   68MOL   H13223046   4.424   4.862   4.398  0.3885  2.9682 -1.8944
   68MOL   H13323047   4.274   4.778   4.385  1.0471 -0.1779 -0.3557
   68MOL   H13423048   4.149   4.957   4.498 -0.6806  2.1865 -0.2655
   68MOL   H13523049   4.324   5.009   4.536  1.2811 -1.0402 -0.6988
   68MOL   H13623050   4.114   5.140   4.372  1.0944  2.7176  0.3518
   68MOL   H13723051   4.289   5.176   4.376 -0.3769  1.0150 -1.3234
   68MOL   C13823052   4.272   4.763   4.062 -0.5699  0.5261  0.1287
   68MOL   C13923053   4.313   4.636   3.986  0.2435 -0.7117  0.2081
   68MOL   N14023054   4.314   4.518   4.076  0.7070 -0.2785  0.4205
   68MOL   C14123055   4.432   4.441   4.099  0.1260 -0.0234 -0.2769
   68MOL   C14223056   4.397   4.316   4.183  0.3858  0.1171  0.0588
   68MOL   C14323057   4.252   4.355   4.220  0.0966 -0.2486 -1.0662
   68MOL   C14423058   4.207   4.471   4.140 -0.6914 -0.7668  0.4477
   68MOL   O14523059   4.093   4.511   4.128  0.1825 -0.0873 -0.3766
   68MOL   H14623060   4.223   4.832   3.993  1.1677  1.5395 -0.1279
   68MOL   H14723061   4.184   4.744   4.122 -0.8086  0.5871 -0.1986
   68MOL   H14823062   4.413   4.658   3.949  0.5921 -0.8759  1.0501
   68MOL   H14923063   4.484   4.424   4.005 -1.8305 -3.7862 -0.7813
   68MOL   H15023064   4.500   4.497   4.163 -0.4703  0.0544  0.2952
   68MOL   H15123065   4.388   4.227   4.121 -0.3114  0.9061 -0.9767
   68MOL   H15223066   4.463   4.300   4.269  0.2845 -2.4824 -0.3045
   68MOL   H15323067   4.235   4.381   4.325 -0.6280  0.6887 -1.4102
   68MOL   H15423068   4.183   4.272   4.204  2.3907 -2.7218  1.3297
   68MOL   C15523069   4.215   4.613   3.868 -0.2443 -0.4364 -0.1988
   68MOL   C15623070   4.219   4.704   3.743  0.4844  0.9864  0.2531
   68MOL   N15723071   4.338   4.690   3.661 -0.3872  0.4035 -0.1317
   68MOL   C15823072   4.355   4.794   3.568 -0.1696 -0.3558  0.3742
   68MOL   C15923073   4.467   4.756   3.475  0.1461 -0.0836 -0.5443
   68MOL   C16023074   4.510   4.614   3.510 -0.1239  0.1535 -0.2029
   68MOL   C16123075   4.438   4.598   3.641 -0.0291 -0.0108 -0.4618
   68MOL   O16223076   4.470   4.511   3.722  0.3640  0.4987 -0.0739
   68MOL   H16323077   4.117   4.621   3.914  0.0175 -1.0268  0.4723
   68MOL   H16423078   4.213   4.511   3.828 -1.0033 -0.7992  0.7607
   68MOL   H16523079   4.217   4.810   3.768  0.3582  1.2205 -0.7051
   68MOL   H16623080   4.264   4.816   3.511  0.9200  0.9259 -0.8935
   68MOL   H16723081   4.391   4.884   3.616  0.4897 -0.3924 -0.0453
   68MOL   H16823082   4.433   4.784   3.375 -0.0849  1.2534 -0.1007
   68MOL   H16923083   4.554   4.813   3.505  0.0391 -1.0785  1.7143
   68MOL   H17023084   4.464   4.552   3.433 -1.4919 -0.8072  1.3601
   68MOL   H17123085   4.616   4.588   3.508 -0.7045 -2.3822  0.1735
   68MOL   C17223086   4.100   4.661   3.654  0.3906 -0.3499  0.0610
   68MOL   C17323087   3.960   4.703   3.705  0.0814 -0.0806  0.7883
   68MOL   N17423088   3.961   4.845   3.743  0.0247 -0.2385  0.5591
   68MOL   C17523089   3.897   4.886   3.864 -0.4599 -0.3208  0.1093
   68MOL   C17623090   3.925   5.035   3.869 -0.1848 -0.3590  0.1045
   68MOL   C17723091   3.981   5.077   3.732  0.8822  0.4216  0.3503
   68MOL   C17823092   4.003   4.946   3.668 -0.4080  0.6495  0.5151
   68MOL   O17923093   4.055   4.941   3.560  0.9296 -0.1347 -0.3466
   68MOL   H18023094   4.089   4.554   3.640 -0.8675  0.0357 -2.2231
   68MOL   H18123095   4.121   4.685   3.549 -3.5131  0.8539 -0.5131
   68MOL   H18223096   3.939   4.659   3.803 -1.5829 -1.9657 -0.3798
   68MOL   H18323097   3.790   4.869   3.851 -0.8148  0.0020  2.4174
   68MOL   H18423098   3.915   4.818   3.947  1.2092 -1.6973 -1.3523
   68MOL   H18523099   3.994   5.060   3.950 -1.3468  0.7504  0.7732
   68MOL   H18623100   3.833   5.094   3.879  0.6626  1.3233 -1.6333
   68MOL   H18723101   3.902   5.131   3.682  0.3651 -1.5956 -1.0962
   68MOL   H18823102   4.072   5.137   3.732  0.7772  0.5822  0.6283
   68MOL   C18923103   3.842   4.657   3.607 -0.5236  0.1283 -0.9319
   68MOL   C19023104   3.819   4.504   3.619 -0.2888  0.0293  0.1037
   68MOL   N19123105   3.791   4.470   3.762  0.4234 -0.6217  0.1626
   68MOL   C19223106   3.878   4.375   3.834  0.3283  0.7915 -0.3258
   68MOL   C19323107   3.825   4.363   3.974 -0.0320  0.2830  0.2661
   68MOL   C19423108   3.697   4.442   3.979 -0.0169  0.6150 -0.2996
   68MOL   C19523109   3.681   4.497   3.840  0.0627  0.1685 -0.5756
   68MOL   O19623110   3.577   4.550   3.796 -0.6278  0.1470 -0.2658
   68MOL   H19723111   3.868   4.673   3.502  0.5749 -2.1112 -1.0397
   68MOL   H19823112   3.745   4.701   3.628 -0.3646 -0.3391  0.8461
   68MOL   H19923113   3.909   4.447   3.595  0.2562  0.3074  1.4436
   68MOL   H20023114   3.873   4.278   3.786  2.1989  0.5589 -0.0935
   68MOL   H20123115   3.980   4.411   3.824  1.8268 -2.9059  0.9812
   68MOL   H20223116   3.812   4.257   3.992  2.2479  0.0603  0.8166
   68MOL   H20323117   3.897   4.392   4.051  1.2521  3.5418 -2.0298
   68MOL   H20423118   3.621   4.373   4.017 -0.5659  1.2894 -0.1643
   68MOL   H20523119   3.717   4.518   4.054 -0.1865  0.4706 -0.1063
   68MOL   C20623120   3.714   4.450   3.517 -0.0240  0.5371  0.2298
   68MOL   C20723121   3.769   4.438   3.375 -0.6600  0.2898 -0.0615
   68MOL   N20823122   3.890   4.353   3.363  0.0294  0.0455 -0.1665
   68MOL   C20923123   4.009   4.419   3.305 -0.1697  0.5681 -0.2308
   68MOL   C21023124   4.107   4.303   3.306  0.0473 -0.0180 -0.1762
   68MOL   C21123125   4.046   4.177   3.374  0.4575  0.4335  0.8261
   68MOL   C21223126   3.903   4.223   3.402 -0.5366 -0.3314 -0.1755
   68MOL   O21323127   3.817   4.151   3.445 -0.5461 -0.1862 -0.3177
   68MOL   H21423128   3.615   4.497   3.512 -0.2161  0.0070 -1.0537
   68MOL   H21523129   3.679   4.354   3.554 -0.7194  0.0304 -1.6599
   68MOL   H21623130   3.785   4.541   3.345  0.9061 -0.7012 -2.7327
   68MOL   H21723131   3.988   4.462   3.207 -1.0467 -0.2750 -0.4168
   68MOL   H21823132   4.048   4.498   3.369 -0.8098  1.6071 -1.0928
   68MOL   H21923133   4.113   4.292   3.197  0.5195 -1.1566 -0.0359
   68MOL   H22023134   4.202   4.329   3.351 -0.1782 -1.9976  1.4816
   68MOL   H22123135   4.029   4.098   3.301 -2.7282  1.6549  0.1830
   68MOL   H22223136   4.092   4.147   3.468 -0.3432  0.7076  1.3111
   68MOL   C22323137   3.656   4.386   3.283 -0.3114 -0.2709  0.4911
   68MOL   C22423138   3.610   4.481   3.177  0.1323 -0.1377 -0.0579
   68MOL   N22523139   3.529   4.408   3.075 -0.0739 -0.1662 -0.5502
   68MOL   C22623140   3.579   4.390   2.940 -0.5246  0.3416  0.2904
   68MOL   C22723141   3.459   4.341   2.856  0.6334 -0.5667  0.3127
   68MOL   C22823142   3.346   4.325   2.954 -0.7170 -0.0681  0.6834
   68MOL   C22923143   3.406   4.352   3.089  0.7144  0.1384  0.6312
   68MOL   O23023144   3.338   4.347   3.188 -0.3724  0.3402  0.6195
   68MOL   H23123145   3.570   4.350   3.340 -0.5517 -0.6386 -0.1078
   68MOL   H23223146   3.690   4.295   3.234 -1.4009 -0.8903  0.8622
   68MOL   H23323147   3.693   4.525   3.122  0.4714 -1.1549 -0.3695
   68MOL   H23423148   3.636   4.474   2.900  0.2739  0.0383  0.7797
   68MOL   H23523149   3.667   4.325   2.935 -0.8447  0.0334 -1.8592
   68MOL   H23623150   3.440   4.415   2.779 -0.2158 -2.1843 -1.0676
   68MOL   H23723151   3.484   4.243   2.816  0.6432 -1.4012  2.2758
   68MOL   H23823152   3.275   4.405   2.934  0.1108  0.2418 -1.1135
   68MOL   H23923153   3.295   4.229   2.945  0.6492 -1.1461  3.6329
   68MOL   C24023154   3.525   4.601   3.236  0.4755 -0.7912  0.4194
   68MOL   C24123155   3.449   4.698   3.141 -0.3097 -0.4853 -0.2427
   68MOL   N24223156   3.332   4.761   3.205 -0.2438  0.3903 -0.6148
   68MOL   C24323157   3.208   4.705   3.176  0.1125 -0.3331  0.3120
   68MOL   C24423158   3.102   4.790   3.246  0.5161 -0.1480  0.1953
   68MOL   C24523159   3.176   4.876   3.347 -0.4731 -0.0549  0.3411
   68MOL   C24623160   3.319   4.847   3.312 -0.1352  0.1026 -0.4241
   68MOL   O24723161   3.414   4.895   3.365 -0.2391  0.0483  0.4135
   68MOL   H24823162   3.584   4.654   3.311  2.7319 -0.8960 -1.2326
   68MOL   H24923163   3.458   4.556   3.309  1.3965  0.6075  2.1759
   68MOL   H25023164   3.401   4.634   3.067 -0.5779 -0.8748  0.2693
   68MOL   H25123165   3.198   4.727   3.069 -3.1470 -1.2861  0.3703
   68MOL   H25223166   3.211   4.597   3.189 -2.1683 -0.6673 -1.4420
   68MOL   H25323167   3.033   4.843   3.180  0.2819  1.8710  1.9953
   68MOL   H25423168   3.037   4.718   3.295 -0.7150  2.1277  2.0322
   68MOL   H25523169   3.171   4.984   3.333  1.8594 -0.0464 -0.6014
   68MOL   H25623170   3.155   4.850   3.451 -1.6316  2.9051  0.9007
   68MOL   C25723171   3.543   4.790   3.068 -1.0836  0.4989 -0.2285
   68MOL   C25823172   3.475   4.839   2.936 -0.0205  0.7024 -0.6629
   68MOL   N25923173   3.528   4.975   2.902 -0.2858 -0.3957 -0.0531
   68MOL   C26023174   3.444   5.087   2.898 -0.1179 -0.3143 -1.1049
   68MOL   C26123175   3.540   5.198   2.844  0.0359 -0.0513 -0.0528
   68MOL   C26223176   3.680   5.151   2.847 -0.2005  0.3265 -0.0500
   68MOL   C26323177   3.657   5.005   2.880  0.0987 -0.4485  0.3301
   68MOL   O26423178   3.745   4.924   2.872 -0.5834  0.3253  0.6984
   68MOL   H26523179   3.644   4.750   3.054 -1.2328  0.3616 -0.9077
   68MOL   H26623180   3.560   4.883   3.122 -3.1314  2.7001 -3.1847
   68MOL   H26723181   3.367   4.847   2.946  0.0160 -0.9451  1.1873
   68MOL   H26823182   3.349   5.077   2.847  0.1559  1.8739 -2.1186
   68MOL   H26923183   3.418   5.105   3.002 -1.1030  2.1681 -1.7479
   68MOL   H27023184   3.506   5.206   2.741  1.0595  0.8814 -0.3234
   68MOL   H27123185   3.522   5.299   2.882 -0.5838 -0.0489 -0.3376
   68MOL   H27223186   3.735   5.168   2.754  0.0451 -0.2510 -0.0113
   68MOL   H27323187   3.734   5.199   2.928 -0.8077  1.3282 -0.2311
   68MOL   C27423188   3.489   4.735   2.822 -0.2003  0.6731 -1.0609
   68MOL   C27523189   3.429   4.774   2.687  0.6051 -0.0980  0.1034
   68MOL   N27623190   3.523   4.752   2.567 -0.3531  0.4982  0.4986
   68MOL   C27723191   3.575   4.863   2.489 -0.1718  0.3998 -0.1831
   68MOL   C27823192   3.667   4.808   2.384  0.9325 -0.1669  0.4170
   68MOL   C27923193   3.677   4.654   2.408 -0.8179  0.3549 -0.5455
   68MOL   C28023194   3.569   4.633   2.519  0.1114  0.3743 -0.0461
   68MOL   O28123195   3.539   4.521   2.562 -0.5411  0.2228  0.1652
   68MOL   H28223196   3.435   4.646   2.854 -0.9752  1.8163  0.8875
   68MOL   H28323197   3.589   4.690   2.819 -1.1113 -1.4280 -0.5296
   68MOL   H28423198   3.410   4.880   2.670 -0.1048 -0.4557 -1.4003
   68MOL   H28523199   3.495   4.925   2.448  0.8875  2.1518  0.3502
   68MOL   H28623200   3.630   4.922   2.563  1.8727 -0.6551 -0.8272
   68MOL   H28723201   3.647   4.821   2.278 -1.4144 -0.5595  0.7823
   68MOL   H28823202   3.769   4.844   2.395  0.7422  0.4336  0.2082
   68MOL   H28923203   3.666   4.592   2.320  1.0618  1.0742 -1.3186
   68MOL   H29023204   3.775   4.626   2.445 -2.0233  0.1257  2.6825
   68MOL   C29123205   3.293   4.702   2.675  0.3543  0.3995 -0.2015
   68MOL   C29223206   3.192   4.778   2.579 -0.4701 -0.1423 -0.8195
   68MOL   N29323207   3.124   4.688   2.489  0.1517 -0.0812  0.1520
   68MOL   C29423208   3.193   4.659   2.360  0.0504  0.2120 -0.3860
   68MOL   C29523209   3.165   4.515   2.328  0.0507  0.2661 -0.2148
   68MOL   C29623210   3.045   4.484   2.418 -0.1523 -0.2069 -0.1890
   68MOL   C29723211   3.042   4.589   2.521  0.3921  0.0872  0.3534
   68MOL   O29823212   2.968   4.573   2.622 -0.5320 -0.0474  0.3166
   68MOL   H29923213   3.247   4.686   2.772  0.9603  5.4832  1.0481
   68MOL   H30023214   3.316   4.600   2.644  0.3616 -0.1630  1.6142
   68MOL   H30123215   3.258   4.846   2.523  0.4331  0.1473  0.5634
   68MOL   H30223216   3.133   4.709   2.285 -0.0296  0.9067  0.1364
   68MOL   H30323217   3.295   4.693   2.338 -0.5992  2.2705 -0.3128
   68MOL   H30423218   3.141   4.501   2.222  0.4199 -0.3166 -0.2223
   68MOL   H30523219   3.255   4.457   2.351  0.2904  0.6973 -0.0601
   68MOL   H30623220   2.953   4.489   2.361 -0.1255  1.1686 -0.1128
   68MOL   H30723221   3.038   4.383   2.460  0.0247  0.5216  1.6323
   68MOL   C30823222   3.085   4.852   2.663  0.1074 -0.7911 -0.0525
   68MOL   C30923223   2.979   4.930   2.589  0.0907  0.5385 -0.0720
   68MOL   N31023224   2.860   4.934   2.677 -0.7972  0.5032 -0.2120
   68MOL   C31123225   2.736   4.863   2.629  0.3820 -0.0945  0.0018
   68MOL   C31223226   2.623   4.901   2.737 -0.1488  0.3875 -0.1053
   68MOL   C31323227   2.698   4.990   2.835  0.3087 -0.5501 -0.2786
   68MOL   C31423228   2.846   4.995   2.794  0.1499  0.0868 -0.1637
   68MOL   O31523229   2.931   5.051   2.865  0.3192  0.0070 -0.1525
   68MOL   H31623230   3.143   4.926   2.719  0.2487 -0.5517 -0.5173
   68MOL   H31723231   3.034   4.787   2.734  0.1586 -0.6748  0.0907
   68MOL   H31823232   2.952   4.874   2.499 -1.1259  2.6652 -1.0523
   68MOL   H31923233   2.705   4.892   2.528 -4.0148 -2.1652  0.6205
   68MOL   H32023234   2.759   4.756   2.626  0.9179 -0.0144  1.0889
   68MOL   H32123235   2.532   4.947   2.699 -0.4568 -0.1576 -0.0364
   68MOL   H32223236   2.592   4.810   2.788  1.9470 -0.5214 -0.4031
   68MOL   H32323237   2.644   5.084   2.844  0.4292 -0.3708 -1.2943
   68MOL   H32423238   2.697   4.940   2.931 -0.3003  0.0408  0.0240
   68MOL   C32523239   3.026   5.072   2.545 -0.1319 -0.2585  0.2383
   68MOL   C32623240   3.113   5.082   2.417  0.4330 -0.2670  0.2913
   68MOL   N32723241   3.153   5.219   2.375  0.1642 -0.1734  0.8923
   68MOL   C32823242   3.056   5.326   2.339  0.0118  0.2748 -0.6150
   68MOL   C32923243   3.130   5.449   2.363  0.6028 -0.3379 -0.2617
   68MOL   C33023244   3.273   5.413   2.378 -0.5292 -0.4039 -0.0922
   68MOL   C33123245   3.271   5.269   2.417  0.2319 -0.1858  0.3156
   68MOL   O33223246   3.360   5.216   2.484  0.4852  0.6085  0.7291
   68MOL   H33323247   3.070   5.107   2.638  0.0415  0.0802  0.0287
   68MOL   H33423248   2.936   5.132   2.537  0.3322  0.5499  1.0492
   68MOL   H33523249   3.056   5.035   2.337  0.6951  0.1828 -0.1673
   68MOL   H33623250   3.033   5.324   2.233 -0.7211  1.1214 -0.4729
   68MOL   H33723251   2.960   5.311   2.389  0.3415 -1.0724 -0.3664
   68MOL   H33823252   3.130   5.517   2.278  0.1481 -1.3749 -1.1029
   68MOL   H33923253   3.098   5.490   2.458 -0.2982 -0.7094 -0.3918
   68MOL   H34023254   3.326   5.422   2.283 -1.3230 -1.6060 -0.6597
   68MOL   H34123255   3.317   5.480   2.452 -0.1073  2.3428 -2.7544
   68MOL   H34223256   3.199   5.015   2.424  0.8886  0.1187 -1.2429
   69MOL     C123257   3.490   3.786   0.038  0.0853  0.3225  0.3731
   69MOL     C223258   3.509   3.919   7.883 -0.0883 -0.1160  0.1735
   69MOL     N323259   3.652   3.930   7.839  0.1914 -0.0216 -0.4682
   69MOL     C423260   3.734   4.032   7.900  0.3044  0.9674 -1.0337
   69MOL     C523261   3.877   4.003   7.868  0.3268  0.5819 -0.4067
   69MOL     C623262   3.869   3.892   7.765  0.2154  0.2631  0.2552
   69MOL     C723263   3.726   3.851   7.763  0.1364  0.2131 -0.6507
   69MOL     O823264   3.688   3.753   7.692  0.4708 -0.0821 -0.4072
   69MOL     H923265   3.548   3.767   0.128  1.6732  0.5655 -0.5791
   69MOL    H1023266   3.387   3.768   0.069  0.8437 -0.9831  2.2084
   69MOL    H1123267   3.491   3.989   0.058  2.0882  1.6110 -0.7726
   69MOL    H1223268   3.698   4.129   7.863 -0.2142  1.2541  0.1979
   69MOL    H1323269   3.714   4.035   0.101  0.4940  0.3379 -0.9807
   69MOL    H1423270   3.931   4.093   7.837 -0.6743  1.2723 -0.1480
   69MOL    H1523271   3.932   3.969   0.050 -2.8519  0.1078  1.4681
   69MOL    H1623272   3.903   3.931   7.669 -2.2777 -1.7243 -1.5052
   69MOL    H1723273   3.930   3.805   7.788  0.5916  0.2044 -0.9429
   69MOL    H1823274   3.519   3.712   7.870  0.2293 -0.3342  1.0785
   69MOL    C1923275   3.409   3.954   7.771 -0.3286  0.5322  0.2847
   69MOL    C2023276   3.261   3.980   7.813 -0.4202 -0.0140 -0.2138
   69MOL    N2123277   3.250   4.087   0.004 -0.0754 -0.2813  0.1666
   69MOL    C2223278   3.211   4.064   0.142 -0.1296  0.4423  0.1509
   69MOL    C2323279   3.235   4.199   0.212  0.6559 -0.0888 -0.8999
   69MOL    C2423280   3.264   4.298   0.108  0.1538 -0.1209 -0.3627
   69MOL    C2523281   3.277   4.219   7.891 -0.6985  0.3005  0.4893
   69MOL    O2623282   3.310   4.267   7.784 -0.1632  0.0959  0.2923
   69MOL    H2723283   3.411   3.874   7.697 -1.6341  0.1987  0.5905
   69MOL    H2823284   3.453   4.039   7.719  1.8723 -0.4005  0.5762
   69MOL    H2923285   3.221   3.898   7.872  1.3798 -0.1753  0.8408
   69MOL    H3023286   3.110   4.024   0.150  0.5049 -1.2773 -0.2470
   69MOL    H3123287   3.275   3.986   0.184  0.8053  0.2719 -1.5383
   69MOL    H3223288   3.141   4.224   0.261  2.0960  0.9341  1.4455
   69MOL    H3323289   3.310   4.184   0.290 -1.4371  0.2511  1.2281
   69MOL    H3423290   3.179   4.365   0.100  0.7144  0.6067 -0.2342
   69MOL    H3523291   3.351   4.361   0.124  0.4303 -1.0770  2.1036
   69MOL    C3623292   3.177   4.009   7.690  0.7191 -0.2544  0.7482
   69MOL    C3723293   3.030   3.963   7.691 -0.3137 -0.1513  0.3992
   69MOL    N3823294   2.957   4.001   7.819  0.2177  0.2890  0.5969
   69MOL    C3923295   2.921   3.893   0.002  0.5731 -0.1200 -0.7738
   69MOL    C4023296   2.835   3.969   0.111 -0.2332 -0.2820 -0.0859
   69MOL    C4123297   2.830   4.117   0.066 -0.0744  0.3576 -0.9953
   69MOL    C4223298   2.917   4.122   7.851  0.3327 -0.2783  0.0818
   69MOL    O4323299   2.948   4.229   7.797  0.0353 -0.0586  0.0469
   69MOL    H4423300   3.223   3.961   7.603 -1.2802  0.1227 -0.5486
   69MOL    H4523301   3.186   4.115   7.666  0.6703 -0.7450 -1.5688
   69MOL    H4623302   3.029   3.856   7.669  2.2490 -0.1660  0.2669
   69MOL    H4723303   2.872   3.814   7.851 -1.5995  1.7983 -1.6270
   69MOL    H4823304   3.007   3.850   0.054  0.4484  1.0636  0.4382
   69MOL    H4923305   2.732   3.935   0.119  0.2033 -1.0215  3.3740
   69MOL    H5023306   2.866   3.950   0.214  1.9231  3.1570 -0.0311
   69MOL    H5123307   2.724   4.137   0.046 -0.3952  1.1481  1.2881
   69MOL    H5223308   2.862   4.160   0.161  2.8339 -1.7207 -0.9655
   69MOL    C5323309   2.935   4.011   7.579  0.1211  0.2094 -0.3270
   69MOL    C5423310   2.995   3.965   7.442 -0.0910 -0.2159  0.1004
   69MOL    N5523311   2.886   3.921   7.345  0.2469  0.0566 -0.0139
   69MOL    C5623312   2.790   4.012   7.289  0.1916 -0.0563  0.2473
   69MOL    C5723313   2.706   3.942   7.187  0.0574 -0.1122 -0.3412
   69MOL    C5823314   2.747   3.794   7.199 -0.3173 -0.0986 -0.2861
   69MOL    C5923315   2.875   3.804   7.281 -0.2881  0.5788  0.0981
   69MOL    O6023316   2.951   3.712   7.303 -0.3883 -0.1371  0.2456
   69MOL    H6123317   2.911   4.118   7.575  1.4626  0.5256 -0.1135
   69MOL    H6223318   2.838   3.966   7.601  0.3113 -0.1164 -0.1613
   69MOL    H6323319   3.059   3.877   7.454 -0.5451 -0.9070 -2.3751
   69MOL    H6423320   2.726   4.046   7.370 -0.8574  0.1724 -0.6638
   69MOL    H6523321   2.831   4.103   7.245 -2.5701  2.6425  3.0759
   69MOL    H6623322   2.597   3.953   7.193 -0.1146 -1.9982  0.2107
   69MOL    H6723323   2.727   3.998   7.096  0.5589  0.4909  0.1404
   69MOL    H6823324   2.674   3.728   7.247 -1.2087  1.6258  0.8039
   69MOL    H6923325   2.784   3.756   7.104  1.6512  0.5791  0.2016
   69MOL    C7023326   3.080   4.078   7.375 -0.3697 -0.0395 -0.3633
   69MOL    C7123327   3.211   4.038   7.306  0.2868 -0.2240 -0.1290
   69MOL    N7223328   3.192   3.933   7.204 -0.5864 -0.6336  0.1393
   69MOL    C7323329   3.268   3.809   7.205  0.9678  0.2266  0.2463
   69MOL    C7423330   3.262   3.756   7.064  0.6010  0.6879  0.4135
   69MOL    C7523331   3.142   3.819   6.999  0.0038 -0.7475  0.2552
   69MOL    C7623332   3.131   3.946   7.081 -0.0314 -0.1792 -0.7707
   69MOL    O7723333   3.065   4.046   7.044 -1.0330  0.1204 -0.6762
   69MOL    H7823334   3.116   4.152   7.446  1.2068 -1.5417  0.4580
   69MOL    H7923335   3.027   4.152   7.314 -0.3632 -0.0572 -0.3902
   69MOL    H8023336   3.276   3.994   7.381 -0.2191 -1.0801 -0.1854
   69MOL    H8123337   3.373   3.829   7.226  0.2541  1.2529  3.0048
   69MOL    H8223338   3.234   3.737   7.279 -1.2142 -1.5400 -2.3962
   69MOL    H8323339   3.347   3.786   7.002  1.2737 -1.4497  0.2473
   69MOL    H8423340   3.284   3.649   7.070 -0.0495  0.5003 -0.4320
   69MOL    H8523341   3.149   3.838   6.892  2.4105  2.0855  0.8399
   69MOL    H8623342   3.057   3.755   7.023 -2.5356  1.7618 -1.6406
   69MOL    C8723343   3.284   4.154   7.242 -0.4449 -0.1233 -0.5667
   69MOL    C8823344   3.360   4.245   7.340 -0.5447 -0.3324 -0.3486
   69MOL    N8923345   3.500   4.191   7.359  0.2742 -0.1439  0.7369
   69MOL    C9023346   3.527   4.103   7.470  0.2007 -0.1394  0.1315
   69MOL    C9123347   3.678   4.061   7.469 -0.3821 -0.3506  0.4296
   69MOL    C9223348   3.741   4.160   7.369  0.0204  0.0973  0.2653
   69MOL    C9323349   3.617   4.226   7.302 -0.2620  0.7392 -0.0307
   69MOL    O9423350   3.625   4.306   7.208 -0.2265  0.4953  0.3920
   69MOL    H9523351   3.210   4.207   7.182 -1.2426 -1.5923 -0.8911
   69MOL    H9623352   3.360   4.114   7.174 -2.2765 -4.3986 -0.2260
   69MOL    H9723353   3.307   4.241   7.435  1.5600  0.5289  0.9070
   69MOL    H9823354   3.510   4.162   7.560  0.6543 -0.2592  0.2959
   69MOL    H9923355   3.469   4.011   7.466 -1.0073  0.6390 -0.7599
   69MOL   H10023356   3.735   4.060   7.562 -0.3474 -1.3948  0.4091
   69MOL   H10123357   3.672   3.958   7.434  2.1902 -0.0200 -1.1238
   69MOL   H10223358   3.796   4.238   7.421 -0.0234  1.4551 -1.6960
   69MOL   H10323359   3.801   4.114   7.291  2.0186 -2.5502  3.2428
   69MOL   C10423360   3.350   4.400   7.296 -0.6461  0.1699  0.2386
   69MOL   C10523361   3.207   4.460   7.327  0.1352  0.5584  0.5529
   69MOL   N10623362   3.184   4.483   7.474 -0.1708 -0.0547  0.2237
   69MOL   C10723363   3.063   4.439   7.541 -0.8752 -0.4862  0.0978
   69MOL   C10823364   3.057   4.515   7.674 -0.1875  0.2781 -0.3889
   69MOL   C10923365   3.198   4.573   7.690  0.0908 -0.1700 -0.0136
   69MOL   C11023366   3.264   4.549   7.559  0.5383 -0.0003  0.1196
   69MOL   O11123367   3.378   4.591   7.530 -0.0559  0.9097 -0.0961
   69MOL   H11223368   3.375   4.405   7.190  2.8402 -1.0185  0.9247
   69MOL   H11323369   3.422   4.471   7.338  0.1415 -0.1817 -0.5052
   69MOL   H11423370   3.133   4.391   7.286 -0.0958  0.8612  0.4557
   69MOL   H11523371   2.967   4.457   7.492 -0.1856  2.0217 -0.4004
   69MOL   H11623372   3.088   4.334   7.547  1.4222 -0.0403 -0.9105
   69MOL   H11723373   2.992   4.601   7.663  1.4555  1.4321 -1.2425
   69MOL   H11823374   3.030   4.454   7.760  2.7032  1.0770  1.1707
   69MOL   H11923375   3.258   4.518   7.763 -1.5237 -1.3338  0.4444
   69MOL   H12023376   3.186   4.678   7.718  0.7088 -0.0372 -0.2197
   69MOL   C12123377   3.187   4.590   7.239  0.3850 -0.3985 -0.2767
   69MOL   C12223378   3.156   4.573   7.086 -0.0408 -0.0434  1.0804
   69MOL   N12323379   3.014   4.525   7.062 -0.2309 -0.5904 -0.7335
   69MOL   C12423380   2.979   4.392   7.026 -0.1195 -0.7642 -0.2478
   69MOL   C12523381   2.836   4.363   7.073  0.2605  0.1786  0.2726
   69MOL   C12623382   2.785   4.513   7.087 -0.3202  0.3890  0.0043
   69MOL   C12723383   2.908   4.596   7.093  0.3999 -0.3925  0.8035
   69MOL   O12823384   2.904   4.715   7.132 -0.1572  0.5415 -0.0286
   69MOL   H12923385   3.276   4.650   7.257  0.4243 -1.2137  2.5581
   69MOL   H13023386   3.113   4.649   7.292  0.0545 -0.5904 -0.5210
   69MOL   H13123387   3.224   4.494   7.051 -0.7560  0.3659 -1.3595
   69MOL   H13223388   3.058   4.320   7.047  0.5683  1.2362  4.5768
   69MOL   H13323389   2.954   4.395   6.920 -0.5386 -2.6700 -0.2342
   69MOL   H13423390   2.775   4.306   7.002 -2.6645  1.3165  1.8322
   69MOL   H13523391   2.836   4.313   7.170 -4.3978 -1.5374 -0.5096
   69MOL   H13623392   2.723   4.544   7.002  1.6566 -2.1372 -2.4716
   69MOL   H13723393   2.724   4.523   7.177  2.5142  1.4632  1.8602
   69MOL   C13823394   3.187   4.706   7.018 -0.4483 -0.4996  0.6768
   69MOL   C13923395   3.339   4.741   6.993 -0.3158 -0.1335  0.4788
   69MOL   N14023396   3.401   4.658   6.888 -0.1743  0.1982  0.6541
   69MOL   C14123397   3.523   4.582   6.931 -0.1699  0.4056  0.0182
   69MOL   C14223398   3.594   4.548   6.800  0.1435 -0.5032 -0.4248
   69MOL   C14323399   3.487   4.574   6.687 -0.2071  0.3105  0.2502
   69MOL   C14423400   3.377   4.647   6.761  0.4868  0.4508  0.6003
   69MOL   O14523401   3.281   4.701   6.704  0.2461  0.2776  0.6415
   69MOL   H14623402   3.137   4.782   7.078 -1.7743 -0.4247 -0.4749
   69MOL   H14723403   3.139   4.714   6.920  0.7212  3.1911  0.3515
   69MOL   H14823404   3.384   4.721   7.090 -0.7982 -0.5319  0.6230
   69MOL   H14923405   3.596   4.630   6.996 -0.8515  2.2500 -0.5665
   69MOL   H15023406   3.493   4.495   6.989 -0.1477 -0.2623 -0.9639
   69MOL   H15123407   3.684   4.609   6.785  0.1896 -0.3976  0.2996
   69MOL   H15223408   3.629   4.445   6.792  3.8328  0.6876 -1.0829
   69MOL   H15323409   3.456   4.478   6.648  1.1967  0.0733 -0.3109
   69MOL   H15423410   3.532   4.640   6.612 -1.2970 -0.9539 -1.5580
   69MOL   C15523411   3.359   4.896   6.966  0.1726 -0.0865  0.5278
   69MOL   C15623412   3.393   4.977   7.091  0.1965  0.0513 -0.0389
   69MOL   N15723413   3.510   4.925   7.164 -0.4071 -0.5368 -0.9474
   69MOL   C15823414   3.495   4.881   7.307 -0.2032 -0.0983 -0.2386
   69MOL   C15923415   3.610   4.784   7.333 -0.2072 -0.2471 -0.3547
   69MOL   C16023416   3.710   4.809   7.221  0.0147  0.5903 -0.0331
   69MOL   C16123417   3.634   4.900   7.125 -1.0034 -0.1869 -0.0998
   69MOL   O16223418   3.685   4.935   7.018  0.1820  0.3617  0.1615
   69MOL   H16323419   3.271   4.937   6.916  1.8175  0.2564 -2.1901
   69MOL   H16423420   3.434   4.908   6.887 -0.6978  0.7473 -0.1850
   69MOL   H16523421   3.307   4.961   7.157  0.6404  1.7145  0.9653
   69MOL   H16623422   3.508   4.971   7.368 -0.4237 -0.4582  0.3451
   69MOL   H16723423   3.402   4.828   7.327 -2.1227  3.5948  1.0971
   69MOL   H16823424   3.671   4.816   7.417 -0.0394 -0.8187 -0.2622
   69MOL   H16923425   3.574   4.682   7.344  0.5193 -0.4391  0.2091
   69MOL   H17023426   3.795   4.864   7.262 -0.3531  1.5653 -0.5535
   69MOL   H17123427   3.741   4.722   7.164 -1.5609 -0.3053  0.4668
   69MOL   C17223428   3.415   5.127   7.055 -0.4318 -0.1260  0.1547
   69MOL   C17323429   3.283   5.218   7.048 -0.0239  0.7210  0.3040
   69MOL   N17423430   3.189   5.190   7.157  0.4216 -0.0293 -0.4461
   69MOL   C17523431   3.066   5.110   7.128  0.3167  0.9026  0.1703
   69MOL   C17623432   2.989   5.108   7.261  0.1368  0.3151  0.1469
   69MOL   C17723433   3.078   5.167   7.369 -0.3139 -0.0551 -0.0984
   69MOL   C17823434   3.204   5.210   7.286  0.5415 -0.3616 -0.4875
   69MOL   O17923435   3.308   5.248   7.336  0.3327 -0.7168 -0.8429
   69MOL   H18023436   3.471   5.141   6.963 -1.0672  0.5607 -0.1416
   69MOL   H18123437   3.486   5.165   7.129  1.3897 -0.6753 -1.2812
   69MOL   H18223438   3.227   5.204   6.956 -0.7707  3.3195  0.3369
   69MOL   H18323439   3.012   5.164   7.050 -1.6702  0.8720  1.4749
   69MOL   H18423440   3.097   5.013   7.090 -0.7639  0.3871  0.5953
   69MOL   H18523441   2.949   5.007   7.271 -0.1639  0.3471 -0.7138
   69MOL   H18623442   2.898   5.168   7.258  0.4333  0.7321 -0.4516
   69MOL   H18723443   3.038   5.256   7.418 -1.7906 -1.7680  1.8914
   69MOL   H18823444   3.108   5.089   7.439 -0.0370  0.5569  0.4666
   69MOL   C18923445   3.315   5.369   7.042 -0.2801  0.4873  0.6982
   69MOL   C19023446   3.410   5.416   6.927 -0.2380 -0.5552  0.5738
   69MOL   N19123447   3.345   5.425   6.795 -0.2780  0.1191  0.2192
   69MOL   C19223448   3.409   5.359   6.681  0.0177 -0.0196 -0.2517
   69MOL   C19323449   3.353   5.439   6.559  1.0421 -0.1910  0.3578
   69MOL   C19423450   3.237   5.523   6.606 -0.5740 -0.9878  0.8282
   69MOL   C19523451   3.252   5.513   6.757  0.4244  0.6629  0.3183
   69MOL   O19623452   3.187   5.582   6.828 -0.1731 -0.3112  0.0986
   69MOL   H19723453   3.366   5.406   7.131 -1.4928 -0.3111  1.7463
   69MOL   H19823454   3.227   5.431   7.034 -0.8960 -0.3634  0.7808
   69MOL   H19923455   3.489   5.342   6.915  0.8175  0.5764  0.4189
   69MOL   H20023456   3.513   5.386   6.696 -0.6088  0.6609  3.2165
   69MOL   H20123457   3.387   5.253   6.674 -2.6295  0.4085  0.9386
   69MOL   H20223458   3.428   5.493   6.503 -0.4214  2.8066  1.2010
   69MOL   H20323459   3.313   5.374   6.481 -0.8538  0.9636  0.3447
   69MOL   H20423460   3.253   5.628   6.578 -0.3641 -1.8211 -2.3325
   69MOL   H20523461   3.139   5.487   6.574 -0.4201 -0.2727 -0.4652
   69MOL   C20623462   3.482   5.550   6.949  0.7247  0.3394  0.3519
   69MOL   C20723463   3.600   5.546   7.049  0.0850 -0.3380 -0.0511
   69MOL   N20823464   3.712   5.458   7.009  0.3357  0.2710  0.5985
   69MOL   C20923465   3.749   5.352   7.103  0.3766 -0.4246  0.2536
   69MOL   C21023466   3.884   5.301   7.056 -0.4577 -0.0181 -0.2539
   69MOL   C21123467   3.903   5.357   6.915 -0.2340  0.0982  0.5107
   69MOL   C21223468   3.796   5.466   6.901  0.1482  0.4461 -1.2187
   69MOL   O21323469   3.786   5.548   6.814 -0.1568  0.3182  0.9759
   69MOL   H21423470   3.403   5.613   6.989 -0.4573 -1.2487  0.5388
   69MOL   H21523471   3.525   5.594   6.859 -0.5973  1.9133  0.4761
   69MOL   H21623472   3.555   5.507   7.141 -1.6340  1.9221  0.1010
   69MOL   H21723473   3.748   5.399   7.201 -0.5591 -0.1006  0.0936
   69MOL   H21823474   3.667   5.280   7.096  0.4057 -0.2498 -2.6236
   69MOL   H21923475   3.968   5.337   7.116  0.9790 -3.9032  0.2698
   69MOL   H22023476   3.897   5.193   7.061 -0.4049 -0.0056 -0.1276
   69MOL   H22123477   3.998   5.407   6.894 -0.8988  0.5645 -1.4319
   69MOL   H22223478   3.882   5.283   6.838 -0.4310  0.7869 -0.1062
   69MOL   C22323479   3.652   5.683   7.091 -1.2039 -0.4333  0.8656
   69MOL   C22423480   3.555   5.791   7.144  0.1043 -0.2769 -0.1652
   69MOL   N22523481   3.505   5.762   7.279 -0.6149 -0.4234  0.0588
   69MOL   C22623482   3.366   5.721   7.297  0.5694 -0.3538  0.8474
   69MOL   C22723483   3.345   5.731   7.446  0.1093 -0.0099  0.2269
   69MOL   C22823484   3.489   5.721   7.507 -0.1942  0.1467  0.3522
   69MOL   C22923485   3.577   5.758   7.393  0.3550  0.7612  0.3229
   69MOL   O23023486   3.696   5.776   7.412  0.3160 -0.2714 -0.4300
   69MOL   H23123487   3.695   5.727   7.001  1.5570 -2.7049  0.9819
   69MOL   H23223488   3.733   5.668   7.163  1.4277 -1.7144 -2.2128
   69MOL   H23323489   3.467   5.775   7.083 -0.0490 -0.3808  0.0829
   69MOL   H23423490   3.301   5.793   7.246  0.9412  0.2115  1.1675
   69MOL   H23523491   3.353   5.620   7.257  0.5492 -0.6028  1.4887
   69MOL   H23623492   3.299   5.826   7.475 -3.0708 -0.7473 -2.1540
   69MOL   H23723493   3.270   5.662   7.486  0.4877 -0.8052 -0.4164
   69MOL   H23823494   3.513   5.798   7.580 -0.2670 -0.6514  1.2351
   69MOL   H23923495   3.517   5.618   7.529  1.1440  0.5102  0.3460
   69MOL   C24023496   3.609   5.939   7.133 -0.3310  0.6520 -0.6040
   69MOL   C24123497   3.629   5.987   6.990  0.5506  0.1601 -0.3801
   69MOL   N24223498   3.515   5.959   6.904  0.7740 -0.7079  0.3600
   69MOL   C24323499   3.540   5.902   6.777  0.3985  0.3434  0.3894
   69MOL   C24423500   3.405   5.857   6.726 -0.0016 -0.8029  0.2839
   69MOL   C24523501   3.302   5.949   6.798 -0.3336  0.4348  0.0545
   69MOL   C24623502   3.382   5.993   6.916 -0.1548 -0.1138  0.0033
   69MOL   O24723503   3.330   6.039   7.015  0.4576 -0.5779 -0.4127
   69MOL   H24823504   3.693   5.944   7.201 -2.0244  2.0592  1.4301
   69MOL   H24923505   3.539   6.005   7.184 -0.1562 -0.1023  0.6303
   69MOL   H25023506   3.714   5.939   6.942  0.9980  1.3001 -0.7338
   69MOL   H25123507   3.576   5.984   6.715 -0.7753  0.3400 -0.3139
   69MOL   H25223508   3.617   5.825   6.780  0.0851  0.0506  1.1472
   69MOL   H25323509   3.400   5.858   6.617 -0.9957 -0.5458  0.3264
   69MOL   H25423510   3.390   5.754   6.759 -1.3649 -0.1422  1.7745
   69MOL   H25523511   3.274   6.038   6.740 -2.3115 -0.2496 -0.0819
   69MOL   H25623512   3.202   5.909   6.816 -0.8392  1.6522  0.0334
   69MOL   C25723513   3.666   6.144   6.989  0.5401 -0.4191  0.0385
   69MOL   C25823514   3.810   6.165   7.032 -0.3008 -1.0229 -0.0671
   69MOL   N25923515   3.915   6.100   6.943 -0.3387 -0.1408  0.3782
   69MOL   C26023516   4.025   6.033   7.004 -0.9545  0.6322  0.0021
   69MOL   C26123517   4.112   5.979   6.889  0.3943 -0.4757 -0.3781
   69MOL   C26223518   4.053   6.041   6.760 -0.0043  0.1964 -0.7688
   69MOL   C26323519   3.921   6.105   6.810 -0.6891  0.0477  0.6325
   69MOL   O26423520   3.830   6.137   6.729  0.0910 -0.3215  0.2810
   69MOL   H26523521   3.593   6.201   7.047 -1.6334 -2.4055 -0.6418
   69MOL   H26623522   3.645   6.181   6.888 -0.2990  0.4472  0.5186
   69MOL   H26723523   3.824   6.121   7.130 -1.7166  0.0709  0.6432
   69MOL   H26823524   4.079   6.083   7.084 -1.2158 -0.9952  1.2304
   69MOL   H26923525   3.975   5.947   7.048  0.7669  0.2787  1.3135
   69MOL   H27023526   4.213   6.016   6.904  0.2631  0.1926 -1.1526
   69MOL   H27123527   4.109   5.870   6.883 -0.4623 -0.4563 -0.4336
   69MOL   H27223528   4.124   6.112   6.717  1.9895 -1.1039  0.3156
   69MOL   H27323529   4.028   5.970   6.681 -0.4129  0.2279 -0.6661
   69MOL   C27423530   3.840   6.312   7.049  0.4162 -0.3725  0.1140
   69MOL   C27523531   3.768   6.384   7.166  0.2041 -0.1375  0.1907
   69MOL   N27623532   3.791   6.314   7.298 -0.4374 -0.1934 -0.3250
   69MOL   C27723533   3.671   6.258   7.366  0.3519 -0.0606  0.6929
   69MOL   C27823534   3.720   6.163   7.472  0.1326  0.4604 -0.2654
   69MOL   C27923535   3.874   6.176   7.476  0.2637  0.3411  1.1448
   69MOL   C28023536   3.905   6.261   7.352  0.5000 -0.1133  0.4972
   69MOL   O28123537   4.019   6.276   7.303 -0.2137  0.2773 -0.5970
   69MOL   H28223538   3.825   6.370   6.957  0.7215  2.5074  1.8049
   69MOL   H28323539   3.947   6.316   7.071 -0.0174 -2.1148  2.7489
   69MOL   H28423540   3.662   6.392   7.141  1.0637  3.0053 -2.9661
   69MOL   H28523541   3.604   6.337   7.400  0.0031 -0.4551  0.9265
   69MOL   H28623542   3.613   6.193   7.300  2.6152  0.5562 -1.9896
   69MOL   H28723543   3.667   6.183   7.565 -4.4570 -2.1263 -2.1422
   69MOL   H28823544   3.693   6.059   7.450 -0.2630  0.6536 -0.6866
   69MOL   H28923545   3.898   6.239   7.562  1.5043 -0.1356  1.1616
   69MOL   H29023546   3.929   6.082   7.485  0.6302  0.1556 -2.5743
   69MOL   C29123547   3.828   6.530   7.177  0.2516 -0.1765  0.5259
   69MOL   C29223548   3.749   6.628   7.270  0.1848  0.6967  0.3893
   69MOL   N29323549   3.815   6.761   7.259 -0.3070 -0.0307  0.1976
   69MOL   C29423550   3.821   6.843   7.138 -0.1371  0.0012 -0.0575
   69MOL   C29523551   3.950   6.918   7.163  0.2170 -0.2494  0.1821
   69MOL   C29623552   3.973   6.929   7.313 -0.4234  0.0448 -0.2429
   69MOL   C29723553   3.887   6.810   7.361  0.3273 -0.5381  0.2011
   69MOL   O29823554   3.904   6.758   7.472 -0.3789 -0.1807 -0.1685
   69MOL   H29923555   3.833   6.560   7.073 -1.3542 -1.4583  0.0624
   69MOL   H30023556   3.933   6.525   7.206  0.3015  4.1689  1.4704
   69MOL   H30123557   3.758   6.593   7.373 -0.0863 -0.0075  0.1734
   69MOL   H30223558   3.820   6.791   7.042 -0.9872  0.8287 -0.5018
   69MOL   H30323559   3.735   6.910   7.142 -1.1491 -1.3742  3.4723
   69MOL   H30423560   4.033   6.882   7.104 -0.4772 -0.2340 -0.8188
   69MOL   H30523561   3.943   7.020   7.125  0.2415 -0.3572 -0.1109
   69MOL   H30623562   4.075   6.908   7.345  0.1567  2.5292 -0.3401
   69MOL   H30723563   3.922   7.009   7.367 -0.9518  0.1083 -0.8209
   69MOL   C30823564   3.596   6.642   7.226  0.1925  0.0523  0.3071
   69MOL   C30923565   3.495   6.621   7.336  0.1368  0.3828 -0.7492
   69MOL   N31023566   3.543   6.678   7.460 -0.8564 -0.2034 -0.6690
   69MOL   C31123567   3.561   6.601   7.582  0.7538  0.7626  0.4383
   69MOL   C31223568   3.575   6.699   7.698 -0.5857  0.3727 -0.1571
   69MOL   C31323569   3.589   6.835   7.634  0.2432 -0.5017  0.1994
   69MOL   C31423570   3.557   6.807   7.491 -0.4039 -0.7948  0.7457
   69MOL   O31523571   3.555   6.893   7.402 -0.2773  0.1606  0.3487
   69MOL   H31623572   3.573   6.572   7.146  2.3826 -1.0555  0.6270
   69MOL   H31723573   3.585   6.745   7.192  2.0271  0.2380  0.2361
   69MOL   H31823574   3.494   6.512   7.346 -0.6556  0.6432  2.5665
   69MOL   H31923575   3.471   6.541   7.596  1.3865 -0.9077 -2.1595
   69MOL   H32023576   3.648   6.536   7.565 -0.6365 -0.7938 -1.0083
   69MOL   H32123577   3.497   6.698   7.774 -0.8165  0.8754 -0.3876
   69MOL   H32223578   3.669   6.686   7.753 -0.0033 -1.1687 -1.4598
   69MOL   H32323579   3.503   6.898   7.656  0.2738 -0.6468  0.7483
   69MOL   H32423580   3.685   6.881   7.657  0.2353 -0.8676  0.9845
   69MOL   C32523581   3.351   6.663   7.300  0.0399 -0.2696  0.6757
   69MOL   C32623582   3.235   6.644   7.397  0.0784 -0.4876  0.5658
   69MOL   N32723583   3.218   6.743   7.497 -0.7282 -0.2568 -0.1605
   69MOL   C32823584   3.204   6.707   7.638 -0.3838 -0.2286  0.0205
   69MOL   C32923585   3.230   6.838   7.701 -0.4943  0.4326  0.1828
   69MOL   C33023586   3.197   6.947   7.609  0.8154 -0.4766  0.3303
   69MOL   C33123587   3.193   6.874   7.477  0.8183  0.4856 -0.2853
   69MOL   O33223588   3.170   6.932   7.372  0.3889  0.1938 -0.1397
   69MOL   H33323589   3.326   6.620   7.203  0.4845  1.9255 -0.4431
   69MOL   H33423590   3.351   6.768   7.270  0.6837 -0.8059 -1.2836
   69MOL   H33523591   3.237   6.541   7.430  0.1500 -0.5156  0.4730
   69MOL   H33623592   3.107   6.663   7.664 -0.4320  1.2506  2.4493
   69MOL   H33723593   3.270   6.626   7.668 -0.7369  0.0094  1.4667
   69MOL   H33823594   3.163   6.842   7.788 -0.5672 -1.5884  0.2382
   69MOL   H33923595   3.329   6.849   7.746 -0.4943 -0.9353  0.5345
   69MOL   H34023596   3.094   6.978   7.627  1.2900  1.1179  0.3845
   69MOL   H34123597   3.249   7.042   7.625 -0.2624  0.3066 -0.6635
   69MOL   H34223598   3.144   6.647   7.336  0.3958 -0.9235  0.0700
   70MOL     C123599   5.661   6.840   1.571  0.1550 -0.1611 -0.1826
   70MOL     C223600   5.560   6.798   1.466 -0.3188 -0.6376  0.2241
   70MOL     N323601   5.599   6.853   1.333 -0.2734  0.6984  0.4129
   70MOL     C423602   5.524   6.963   1.276 -0.2566  0.0271 -0.7427
   70MOL     C523603   5.604   7.013   1.156  0.1904  0.0908 -0.2003
   70MOL     C623604   5.727   6.921   1.143  0.4217  0.5980 -0.4866
   70MOL     C723605   5.699   6.814   1.253 -0.6243 -0.4100  0.2332
   70MOL     O823606   5.776   6.718   1.265  0.0386  0.3812  0.4402
   70MOL     H923607   5.739   6.766   1.588  0.6127  0.5608  0.9128
   70MOL    H1023608   5.714   6.925   1.528  0.3254 -0.0350  0.2762
   70MOL    H1123609   5.461   6.842   1.481  1.0941  2.5951  0.3650
   70MOL    H1223610   5.421   6.940   1.248  0.3807 -3.0544 -0.7035
   70MOL    H1323611   5.529   7.039   1.354 -2.5075  1.3855 -1.8728
   70MOL    H1423612   5.542   7.013   1.067  0.5949  0.5976 -0.4849
   70MOL    H1523613   5.643   7.115   1.162 -0.9224  0.5816 -1.1965
   70MOL    H1623614   5.732   6.868   1.047 -1.0297 -0.5715  0.0667
   70MOL    H1723615   5.814   6.983   1.163 -0.5702  2.8744 -2.9150
   70MOL    H1823616   5.622   6.881   1.665 -1.2149 -1.4619 -0.1622
   70MOL    C1923617   5.540   6.642   1.457 -0.2915  0.2141 -0.3413
   70MOL    C2023618   5.462   6.583   1.578 -0.0188 -0.6112  0.0848
   70MOL    N2123619   5.391   6.464   1.547  0.5951  0.1182 -0.3324
   70MOL    C2223620   5.249   6.440   1.585 -0.2692 -0.2265  0.3249
   70MOL    C2323621   5.232   6.293   1.562  0.4387  0.4783 -0.4830
   70MOL    C2423622   5.347   6.237   1.489  0.2617  0.0583 -0.4519
   70MOL    C2523623   5.446   6.351   1.492  0.0953 -0.6786  0.5225
   70MOL    O2623624   5.561   6.337   1.451 -0.1848 -0.4929  0.0473
   70MOL    H2723625   5.632   6.585   1.456 -2.1091 -2.9253  1.6881
   70MOL    H2823626   5.475   6.622   1.372 -0.8417  0.4455  0.0131
   70MOL    H2923627   5.387   6.658   1.606 -0.8357 -0.9874 -1.0970
   70MOL    H3023628   5.227   6.469   1.688  0.1693  0.3393  0.2634
   70MOL    H3123629   5.188   6.505   1.522  0.4034 -0.0236 -0.1258
   70MOL    H3223630   5.216   6.222   1.643  1.0282 -1.0357 -1.6632
   70MOL    H3323631   5.138   6.283   1.508 -0.3426 -0.4865  1.0270
   70MOL    H3423632   5.398   6.151   1.532 -1.6511 -1.7027 -1.6484
   70MOL    H3523633   5.321   6.216   1.385 -0.5927 -0.9704 -0.0231
   70MOL    C3623634   5.559   6.560   1.703 -0.3899 -0.4597  0.2879
   70MOL    C3723635   5.497   6.552   1.840  0.3676  0.0184 -0.0113
   70MOL    N3823636   5.592   6.500   1.941  0.0657  0.0150  0.5230
   70MOL    C3923637   5.573   6.361   1.981 -0.5590  0.3382 -0.0303
   70MOL    C4023638   5.693   6.326   2.069  0.9607  0.0822  0.0218
   70MOL    C4123639   5.757   6.458   2.102  0.0673  0.1060 -1.1200
   70MOL    C4223640   5.692   6.559   2.006  0.3594 -0.0554  0.4715
   70MOL    O4323641   5.722   6.679   1.999 -0.0285  0.2394 -0.0822
   70MOL    H4423642   5.626   6.646   1.714 -2.3513  0.8575  2.1814
   70MOL    H4523643   5.619   6.472   1.679  0.5425  0.4533 -0.8047
   70MOL    H4623644   5.410   6.486   1.830 -0.4269  0.9467  0.6615
   70MOL    H4723645   5.477   6.339   2.028 -0.1324 -0.0572  0.6707
   70MOL    H4823646   5.562   6.294   1.896  1.3921  1.4347 -1.1780
   70MOL    H4923647   5.673   6.257   2.151 -0.4506 -0.1518 -0.5089
   70MOL    H5023648   5.769   6.269   2.015  1.9219 -0.5588  2.0157
   70MOL    H5123649   5.731   6.481   2.205  0.6215 -1.5039 -0.6114
   70MOL    H5223650   5.865   6.463   2.094  0.1638  0.6756  0.5024
   70MOL    C5323651   5.441   6.686   1.888 -0.4527 -0.1848 -0.0786
   70MOL    C5423652   5.350   6.676   2.017 -0.2928  0.1835  0.6879
   70MOL    N5523653   5.394   6.754   2.134 -0.0864  0.1796  0.0269
   70MOL    C5623654   5.439   6.892   2.120  0.2479 -0.4169 -0.0130
   70MOL    C5723655   5.441   6.946   2.259 -0.0601  0.4461  0.8467
   70MOL    C5823656   5.448   6.832   2.351 -0.3465  0.0983  0.7709
   70MOL    C5923657   5.415   6.709   2.254 -0.6456 -0.3561  0.5481
   70MOL    O6023658   5.400   6.594   2.301 -0.4664  0.1379  0.9176
   70MOL    H6123659   5.383   6.725   1.805 -1.3596 -1.3901 -0.0083
   70MOL    H6223660   5.512   6.769   1.892  0.1028 -0.4305 -3.6954
   70MOL    H6323661   5.340   6.571   2.042  0.1796 -0.2133 -0.7863
   70MOL    H6423662   5.537   6.907   2.074  0.4736  0.3838  0.7134
   70MOL    H6523663   5.366   6.941   2.055 -0.2773 -0.7925  0.2897
   70MOL    H6623664   5.513   7.027   2.262 -0.3293  0.6836  0.9816
   70MOL    H6723665   5.348   6.992   2.292 -0.6620 -0.8552  0.9859
   70MOL    H6823666   5.552   6.820   2.382  0.4100  1.5543 -1.0948
   70MOL    H6923667   5.379   6.837   2.436  0.2696  1.4906  1.2131
   70MOL    C7023668   5.208   6.722   1.989  0.5063  0.4669  0.7880
   70MOL    C7123669   5.105   6.627   2.060  0.0733 -0.1126 -0.4703
   70MOL    N7223670   4.984   6.699   2.083 -0.5466 -0.1377  0.5661
   70MOL    C7323671   4.957   6.757   2.209  0.5004  0.0958 -1.1501
   70MOL    C7423672   4.814   6.822   2.195 -0.7125 -0.5200 -0.4920
   70MOL    C7523673   4.796   6.837   2.046 -0.2597 -0.0570 -0.4248
   70MOL    C7623674   4.900   6.741   1.988 -0.6992 -0.8803  0.3635
   70MOL    O7723675   4.918   6.719   1.867  0.3043 -0.6071 -0.1060
   70MOL    H7823676   5.182   6.730   1.884 -0.1842 -0.5993  0.8716
   70MOL    H7923677   5.187   6.828   2.007 -0.0627  0.3681  0.7221
   70MOL    H8023678   5.145   6.597   2.157 -0.7055 -2.6629 -0.8902
   70MOL    H8123679   4.963   6.679   2.285  0.6513  1.6433  0.4671
   70MOL    H8223680   5.036   6.831   2.216  0.2497  0.4522 -2.1453
   70MOL    H8323681   4.742   6.762   2.250 -1.3011  0.2193 -0.4513
   70MOL    H8423682   4.818   6.915   2.251  1.7686 -0.5409 -0.5690
   70MOL    H8523683   4.699   6.793   2.027 -0.1532 -0.5871  0.2125
   70MOL    H8623684   4.794   6.939   2.008  0.6872 -0.5319 -1.8049
   70MOL    C8723685   5.088   6.488   1.983  0.3206  0.2021  0.7400
   70MOL    C8823686   4.967   6.401   2.024 -0.4460 -0.3702 -0.5982
   70MOL    N8923687   4.956   6.280   1.937  0.1034  0.4199 -0.9760
   70MOL    C9023688   4.837   6.271   1.849  0.0505 -0.1883  0.1687
   70MOL    C9123689   4.870   6.158   1.750  1.0669 -0.7169  0.1204
   70MOL    C9223690   4.996   6.087   1.798  0.0977 -0.0699  0.5161
   70MOL    C9323691   5.045   6.176   1.917  0.3962  0.8034  0.1584
   70MOL    O9423692   5.153   6.153   1.979 -0.1297  0.4696  0.2473
   70MOL    H9523693   5.176   6.426   1.998  0.3998 -0.0654 -0.7839
   70MOL    H9623694   5.087   6.497   1.874  2.4265  2.1216  0.8491
   70MOL    H9723695   4.878   6.459   2.004  0.7076  1.1310 -1.5129
   70MOL    H9823696   4.757   6.237   1.915  0.0705 -0.4742  0.0480
   70MOL    H9923697   4.823   6.369   1.804 -1.6708  0.2238  1.5545
   70MOL   H10023698   4.795   6.078   1.746  1.7818 -1.3887  0.2091
   70MOL   H10123699   4.885   6.206   1.653  0.8011 -1.9093 -0.5131
   70MOL   H10223700   4.980   5.984   1.827  2.2860 -0.1340  1.5402
   70MOL   H10323701   5.070   6.073   1.720 -0.5943  0.7954 -0.3127
   70MOL   C10423702   4.957   6.363   2.179  0.7808  0.0621  0.0874
   70MOL   C10523703   4.855   6.250   2.219 -0.4542  0.0454  0.0746
   70MOL   N10623704   4.917   6.126   2.251  0.7081  0.4725  0.9031
   70MOL   C10723705   4.871   6.005   2.184  1.0068 -0.1711  0.3160
   70MOL   C10823706   4.936   5.891   2.262 -0.0278 -0.1990  0.0479
   70MOL   C10923707   5.047   5.958   2.344 -0.1445  0.5802  0.3077
   70MOL   C11023708   5.006   6.099   2.345  0.0567 -0.1991 -0.3062
   70MOL   O11123709   5.054   6.178   2.430  0.0895 -0.1804 -0.0130
   70MOL   H11223710   4.936   6.454   2.236  1.5968 -1.1852  2.4313
   70MOL   H11323711   5.057   6.335   2.209  0.5760 -0.1920  0.5239
   70MOL   H11423712   4.789   6.240   2.134  1.4068 -0.7258 -1.3194
   70MOL   H11523713   4.762   6.000   2.192  0.9585  0.4268  0.0617
   70MOL   H11623714   4.908   6.017   2.082 -0.4141 -1.4136 -0.3763
   70MOL   H11723715   4.858   5.840   2.319  1.3841 -2.9190 -0.3281
   70MOL   H11823716   4.969   5.804   2.205  0.4511 -2.5852  3.7923
   70MOL   H11923717   5.142   5.950   2.291 -0.1158  0.1508  0.4248
   70MOL   H12023718   5.047   5.928   2.448  2.2200 -1.1727 -0.1570
   70MOL   C12123719   4.758   6.297   2.331  0.2836 -0.7844 -0.0141
   70MOL   C12223720   4.631   6.385   2.296  0.3229  0.1170  0.5505
   70MOL   N12323721   4.553   6.317   2.193 -0.3132  0.0863 -0.9065
   70MOL   C12423722   4.505   6.186   2.224 -0.3682  1.1808  0.0267
   70MOL   C12523723   4.464   6.126   2.089 -0.5115  0.2350  0.8388
   70MOL   C12623724   4.460   6.246   1.993 -0.1272  0.2950 -0.3919
   70MOL   C12723725   4.547   6.350   2.061  0.0219 -0.6106  0.4007
   70MOL   O12823726   4.604   6.455   2.015  0.6745 -0.0358 -0.0857
   70MOL   H12923727   4.815   6.348   2.409 -1.1494 -0.9899  1.1815
   70MOL   H13023728   4.728   6.215   2.396  1.8174 -0.3210  1.3202
   70MOL   H13123729   4.676   6.475   2.256  0.9300 -0.3059  0.2679
   70MOL   H13223730   4.414   6.186   2.283 -1.1720 -1.1559 -1.1237
   70MOL   H13323731   4.573   6.122   2.281  0.6056  2.5528  0.4271
   70MOL   H13423732   4.552   6.077   2.049  0.2205 -0.0443  2.7324
   70MOL   H13523733   4.380   6.056   2.082 -0.8289  0.4592  2.2333
   70MOL   H13623734   4.512   6.231   1.898 -0.8534  0.8059 -0.8801
   70MOL   H13723735   4.360   6.287   1.975 -0.7866 -0.1558  2.0644
   70MOL   C13823736   4.547   6.422   2.429  0.0762  0.5868 -0.3100
   70MOL   C13923737   4.413   6.496   2.403 -0.0591 -0.3331 -0.3346
   70MOL   N14023738   4.319   6.481   2.518 -0.3069 -0.4542 -0.8464
   70MOL   C14123739   4.237   6.362   2.524 -0.1397 -0.2611  0.1481
   70MOL   C14223740   4.167   6.367   2.663  0.2180  0.5713  0.9211
   70MOL   C14323741   4.194   6.512   2.709  0.5087  0.8715  0.1357
   70MOL   C14423742   4.294   6.564   2.620 -0.6748  0.5816 -0.2456
   70MOL   O14523743   4.352   6.673   2.648 -0.3560  0.3152  0.1688
   70MOL   H14623744   4.610   6.481   2.495 -0.3621  0.6457  0.0558
   70MOL   H14723745   4.541   6.324   2.476 -0.6886  0.2326 -1.1087
   70MOL   H14823746   4.365   6.449   2.317  0.6360 -0.1007 -0.8540
   70MOL   H14923747   4.169   6.365   2.438  0.0588  1.3197  0.0347
   70MOL   H15023748   4.298   6.273   2.513 -0.6473 -0.2968 -2.8601
   70MOL   H15123749   4.059   6.353   2.656  0.1760 -0.0167  2.5049
   70MOL   H15223750   4.214   6.295   2.729  0.5619 -0.6008 -0.5883
   70MOL   H15323751   4.236   6.511   2.809  0.6813  0.4137  0.0613
   70MOL   H15423752   4.112   6.582   2.694 -0.2548  0.1283  0.7658
   70MOL   C15523753   4.437   6.638   2.346  0.3321  0.3569 -0.0027
   70MOL   C15623754   4.318   6.673   2.257  0.2262  0.6319 -0.1577
   70MOL   N15723755   4.309   6.824   2.246  0.0455  0.5308 -0.1792
   70MOL   C15823756   4.199   6.897   2.310  0.9195  0.0145 -0.0731
   70MOL   C15923757   4.211   7.039   2.248 -0.3284  0.4266  0.0299
   70MOL   C16023758   4.355   7.056   2.198 -0.0766 -0.3979  0.1500
   70MOL   C16123759   4.400   6.908   2.186 -0.3701 -0.1009 -0.2575
   70MOL   O16223760   4.502   6.877   2.139  0.6417 -0.1400 -0.0632
   70MOL   H16323761   4.531   6.634   2.291  1.0487 -1.6604  1.3169
   70MOL   H16423762   4.443   6.708   2.429 -1.6715  1.1915 -0.5298
   70MOL   H16523763   4.227   6.640   2.306 -0.9366  0.5596 -2.3247
   70MOL   H16623764   4.096   6.867   2.290 -0.1533  1.5900  2.8004
   70MOL   H16723765   4.197   6.912   2.418 -0.5041 -2.6609  0.3192
   70MOL   H16823766   4.136   7.044   2.168  0.2293 -2.8891 -0.7587
   70MOL   H16923767   4.178   7.120   2.313  0.8589  1.5494 -0.7374
   70MOL   H17023768   4.360   7.106   2.101 -0.2712 -1.0940 -0.2257
   70MOL   H17123769   4.415   7.127   2.255  0.5534 -1.0629  0.3275
   70MOL   C17223770   4.302   6.616   2.116 -0.2834 -0.1294  0.3377
   70MOL   C17323771   4.189   6.672   2.022 -0.0452 -0.7618 -0.5001
   70MOL   N17423772   4.226   6.649   1.879  0.2880  0.1635  0.2514
   70MOL   C17523773   4.296   6.754   1.812  0.5296 -0.3747  0.0042
   70MOL   C17623774   4.359   6.689   1.691 -0.2996  0.3370 -0.0702
   70MOL   C17723775   4.329   6.540   1.696 -0.0720  0.3387  0.5803
   70MOL   C17823776   4.241   6.526   1.819  0.3006  0.2440  0.7477
   70MOL   O17923777   4.188   6.421   1.858 -0.2475  0.1336 -0.1578
   70MOL   H18023778   4.302   6.508   2.111  0.3264 -0.1034 -0.3031
   70MOL   H18123779   4.398   6.646   2.073 -0.3692  0.1697  0.3516
   70MOL   H18223780   4.188   6.781   2.034 -1.7564 -0.7093 -1.0386
   70MOL   H18323781   4.215   6.823   1.787 -0.4926 -1.6736 -0.2789
   70MOL   H18423782   4.365   6.797   1.884  0.8078 -0.2858 -0.3121
   70MOL   H18523783   4.466   6.705   1.702  0.0371 -0.6222 -1.8062
   70MOL   H18623784   4.330   6.735   1.596  2.1661  1.5923 -0.2610
   70MOL   H18723785   4.270   6.508   1.611  1.2656  2.2960 -1.1238
   70MOL   H18823786   4.412   6.471   1.705 -0.4579 -0.3849 -1.3182
   70MOL   C18923787   4.049   6.615   2.037 -0.2617 -0.3189  0.1807
   70MOL   C19023788   3.937   6.676   1.948  0.1693 -0.3519 -0.3395
   70MOL   N19123789   3.891   6.590   1.840  0.5358  0.1915 -0.2828
   70MOL   C19223790   3.915   6.625   1.699 -0.2336  0.0989  0.5074
   70MOL   C19323791   3.855   6.519   1.612 -0.0916  0.7232 -0.5634
   70MOL   C19423792   3.749   6.451   1.704 -0.6211  0.1020  0.6172
   70MOL   C19523793   3.806   6.483   1.843 -0.5764 -0.1866  0.3199
   70MOL   O19623794   3.776   6.424   1.942  0.2082  0.1665  0.1617
   70MOL   H19723795   4.023   6.638   2.140  1.0878  0.0323  0.4487
   70MOL   H19823796   4.042   6.507   2.039  2.0197 -0.6045 -2.7489
   70MOL   H19923797   3.974   6.768   1.903  0.0021  0.8262  1.8710
   70MOL   H20023798   3.861   6.718   1.688 -0.5400 -0.0937  0.4060
   70MOL   H20123799   4.021   6.648   1.684  0.0968 -0.6319  1.6229
   70MOL   H20223800   3.823   6.549   1.512 -0.0560 -0.6825 -0.9941
   70MOL   H20323801   3.929   6.441   1.598 -0.0641  0.2539  1.9811
   70MOL   H20423802   3.655   6.504   1.689  0.0817  0.9435 -0.9040
   70MOL   H20523803   3.745   6.344   1.681 -0.4907 -0.1844  1.8964
   70MOL   C20623804   3.823   6.719   2.042 -0.0565  0.1848  0.0647
   70MOL   C20723805   3.716   6.797   1.969 -0.2157 -0.3472  0.8993
   70MOL   N20823806   3.584   6.771   2.025  0.5093 -0.1390  0.2930
   70MOL   C20923807   3.477   6.716   1.942 -0.7029  0.1739  0.5500
   70MOL   C21023808   3.345   6.736   2.022 -0.9395  0.1781  0.8454
   70MOL   C21123809   3.393   6.737   2.166  0.8247  0.2225  0.0854
   70MOL   C21223810   3.545   6.767   2.155 -0.1679  0.2077  0.5177
   70MOL   O21323811   3.618   6.780   2.247  0.4321  0.9086 -0.2484
   70MOL   H21423812   3.856   6.776   2.128  1.4102 -1.5283  0.6551
   70MOL   H21523813   3.783   6.631   2.091  0.2393  0.5314  0.9286
   70MOL   H21623814   3.711   6.761   1.866  1.2236  3.7132 -0.6943
   70MOL   H21723815   3.475   6.771   1.848  1.5114  1.1318  1.0282
   70MOL   H21823816   3.500   6.613   1.916 -0.2049  0.3763  0.1682
   70MOL   H21923817   3.300   6.835   2.021  0.8702  1.0169  0.1466
   70MOL   H22023818   3.267   6.664   1.995 -1.1787  1.4199 -1.8555
   70MOL   H22123819   3.345   6.819   2.219  0.5925  0.0802  0.0941
   70MOL   H22223820   3.394   6.644   2.222  0.4916  0.4577  0.4836
   70MOL   C22323821   3.756   6.943   1.961  0.7681  0.6664  0.0062
   70MOL   C22423822   3.696   7.020   1.846 -0.7066 -0.2869  0.2015
   70MOL   N22523823   3.731   7.164   1.859 -0.3797  1.0239 -0.2437
   70MOL   C22623824   3.637   7.244   1.928 -0.1688  0.0460 -0.6285
   70MOL   C22723825   3.718   7.371   1.957 -0.1343  0.2069 -0.4776
   70MOL   C22823826   3.849   7.361   1.883  0.0709  0.3482 -0.5701
   70MOL   C22923827   3.851   7.215   1.847 -0.2263 -0.4911  0.1473
   70MOL   O23023828   3.945   7.164   1.790 -0.0608 -0.4134 -0.0332
   70MOL   H23123829   3.865   6.936   1.962  0.7108 -0.5255 -0.8539
   70MOL   H23223830   3.714   6.981   2.054  0.1972 -1.6972  0.7306
   70MOL   H23323831   3.588   7.014   1.859 -0.8901 -0.8073 -1.3552
   70MOL   H23423832   3.556   7.276   1.862  0.0784  1.8524 -0.0728
   70MOL   H23523833   3.582   7.205   2.013 -1.6224 -1.4637 -2.2184
   70MOL   H23623834   3.656   7.452   1.919  1.0346  1.0632 -0.5893
   70MOL   H23723835   3.730   7.377   2.065 -2.3929  0.1096 -0.2054
   70MOL   H23823836   3.835   7.421   1.793  2.0378 -0.5892 -1.5264
   70MOL   H23923837   3.930   7.401   1.945  0.7429 -2.4148  0.3850
   70MOL   C24023838   3.720   6.978   1.700 -0.6221 -0.1779  0.4594
   70MOL   C24123839   3.635   7.050   1.599 -0.6834 -0.0307  0.7490
   70MOL   N24223840   3.657   6.990   1.460 -0.6228 -0.0933 -0.0756
   70MOL   C24323841   3.704   7.079   1.359 -0.2366  0.0578 -0.5439
   70MOL   C24423842   3.737   6.983   1.244  0.5443  0.6078 -0.1677
   70MOL   C24523843   3.637   6.872   1.259 -0.2167 -0.2266  0.0896
   70MOL   C24623844   3.626   6.867   1.408 -0.3238 -0.5445  0.7517
   70MOL   O24723845   3.595   6.775   1.476  0.2096  0.3024  0.0219
   70MOL   H24823846   3.694   6.873   1.689  0.7426 -0.3389 -1.4945
   70MOL   H24923847   3.825   6.968   1.673 -0.7718  1.7680 -1.0098
   70MOL   H25023848   3.661   7.155   1.593  0.8109 -0.4519 -0.6926
   70MOL   H25123849   3.627   7.148   1.326 -0.1001 -0.9194 -3.0410
   70MOL   H25223850   3.794   7.133   1.387  0.7633 -1.5951 -0.5093
   70MOL   H25323851   3.726   7.029   1.146 -1.1928  1.1140  0.2413
   70MOL   H25423852   3.841   6.954   1.258  0.0452 -1.2677 -0.2839
   70MOL   H25523853   3.542   6.891   1.210 -0.1915 -0.8659 -0.2103
   70MOL   H25623854   3.679   6.775   1.231 -1.1416 -1.3226  2.3981
   70MOL   C25723855   3.485   7.053   1.641 -0.4358 -0.1307 -0.1563
   70MOL   C25823856   3.370   7.084   1.537 -0.9070  0.6326 -0.3292
   70MOL   N25923857   3.240   7.045   1.598  0.1308 -1.1040 -0.1003
   70MOL   C26023858   3.182   6.921   1.546  0.5746 -0.3098  0.8734
   70MOL   C26123859   3.068   6.887   1.634  0.0983  0.0878 -0.6991
   70MOL   C26223860   3.044   7.011   1.715  0.1870 -0.3147  0.3798
   70MOL   C26323861   3.168   7.097   1.702  0.3509 -0.3705  1.5592
   70MOL   O26423862   3.194   7.195   1.775 -0.4801  0.2058 -0.4152
   70MOL   H26523863   3.474   7.128   1.720  2.5517  0.0388  0.1378
   70MOL   H26623864   3.462   6.958   1.690 -0.3252 -1.5310 -2.7674
   70MOL   H26723865   3.390   7.017   1.453  0.6571  1.1616 -0.3918
   70MOL   H26823866   3.136   6.933   1.448 -0.3633  1.2638  1.4938
   70MOL   H26923867   3.260   6.846   1.531  0.5003 -0.3868  0.8754
   70MOL   H27023868   2.974   6.854   1.590 -0.7844  1.3512  0.1948
   70MOL   H27123869   3.099   6.809   1.703 -0.7444 -2.2637 -2.8898
   70MOL   H27223870   2.965   7.071   1.670  1.1692  1.6002  1.1403
   70MOL   H27323871   3.022   6.995   1.821  0.2548 -0.4500  0.3731
   70MOL   C27423872   3.374   7.234   1.495  0.2951  0.3546 -0.3783
   70MOL   C27523873   3.281   7.248   1.365 -0.5058 -0.1199 -0.8779
   70MOL   N27623874   3.243   7.390   1.353  0.0717  0.5255  0.1330
   70MOL   C27723875   3.340   7.482   1.295 -0.2098  0.0037 -0.5266
   70MOL   C27823876   3.265   7.617   1.301  0.6616  0.1920  1.0186
   70MOL   C27923877   3.122   7.589   1.361 -0.2683  0.1802  0.6750
   70MOL   C28023878   3.127   7.443   1.399 -0.3437 -0.3587 -0.5477
   70MOL   O28123879   3.044   7.378   1.467  0.2266 -0.1411  0.3588
   70MOL   H28223880   3.474   7.275   1.486 -0.0949  1.3795 -0.0814
   70MOL   H28323881   3.326   7.304   1.563  1.2365  0.5762  0.0597
   70MOL   H28423882   3.190   7.193   1.388  0.7034 -1.4738  0.9073
   70MOL   H28523883   3.428   7.491   1.358 -1.3011  0.3283  0.9796
   70MOL   H28623884   3.373   7.453   1.196 -0.2651  0.8613 -0.8035
   70MOL   H28723885   3.319   7.687   1.364 -1.2047  2.5060  0.1484
   70MOL   H28823886   3.247   7.662   1.203  0.5429 -0.9627  0.5028
   70MOL   H28923887   3.103   7.649   1.450 -1.6773  2.2352 -0.9374
   70MOL   H29023888   3.042   7.611   1.289  1.5277 -3.0192 -2.4975
   70MOL   C29123889   3.327   7.181   1.237  0.3489 -0.4568 -0.6978
   70MOL   C29223890   3.215   7.171   1.130 -0.8083 -0.0656 -0.1467
   70MOL   N29323891   3.271   7.177   0.995  0.4458  0.2473 -0.1806
   70MOL   C29423892   3.267   7.294   0.910 -0.1680  0.1523 -0.1755
   70MOL   C29523893   3.371   7.273   0.793 -0.0276 -0.3335 -0.2545
   70MOL   C29623894   3.432   7.134   0.822  0.7651  0.0781  0.1554
   70MOL   C29723895   3.362   7.089   0.952 -0.4389  0.4214  0.2987
   70MOL   O29823896   3.396   6.982   1.006 -0.8800  0.1754 -0.1776
   70MOL   H29923897   3.372   7.082   1.251 -0.2192 -0.7484 -0.9018
   70MOL   H30023898   3.410   7.233   1.190  0.5408  0.3275  0.4925
   70MOL   H30123899   3.157   7.263   1.127  1.7387  1.5549 -2.1074
   70MOL   H30223900   3.167   7.313   0.871 -0.2158  0.2263 -0.0158
   70MOL   H30323901   3.295   7.389   0.955  1.2013 -0.7340  0.8950
   70MOL   H30423902   3.328   7.290   0.695 -0.2080 -0.0515 -0.1271
   70MOL   H30523903   3.454   7.344   0.804 -0.3925  0.0636 -0.0539
   70MOL   H30623904   3.406   7.060   0.745 -0.7450 -0.1014  0.8177
   70MOL   H30723905   3.540   7.145   0.829  0.9593 -1.0180 -0.7929
   70MOL   C30823906   3.126   7.051   1.148 -0.2793  0.3220 -0.1099
   70MOL   C30923907   3.022   7.019   1.036  0.1414 -0.5384  0.2353
   70MOL   N31023908   2.953   6.894   1.067 -0.7253  0.5073 -0.0498
   70MOL   C31123909   2.984   6.776   0.992  0.2275 -0.0700  0.1827
   70MOL   C31223910   2.913   6.659   1.063 -0.3133  0.1445  0.1383
   70MOL   C31323911   2.843   6.720   1.180 -0.5766  0.0748 -0.7398
   70MOL   C31423912   2.889   6.861   1.186 -0.4120 -0.1630  0.6741
   70MOL   O31523913   2.865   6.932   1.282  0.6055  0.0239 -0.2076
   70MOL   H31623914   3.075   7.067   1.243  1.7842 -0.8915  1.2428
   70MOL   H31723915   3.185   6.960   1.160  0.9819  1.0204 -0.9354
   70MOL   H31823916   3.077   6.995   0.945  2.1607  2.0298  0.7307
   70MOL   H31923917   2.957   6.788   0.887  0.1101  1.2335  0.3436
   70MOL   H32023918   3.091   6.763   1.004  0.4518  0.1953 -1.3689
   70MOL   H32123919   2.835   6.624   0.995  0.9284 -2.4734  0.0149
   70MOL   H32223920   2.965   6.566   1.084  1.3965  1.3405  1.3942
   70MOL   H32323921   2.741   6.725   1.141 -1.1033 -1.6476  0.3130
   70MOL   H32423922   2.848   6.657   1.269  2.6417 -1.5091 -1.9751
   70MOL   C32523923   2.921   7.128   1.001  0.7771  0.4704  0.8953
   70MOL   C32623924   2.849   7.087   0.865 -0.3298  1.2404 -0.2378
   70MOL   N32723925   2.876   7.195   0.765  0.1739  0.0661  0.2395
   70MOL   C32823926   2.779   7.298   0.737 -0.1885 -0.0121  0.2270
   70MOL   C32923927   2.838   7.388   0.634  0.7059 -0.1619  0.7599
   70MOL   C33023928   2.949   7.308   0.573  0.4211  0.6463 -0.1400
   70MOL   C33123929   2.957   7.186   0.666 -0.0870  0.4850  0.2017
   70MOL   O33223930   3.039   7.092   0.652 -0.3092 -0.0088  0.3644
   70MOL   H33323931   2.967   7.227   0.998  1.5197  0.1138  0.2545
   70MOL   H33423932   2.847   7.139   1.081 -0.0375  0.0858  0.1993
   70MOL   H33523933   2.741   7.084   0.880 -0.2251 -2.5229  0.1217
   70MOL   H33623934   2.682   7.262   0.703  0.5787  0.1471 -2.2160
   70MOL   H33723935   2.755   7.359   0.824  3.4053  0.3402  1.0569
   70MOL   H33823936   2.773   7.428   0.556  0.1030 -2.0758  0.2678
   70MOL   H33923937   2.878   7.471   0.693 -0.7628  0.1449  1.3504
   70MOL   H34023938   2.920   7.271   0.474 -2.1088 -1.0032  1.1545
   70MOL   H34123939   3.038   7.371   0.568  0.8387 -0.0034 -1.1270
   70MOL   H34223940   2.884   6.988   0.836  1.7278  1.2204  2.1455
   71MOL     C123941   6.626   3.576   5.897  0.5032 -0.1985  0.5254
   71MOL     C223942   6.499   3.585   5.818  0.1520 -0.0152  0.4242
   71MOL     N323943   6.388   3.635   5.898  0.2757  0.2596 -0.8447
   71MOL     C423944   6.244   3.587   5.877 -0.4544 -0.2351  0.7461
   71MOL     C523945   6.160   3.688   5.956 -0.4096 -0.2951 -0.0278
   71MOL     C623946   6.249   3.799   6.006  0.3499  0.6529 -0.4716
   71MOL     C723947   6.387   3.752   5.969 -0.2598 -0.0789  0.0939
   71MOL     O823948   6.485   3.835   5.982  0.7011  0.4343 -0.0819
   71MOL     H923949   6.708   3.525   5.846 -0.5240  0.4936 -1.8829
   71MOL    H1023950   6.673   3.669   5.929  1.5480 -0.7824  0.7049
   71MOL    H1123951   6.466   3.482   5.809  0.6853 -0.4726  3.3311
   71MOL    H1223952   6.212   3.591   5.773 -1.3235 -0.6240  0.9955
   71MOL    H1323953   6.221   3.487   5.913 -0.3549  0.6558  3.3751
   71MOL    H1423954   6.077   3.713   5.891 -0.6240 -1.5854 -0.2718
   71MOL    H1523955   6.110   3.642   6.042 -1.8304 -0.1650 -0.7686
   71MOL    H1623956   6.233   3.885   5.941  0.7094  1.7743  0.9111
   71MOL    H1723957   6.233   3.826   6.110 -0.7575 -1.0174 -0.1858
   71MOL    H1823958   6.610   3.509   5.981  0.1260 -2.6898 -1.4713
   71MOL    C1923959   6.500   3.648   5.675 -0.5048  0.6536 -0.0881
   71MOL    C2023960   6.583   3.571   5.568  0.7230 -0.1391  0.1736
   71MOL    N2123961   6.554   3.430   5.553  0.2740  0.2856  0.9435
   71MOL    C2223962   6.663   3.329   5.568  0.1447  0.6939 -0.3839
   71MOL    C2323963   6.603   3.199   5.496 -0.3794 -0.4272  0.6474
   71MOL    C2423964   6.451   3.220   5.480  0.1780  0.1475 -0.7590
   71MOL    C2523965   6.440   3.368   5.516 -0.0825 -0.2678 -0.1068
   71MOL    O2623966   6.331   3.421   5.508 -0.5068 -0.4912  0.5822
   71MOL    H2723967   6.551   3.744   5.674  0.8460 -0.0635 -0.4563
   71MOL    H2823968   6.403   3.684   5.640 -2.2893 -1.6929  2.2112
   71MOL    H2923969   6.688   3.581   5.595  0.6352  1.8379 -0.0959
   71MOL    H3023970   6.757   3.371   5.533  0.8143  1.0840  1.8182
   71MOL    H3123971   6.667   3.327   5.676 -1.1758  1.2342 -0.3111
   71MOL    H3223972   6.642   3.196   5.394 -0.3406 -1.6534  0.6849
   71MOL    H3323973   6.627   3.106   5.548  1.0920 -0.8655 -0.7756
   71MOL    H3423974   6.408   3.199   5.382  0.1289 -0.2316 -0.6547
   71MOL    H3523975   6.405   3.163   5.561  1.6009 -1.7474 -1.2830
   71MOL    C3623976   6.583   3.643   5.427 -0.7930  0.0458 -0.2038
   71MOL    C3723977   6.620   3.786   5.388 -0.8153 -0.2384 -0.1639
   71MOL    N3823978   6.747   3.824   5.458 -0.6023 -0.4774 -0.6247
   71MOL    C3923979   6.752   3.939   5.542  0.4733 -0.1021 -0.8076
   71MOL    C4023980   6.895   3.967   5.594 -0.2596  0.1362  0.1218
   71MOL    C4123981   6.970   3.853   5.535  0.6407  0.4601 -0.2284
   71MOL    C4223982   6.874   3.784   5.440 -0.4893 -0.3556 -0.6191
   71MOL    O4323983   6.915   3.711   5.353  0.4248  0.0934 -0.0774
   71MOL    H4423984   6.480   3.625   5.397 -0.9856 -0.3801  0.6848
   71MOL    H4523985   6.651   3.576   5.374 -0.8219  0.7319 -1.1211
   71MOL    H4623986   6.545   3.856   5.423  0.6038  1.2696 -0.0741
   71MOL    H4723987   6.710   4.029   5.499  2.2618  0.1003 -2.2090
   71MOL    H4823988   6.690   3.911   5.627  2.9470 -1.2411  0.7058
   71MOL    H4923989   6.927   4.068   5.567 -0.3345 -0.3210 -1.7409
   71MOL    H5023990   6.882   3.955   5.701 -0.8209 -1.8253 -0.1545
   71MOL    H5123991   7.059   3.886   5.481  0.0997 -1.0240 -2.0933
   71MOL    H5223992   6.993   3.787   5.618 -2.5771  0.5960  0.8231
   71MOL    C5323993   6.632   3.806   5.235  0.4363  0.0310  0.1437
   71MOL    C5423994   6.509   3.759   5.156 -0.3648 -0.0958  0.1963
   71MOL    N5523995   6.398   3.849   5.172  0.1975 -0.0575  0.0400
   71MOL    C5623996   6.275   3.791   5.221 -0.5392 -0.7897 -0.5204
   71MOL    C5723997   6.178   3.907   5.241 -0.0979 -0.0647 -0.1936
   71MOL    C5823998   6.250   4.024   5.184  0.4617  0.6534  0.2561
   71MOL    C5923999   6.386   3.976   5.145 -0.5638  0.4537 -0.2363
   71MOL    O6024000   6.480   4.048   5.113  0.4968 -0.0286 -0.4561
   71MOL    H6124001   6.727   3.765   5.202 -1.1277 -0.2754 -4.2673
   71MOL    H6224002   6.646   3.912   5.214  0.3946 -0.1321 -0.7507
   71MOL    H6324003   6.482   3.661   5.196  1.6793  0.1825  2.3563
   71MOL    H6424004   6.245   3.725   5.140  2.7145 -0.4594 -2.0592
   71MOL    H6524005   6.308   3.741   5.312 -0.8587  1.1594  0.6884
   71MOL    H6624006   6.082   3.887   5.194  0.6912 -0.9603 -1.4551
   71MOL    H6724007   6.161   3.924   5.347 -1.0484 -0.0251 -0.3496
   71MOL    H6824008   6.207   4.055   5.089  0.9200  1.5456  0.3320
   71MOL    H6924009   6.264   4.106   5.254 -0.2232  0.3914  0.6996
   71MOL    C7024010   6.551   3.747   5.012  0.6334  0.0716 -0.2619
   71MOL    C7124011   6.632   3.618   4.968  0.6379 -0.5902 -0.5438
   71MOL    N7224012   6.546   3.502   4.977  0.4545 -0.4102 -0.0571
   71MOL    C7324013   6.571   3.404   5.079  0.2424 -0.4102 -0.2869
   71MOL    C7424014   6.468   3.294   5.064  0.1882 -0.0928 -0.4422
   71MOL    C7524015   6.374   3.341   4.956  0.9966  0.1298 -0.1211
   71MOL    C7624016   6.435   3.470   4.904 -0.2702  0.4085 -0.0346
   71MOL    O7724017   6.383   3.539   4.809  0.1445 -0.3144  0.2141
   71MOL    H7824018   6.591   3.844   4.983  0.0881  0.3444 -0.1076
   71MOL    H7924019   6.455   3.750   4.960  0.1107 -2.4412  0.4716
   71MOL    H8024020   6.723   3.616   5.027 -1.7411  0.8588  3.4070
   71MOL    H8124021   6.672   3.371   5.058  0.4986  0.6560 -0.7751
   71MOL    H8224022   6.565   3.446   5.179 -0.8436  1.5744 -1.1503
   71MOL    H8324023   6.520   3.203   5.034  0.1883 -0.7837  1.5604
   71MOL    H8424024   6.423   3.268   5.160  0.9738  0.9319  0.2110
   71MOL    H8524025   6.365   3.264   4.880 -0.4549  0.4577 -0.2969
   71MOL    H8624026   6.278   3.367   5.001  0.4368 -0.3220 -1.0611
   71MOL    C8724027   6.680   3.636   4.823  1.2062  0.4167 -0.4621
   71MOL    C8824028   6.791   3.733   4.804 -0.3868 -0.2970 -0.3985
   71MOL    N8924029   6.916   3.685   4.865  0.7212  0.3919  0.0933
   71MOL    C9024030   6.984   3.753   4.973  0.1261  0.2412  0.0286
   71MOL    C9124031   7.115   3.673   4.995  0.4319 -0.1750 -0.2789
   71MOL    C9224032   7.109   3.548   4.902 -0.9109 -0.0238 -1.2179
   71MOL    C9324033   6.978   3.568   4.828  0.5705  0.3087  0.0787
   71MOL    O9424034   6.946   3.496   4.741 -0.0035  0.0423 -0.2770
   71MOL    H9524035   6.592   3.657   4.762  0.4538 -1.2123  0.0184
   71MOL    H9624036   6.714   3.537   4.793  1.2985 -0.0882  1.2184
   71MOL    H9724037   6.771   3.833   4.843  1.5963  0.8657 -2.2677
   71MOL    H9824038   7.004   3.858   4.948 -0.7180 -0.0627 -2.0703
   71MOL    H9924039   6.929   3.755   5.067 -0.7231 -0.8647 -0.4335
   71MOL   H10024040   7.200   3.739   4.980 -0.1316  1.1204  1.9654
   71MOL   H10124041   7.127   3.633   5.096 -1.0647 -2.7667 -1.0802
   71MOL   H10224042   7.190   3.539   4.830 -0.4708 -0.3314 -0.6970
   71MOL   H10324043   7.108   3.456   4.960  5.3794  0.6063  0.3253
   71MOL   C10424044   6.813   3.766   4.657 -0.2845  0.0008 -0.4697
   71MOL   C10524045   6.703   3.845   4.593 -0.1821 -0.4341  0.0671
   71MOL   N10624046   6.689   3.972   4.659 -0.0490  0.2159 -0.1661
   71MOL   C10724047   6.549   4.000   4.685 -0.5207 -1.2804 -0.0353
   71MOL   C10824048   6.542   4.147   4.724  0.6812 -0.4082 -0.2555
   71MOL   C10924049   6.687   4.189   4.750  0.0192 -0.3231  0.0940
   71MOL   C11024050   6.767   4.075   4.693 -0.5021 -1.1209 -0.0960
   71MOL   O11124051   6.888   4.074   4.672 -0.1368 -0.1607 -0.1411
   71MOL   H11224052   6.835   3.675   4.601 -1.5011  0.4816 -1.7401
   71MOL   H11324053   6.906   3.818   4.634 -2.0482  3.2420 -0.6701
   71MOL   H11424054   6.606   3.795   4.604 -0.7356  0.2997 -1.3329
   71MOL   H11524055   6.487   3.988   4.596  0.5786 -0.6490 -0.9128
   71MOL   H11624056   6.507   3.947   4.770 -2.2352  1.3423  0.8090
   71MOL   H11724057   6.492   4.207   4.649  0.6238 -0.2298 -0.0741
   71MOL   H11824058   6.472   4.157   4.807  0.9752  1.4312 -0.2101
   71MOL   H11924059   6.693   4.181   4.858 -0.7231  0.0135  0.1598
   71MOL   H12024060   6.715   4.284   4.705 -1.9144 -0.2654 -1.0198
   71MOL   C12124061   6.711   3.855   4.439 -0.2316 -0.1298 -0.0453
   71MOL   C12224062   6.692   3.720   4.369  0.3992 -0.4822 -0.7737
   71MOL   N12324063   6.572   3.643   4.411 -0.0528  0.1732 -0.0871
   71MOL   C12424064   6.595   3.510   4.469 -0.4719  0.6591 -0.6456
   71MOL   C12524065   6.456   3.466   4.509  1.0544  0.0927  0.7429
   71MOL   C12624066   6.362   3.584   4.486 -0.1834  0.0965 -0.1933
   71MOL   C12724067   6.445   3.690   4.424 -0.4560  0.5685 -0.6858
   71MOL   O12824068   6.393   3.790   4.380 -0.0533  0.1928 -0.4426
   71MOL   H12924069   6.800   3.906   4.403 -0.9672  0.7633 -0.6091
   71MOL   H13024070   6.632   3.920   4.401  0.1506  0.5719  0.3535
   71MOL   H13124071   6.772   3.649   4.386  0.2230 -0.3257  0.7277
   71MOL   H13224072   6.657   3.523   4.558  0.6288  0.7887 -1.4240
   71MOL   H13324073   6.650   3.437   4.410 -1.5895 -0.6794 -0.0556
   71MOL   H13424074   6.437   3.387   4.437  2.0187  0.9118 -0.4280
   71MOL   H13524075   6.456   3.425   4.610 -4.0028  1.3485  1.3824
   71MOL   H13624076   6.283   3.541   4.424 -0.1708  0.5918 -0.5528
   71MOL   H13724077   6.316   3.616   4.580 -0.3230 -3.0924  0.9185
   71MOL   C13824078   6.690   3.729   4.207 -0.0170 -0.1615 -0.2232
   71MOL   C13924079   6.813   3.811   4.144  0.5194 -0.1761  0.6356
   71MOL   N14024080   6.942   3.785   4.209  0.0369  0.2321  0.4843
   71MOL   C14124081   7.035   3.893   4.230  0.6733  0.6235  0.5587
   71MOL   C14224082   7.160   3.816   4.250 -0.4775  0.3202  0.4792
   71MOL   C14324083   7.132   3.672   4.281 -0.1249 -0.3462 -0.1814
   71MOL   C14424084   6.997   3.660   4.217  0.1339  0.4652 -0.7196
   71MOL   O14524085   6.945   3.552   4.193  0.2064  0.1512  0.5506
   71MOL   H14624086   6.590   3.765   4.179 -0.3203  0.2661  1.3563
   71MOL   H14724087   6.683   3.626   4.171  1.5346  0.0395 -1.1360
   71MOL   H14824088   6.779   3.915   4.145 -1.9970 -0.9674  0.8119
   71MOL   H14924089   7.034   3.956   4.141 -0.8994 -0.1479  0.0002
   71MOL   H15024090   7.013   3.966   4.308 -1.0959 -0.8189  1.4389
   71MOL   H15124091   7.216   3.816   4.156 -1.3732 -1.4380 -0.0676
   71MOL   H15224092   7.225   3.867   4.321 -0.4901  1.4991 -0.3335
   71MOL   H15324093   7.144   3.646   4.386 -0.6880  4.2980  1.1788
   71MOL   H15424094   7.204   3.603   4.238  0.5829  0.8749 -1.0037
   71MOL   C15524095   6.816   3.787   3.982 -0.1751 -0.5155 -1.2003
   71MOL   C15624096   6.684   3.835   3.913  0.0998  0.3915  0.0104
   71MOL   N15724097   6.676   3.986   3.890  0.1210  0.4990  1.0069
   71MOL   C15824098   6.553   4.055   3.932 -0.0929  0.3000  0.4392
   71MOL   C15924099   6.577   4.205   3.917  0.1542  0.4015 -0.4857
   71MOL   C16024100   6.730   4.212   3.915 -0.1737 -0.5276 -0.1575
   71MOL   C16124101   6.776   4.078   3.875  0.5529  0.0276 -0.1121
   71MOL   O16224102   6.891   4.059   3.850  0.2983  0.2320 -0.3223
   71MOL   H16324103   6.827   3.680   3.963 -1.7368 -1.0281  0.6466
   71MOL   H16424104   6.907   3.829   3.939  0.4978  0.0237  0.7047
   71MOL   H16524105   6.594   3.810   3.969 -0.5545  1.6744 -0.4548
   71MOL   H16624106   6.462   4.037   3.875 -1.4236  1.2184  2.2102
   71MOL   H16724107   6.531   4.023   4.034 -1.1794 -0.3507  0.0082
   71MOL   H16824108   6.545   4.245   3.821 -1.2501 -0.4071 -0.3658
   71MOL   H16924109   6.516   4.251   3.995 -2.4256 -0.9614 -1.6467
   71MOL   H17024110   6.766   4.290   3.848  0.5572 -1.1227 -0.4586
   71MOL   H17124111   6.765   4.233   4.016 -1.4562 -2.3870  0.6968
   71MOL   C17224112   6.650   3.755   3.787 -0.0486  0.5737 -0.0019
   71MOL   C17324113   6.622   3.603   3.793  0.4479  0.4953  0.1157
   71MOL   N17424114   6.549   3.560   3.909  0.2366  0.3975 -0.3947
   71MOL   C17524115   6.601   3.451   3.991  0.3050 -0.1578 -0.4043
   71MOL   C17624116   6.496   3.428   4.101  0.1406 -0.1492 -0.0660
   71MOL   C17724117   6.390   3.526   4.083 -0.6549  0.5656 -0.4628
   71MOL   C17824118   6.425   3.597   3.954 -0.4964 -0.6381 -0.5027
   71MOL   O17924119   6.351   3.680   3.898 -0.7477  0.5606  0.4723
   71MOL   H18024120   6.731   3.766   3.715 -1.5991  1.2772 -1.6860
   71MOL   H18124121   6.563   3.803   3.743 -0.6984 -0.5145  0.0707
   71MOL   H18224122   6.725   3.566   3.791  0.7153  1.2328  0.1106
   71MOL   H18324123   6.607   3.362   3.928  0.6934 -1.2972  1.2058
   71MOL   H18424124   6.698   3.472   4.036 -1.0183  2.7553  1.2393
   71MOL   H18524125   6.538   3.445   4.200 -1.4720 -1.0092  0.7933
   71MOL   H18624126   6.468   3.323   4.094 -0.6395 -0.0579  1.4722
   71MOL   H18724127   6.288   3.489   4.088 -0.2924 -0.4111 -0.1827
   71MOL   H18824128   6.396   3.597   4.165 -0.5408  1.0471 -0.8811
   71MOL   C18924129   6.550   3.558   3.669  0.8271  0.4941  0.3896
   71MOL   C19024130   6.494   3.413   3.660 -0.0777 -0.3324 -0.0239
   71MOL   N19124131   6.389   3.407   3.557 -1.0884  0.0177  0.2248
   71MOL   C19224132   6.256   3.348   3.590 -0.0133 -0.3688  0.1729
   71MOL   C19324133   6.177   3.384   3.464  0.3994  0.2595 -0.4881
   71MOL   C19424134   6.279   3.396   3.351 -0.3538  0.0150 -0.0476
   71MOL   C19524135   6.409   3.422   3.427 -0.1526 -0.3127 -0.3787
   71MOL   O19624136   6.518   3.446   3.374  0.1838 -0.3017 -0.3030
   71MOL   H19724137   6.603   3.589   3.578  2.9202 -0.7792  1.1439
   71MOL   H19824138   6.463   3.623   3.673  0.1445 -0.5236  2.7046
   71MOL   H19924139   6.437   3.402   3.753  0.0030 -2.5177 -0.2188
   71MOL   H20024140   6.259   3.241   3.613 -2.9051 -0.2591  1.2438
   71MOL   H20124141   6.206   3.409   3.665  1.8724  0.9458  0.3910
   71MOL   H20224142   6.087   3.328   3.437  0.1478  1.7243 -2.8210
   71MOL   H20324143   6.137   3.485   3.471 -2.3064 -0.8372  1.0380
   71MOL   H20424144   6.283   3.301   3.297 -0.6090 -1.6940  2.8192
   71MOL   H20524145   6.244   3.472   3.281  2.2073 -0.3887 -1.8193
   71MOL   C20624146   6.606   3.306   3.648  0.2255  0.7184 -0.2338
   71MOL   C20724147   6.551   3.162   3.673  0.0443  0.0793 -0.2217
   71MOL   N20824148   6.647   3.055   3.623 -0.2856 -0.4954  0.1218
   71MOL   C20924149   6.608   2.964   3.519 -0.2918 -0.2983  0.1842
   71MOL   C21024150   6.726   2.861   3.502  0.0618 -0.1904 -0.3584
   71MOL   C21124151   6.838   2.922   3.594 -0.2599 -0.1506  0.1693
   71MOL   C21224152   6.772   3.037   3.672 -0.4069  0.2443 -0.0442
   71MOL   O21324153   6.818   3.093   3.767 -0.1780 -0.5005  0.4799
   71MOL   H21424154   6.690   3.314   3.715  1.5657 -0.1123 -1.7772
   71MOL   H21524155   6.648   3.311   3.547 -1.9746  2.1684 -1.1243
   71MOL   H21624156   6.463   3.150   3.609 -0.8624  3.6321  0.2192
   71MOL   H21724157   6.511   2.917   3.532 -0.3766 -0.0238  0.5476
   71MOL   H21824158   6.591   3.027   3.432  1.9712 -2.1868 -1.6811
   71MOL   H21924159   6.700   2.766   3.550  0.7003  1.4569  3.4380
   71MOL   H22024160   6.758   2.858   3.397  1.2316 -0.6942 -0.0015
   71MOL   H22124161   6.868   2.866   3.681 -0.6971 -0.2533  0.2545
   71MOL   H22224162   6.917   2.967   3.534 -0.8803 -0.3572 -0.8168
   71MOL   C22324163   6.526   3.136   3.821 -0.3714  0.6275  0.2558
   71MOL   C22424164   6.466   2.993   3.845  0.0417  0.0722 -0.1218
   71MOL   N22524165   6.493   2.948   3.983  0.0824 -1.1249 -0.3693
   71MOL   C22624166   6.592   2.853   4.006  0.6770 -0.4646  0.1556
   71MOL   C22724167   6.643   2.875   4.148 -0.5533 -0.1954 -0.0916
   71MOL   C22824168   6.527   2.953   4.216 -0.4197 -0.4294  0.2841
   71MOL   C22924169   6.445   2.998   4.098  0.4017  0.3138  0.0141
   71MOL   O23024170   6.361   3.084   4.091 -0.0753 -0.8102  0.4880
   71MOL   H23124171   6.443   3.194   3.861  1.1349  1.5991  2.0491
   71MOL   H23224172   6.613   3.159   3.882 -0.8809  0.6693  0.9682
   71MOL   H23324173   6.518   2.926   3.778  0.1799  0.4529 -0.3956
   71MOL   H23424174   6.552   2.752   4.003 -0.0471 -0.2246  1.3041
   71MOL   H23524175   6.672   2.863   3.933  1.0085  1.6890  0.7775
   71MOL   H23624176   6.672   2.783   4.198 -1.1849 -0.5151 -0.3081
   71MOL   H23724177   6.727   2.944   4.155  1.2169 -2.4739  2.2304
   71MOL   H23824178   6.465   2.881   4.270  0.4283 -1.0974  0.3936
   71MOL   H23924179   6.547   3.032   4.289 -2.1895 -0.5129  0.8885
   71MOL   C24024180   6.316   2.967   3.809 -0.0504 -0.5221  0.0924
   71MOL   C24124181   6.273   2.818   3.820 -0.3400  0.0398 -0.3958
   71MOL   N24224182   6.131   2.816   3.865 -0.1369 -0.8561  0.3504
   71MOL   C24324183   6.111   2.799   4.014  0.7357  0.2862 -0.1749
   71MOL   C24424184   5.959   2.828   4.038 -0.5765 -0.3956  0.1925
   71MOL   C24524185   5.899   2.828   3.898 -0.4898  0.0557  0.3559
   71MOL   C24624186   6.017   2.837   3.800 -0.6392 -0.7401  0.0737
   71MOL   O24724187   5.997   2.858   3.681  0.2788  0.4058 -0.1707
   71MOL   H24824188   6.294   3.010   3.711 -0.9777  0.8974  0.9015
   71MOL   H24924189   6.245   3.021   3.871 -1.8873 -0.1742 -2.2570
   71MOL   H25024190   6.315   2.767   3.907 -0.2747 -0.7306 -0.8768
   71MOL   H25124191   6.127   2.695   4.041  0.0481 -0.3203 -1.9925
   71MOL   H25224192   6.181   2.859   4.072  0.3228 -0.8345  1.5232
   71MOL   H25324193   5.902   2.759   4.101  0.4677 -1.2253  0.2493
   71MOL   H25424194   5.948   2.935   4.054 -0.3033 -0.4375  0.6630
   71MOL   H25524195   5.838   2.743   3.867  1.3872  0.0883 -3.7503
   71MOL   H25624196   5.839   2.919   3.894  0.4704  0.6445 -1.1143
   71MOL   C25724197   6.294   2.748   3.683 -0.8951  0.0603 -0.3632
   71MOL   C25824198   6.272   2.591   3.667  0.1041 -1.4546  0.1593
   71MOL   N25924199   6.314   2.558   3.534  0.3841 -0.1494  0.0836
   71MOL   C26024200   6.207   2.553   3.434  0.3873  0.9731  0.5372
   71MOL   C26124201   6.279   2.514   3.302  0.9267  0.3537  0.2188
   71MOL   C26224202   6.426   2.492   3.337  0.4200  0.0260  0.7380
   71MOL   C26324203   6.438   2.533   3.486  1.0599 -1.2591  0.2418
   71MOL   O26424204   6.549   2.552   3.541 -0.0398 -0.3097 -0.1809
   71MOL   H26524205   6.399   2.757   3.653 -0.2599 -1.2328  1.3931
   71MOL   H26624206   6.234   2.802   3.610 -0.2433 -0.7346 -1.5163
   71MOL   H26724207   6.164   2.574   3.668 -0.2787  0.7711  1.4402
   71MOL   H26824208   6.142   2.472   3.465  0.6385  0.3253 -0.5917
   71MOL   H26924209   6.146   2.642   3.418 -2.0457 -0.9105 -1.1269
   71MOL   H27024210   6.228   2.432   3.251  0.4445  2.1187 -2.2522
   71MOL   H27124211   6.266   2.589   3.223 -0.3339 -0.9118 -0.8107
   71MOL   H27224212   6.431   2.386   3.316  0.4158  0.5213 -1.9883
   71MOL   H27324213   6.498   2.549   3.279 -0.3047 -0.5480 -0.7421
   71MOL   C27424214   6.350   2.511   3.775  0.4652  0.1569 -0.1115
   71MOL   C27524215   6.268   2.445   3.891 -0.2606 -0.3637  0.0940
   71MOL   N27624216   6.152   2.367   3.843 -0.4377  0.1996 -0.0794
   71MOL   C27724217   6.030   2.382   3.918 -0.0044 -0.0645  0.0052
   71MOL   C27824218   5.948   2.253   3.887  0.1576  0.0639 -0.1605
   71MOL   C27924219   6.008   2.212   3.747  0.1973  0.1169  0.7868
   71MOL   C28024220   6.149   2.268   3.755 -0.1523 -0.5590  0.6104
   71MOL   O28124221   6.250   2.226   3.689 -0.0402  0.1768 -0.2122
   71MOL   H28224222   6.428   2.573   3.820 -1.0697  0.7727  1.7392
   71MOL   H28324223   6.410   2.433   3.729  0.9858  0.2587  0.3939
   71MOL   H28424224   6.235   2.527   3.955  0.5302 -0.7417  1.0006
   71MOL   H28524225   6.041   2.389   4.026  0.1629  3.9018 -0.1831
   71MOL   H28624226   5.985   2.474   3.880  2.5338  0.7985 -1.0260
   71MOL   H28724227   5.964   2.178   3.964  0.4661  0.3425  0.0476
   71MOL   H28824228   5.841   2.267   3.878  0.0682 -0.5114 -0.0129
   71MOL   H28924229   5.993   2.105   3.733 -2.8152  0.2797  2.4287
   71MOL   H29024230   5.957   2.265   3.667 -2.0207 -0.6239  1.6949
   71MOL   C29124231   6.349   2.347   3.983 -0.2680  0.0226  0.0453
   71MOL   C29224232   6.439   2.412   4.084 -0.3684 -0.0545  0.8425
   71MOL   N29324233   6.365   2.471   4.195  0.5931  0.3289 -0.4704
   71MOL   C29424234   6.366   2.614   4.217 -0.1341  0.2615  0.1504
   71MOL   C29524235   6.267   2.647   4.329  0.6235 -0.5471 -0.8923
   71MOL   C29624236   6.243   2.509   4.391  0.8127  0.1372  0.2811
   71MOL   C29724237   6.308   2.403   4.298  0.4364  0.0479 -0.1359
   71MOL   O29824238   6.298   2.279   4.313  0.3847 -0.1914 -0.3154
   71MOL   H29924239   6.400   2.279   3.916  0.0468 -0.5314  0.8379
   71MOL   H30024240   6.278   2.293   4.047 -0.6986  1.2417  0.6061
   71MOL   H30124241   6.482   2.498   4.032  2.8266 -1.5268  0.9692
   71MOL   H30224242   6.468   2.647   4.236 -0.2337 -0.2282  1.6095
   71MOL   H30324243   6.325   2.660   4.128  1.4197  0.1948 -0.6196
   71MOL   H30424244   6.305   2.720   4.400 -1.0144  0.5264 -1.1128
   71MOL   H30524245   6.171   2.679   4.288 -1.2531 -3.3788  1.1091
   71MOL   H30624246   6.279   2.501   4.494 -0.9648  0.0922  0.9188
   71MOL   H30724247   6.138   2.492   4.412  0.3433  1.8410 -0.6185
   71MOL   C30824248   6.563   2.331   4.128 -0.0023  0.1285  0.2084
   71MOL   C30924249   6.669   2.301   4.014  0.3259  0.3281 -0.4754
   71MOL   N31024250   6.730   2.423   3.960 -0.3552 -0.5530  0.3263
   71MOL   C31124251   6.739   2.432   3.818  0.5401  0.3840 -0.1229
   71MOL   C31224252   6.796   2.574   3.788 -0.7758  0.1212 -0.2931
   71MOL   C31324253   6.861   2.616   3.919 -0.2036  0.2610 -0.7325
   71MOL   C31424254   6.802   2.519   4.017 -0.6512  0.3081  0.0535
   71MOL   O31524255   6.825   2.527   4.137 -0.0993  0.4135  0.2769
   71MOL   H31624256   6.532   2.236   4.172  1.3351  0.5125  2.0439
   71MOL   H31724257   6.615   2.382   4.210 -0.1314  1.5307 -0.5674
   71MOL   H31824258   6.620   2.253   3.929  0.6271  1.1545 -1.1267
   71MOL   H31924259   6.808   2.354   3.786  0.9574  0.5045  0.4630
   71MOL   H32024260   6.653   2.413   3.754  1.8593 -0.3185 -1.7287
   71MOL   H32124261   6.870   2.575   3.708 -0.0011  2.0231  0.4091
   71MOL   H32224262   6.715   2.637   3.754  0.5251  1.1529 -1.5501
   71MOL   H32324263   6.969   2.602   3.924 -0.4417 -0.9156  3.5387
   71MOL   H32424264   6.828   2.720   3.919  1.9101  0.9526 -0.3432
   71MOL   C32524265   6.779   2.202   4.060  0.9644 -0.5026  0.2443
   71MOL   C32624266   6.729   2.066   4.094  0.1360 -0.3671 -0.2942
   71MOL   N32724267   6.630   2.008   3.996 -0.1827  0.4993 -0.5105
   71MOL   C32824268   6.510   1.948   4.037  0.9873  0.1155 -0.5053
   71MOL   C32924269   6.443   1.879   3.920 -0.7015 -0.1400  0.6016
   71MOL   C33024270   6.527   1.926   3.801  0.3541 -0.4049 -0.7231
   71MOL   C33124271   6.649   1.992   3.865 -0.1678 -0.5587 -0.8321
   71MOL   O33224272   6.738   2.031   3.797  0.1060  0.1354 -0.3520
   71MOL   H33324273   6.836   2.235   4.147  5.1576  0.2419 -2.6097
   71MOL   H33424274   6.854   2.204   3.981 -1.3936  0.9351 -2.0188
   71MOL   H33524275   6.693   2.073   4.197 -0.1587 -0.0967 -0.4106
   71MOL   H33624276   6.536   1.880   4.118 -3.3778 -1.6607 -0.4470
   71MOL   H33724277   6.447   2.024   4.083  1.0170 -1.1985  1.7576
   71MOL   H33824278   6.444   1.771   3.930 -0.6128 -0.1864  0.1211
   71MOL   H33924279   6.342   1.918   3.910 -1.3580 -1.3751  2.1662
   71MOL   H34024280   6.566   1.842   3.743  0.1015 -0.0090 -1.4623
   71MOL   H34124281   6.481   1.998   3.734 -0.1441 -0.9928 -1.0240
   71MOL   H34224282   6.812   1.997   4.097  0.3567 -0.0362  2.3272
   72MOL     C124283   1.926   3.892   1.326 -0.0078 -0.0918  0.5277
   72MOL     C224284   1.827   3.983   1.389  0.7416 -0.2874  0.8388
   72MOL     N324285   1.881   4.054   1.503 -0.4107  0.5829  0.0946
   72MOL     C424286   1.833   4.025   1.639 -0.0243  0.0332  0.2332
   72MOL     C524287   1.896   4.138   1.728 -0.3998  0.5744 -1.0536
   72MOL     C624288   2.010   4.188   1.640  0.1715 -0.1858 -0.0959
   72MOL     C724289   1.997   4.121   1.501  0.5964 -0.9535 -0.1496
   72MOL     O824290   2.081   4.134   1.414 -0.4157  0.1014  0.6195
   72MOL     H924291   1.984   3.822   1.386  0.4574 -1.8437 -1.8580
   72MOL    H1024292   1.874   3.832   1.251 -0.5738  0.5867  0.3691
   72MOL    H1124293   1.749   3.918   1.429  1.1025  0.6665  3.1799
   72MOL    H1224294   1.725   4.020   1.651 -0.1256 -2.0977 -1.1096
   72MOL    H1324295   1.875   3.925   1.654 -0.6423 -0.3230 -0.3455
   72MOL    H1424296   1.821   4.216   1.743  0.0980  0.4983  1.9565
   72MOL    H1524297   1.932   4.095   1.821 -0.0972 -1.5377 -2.1337
   72MOL    H1624298   1.997   4.296   1.635 -1.9854 -0.4748 -1.7517
   72MOL    H1724299   2.114   4.165   1.660  0.3583  1.1635  0.5389
   72MOL    H1824300   1.995   3.945   1.261 -0.1365  1.7667  1.8750
   72MOL    C1924301   1.770   4.088   1.291  0.2616  0.1917 -0.0413
   72MOL    C2024302   1.677   4.044   1.174 -0.7293 -0.4760 -0.0558
   72MOL    N2124303   1.564   3.954   1.224  0.1692 -0.3715 -0.3534
   72MOL    C2224304   1.560   3.824   1.168  0.2502  1.4181  0.0992
   72MOL    C2324305   1.429   3.755   1.217 -0.4053 -0.1258 -0.0717
   72MOL    C2424306   1.385   3.844   1.341 -0.6851 -0.1341 -0.4746
   72MOL    C2524307   1.474   3.970   1.324 -0.5820  0.1219  0.6600
   72MOL    O2624308   1.461   4.067   1.394 -0.3488 -0.5232 -0.1820
   72MOL    H2724309   1.846   4.155   1.251  0.7200  1.4605  2.8537
   72MOL    H2824310   1.711   4.154   1.355  1.9160  1.4409  0.2503
   72MOL    H2924311   1.740   3.979   1.113 -1.9367  1.4739 -3.4814
   72MOL    H3024312   1.565   3.822   1.059  0.0573  0.7590  0.1011
   72MOL    H3124313   1.644   3.766   1.206  0.8152  1.9920 -0.2594
   72MOL    H3224314   1.354   3.762   1.138 -1.6768  0.7565  1.1939
   72MOL    H3324315   1.435   3.648   1.234  1.0193  0.1183  1.0217
   72MOL    H3424316   1.277   3.859   1.345 -0.9191 -1.5725 -0.8930
   72MOL    H3524317   1.414   3.787   1.429 -0.9499 -3.3681 -2.3759
   72MOL    C3624318   1.621   4.157   1.088  0.4482 -0.8357 -0.0824
   72MOL    C3724319   1.562   4.118   0.947 -0.5875 -0.2343 -0.1931
   72MOL    N3824320   1.512   4.234   0.870  0.0163  0.7210 -0.7080
   72MOL    C3924321   1.597   4.340   0.828 -0.2444  0.0667  0.6944
   72MOL    C4024322   1.517   4.428   0.740 -0.0430  0.5718  0.2388
   72MOL    C4124323   1.372   4.378   0.744 -0.0713 -0.2735  0.0027
   72MOL    C4224324   1.387   4.255   0.838  0.3404  0.2578  0.0643
   72MOL    O4324325   1.286   4.181   0.864  0.4455  0.4097 -0.1661
   72MOL    H4424326   1.699   4.232   1.070  0.4710 -0.8163  0.0915
   72MOL    H4524327   1.542   4.216   1.135 -0.0214  0.0050 -1.8784
   72MOL    H4624328   1.476   4.055   0.972 -0.4847  0.2753  1.5478
   72MOL    H4724329   1.642   4.398   0.909  3.7514 -1.3496 -0.4112
   72MOL    H4824330   1.683   4.306   0.771 -0.5391 -0.7244  0.7132
   72MOL    H4924331   1.530   4.532   0.770  1.0227  1.2166 -2.3451
   72MOL    H5024332   1.569   4.430   0.644  1.5986  1.1362  1.1230
   72MOL    H5124333   1.291   4.437   0.787  1.0918  0.3807  1.3120
   72MOL    H5224334   1.335   4.345   0.647  1.7552 -3.6350  0.3625
   72MOL    C5324335   1.666   4.040   0.853  0.0810  0.1098  0.9562
   72MOL    C5424336   1.609   3.998   0.714  0.0841  0.6886  0.9722
   72MOL    N5524337   1.711   3.948   0.625  0.4378 -0.0844 -0.0810
   72MOL    C5624338   1.727   4.014   0.491 -0.4544  0.2880  0.1894
   72MOL    C5724339   1.812   3.928   0.402  0.0968 -0.0146 -0.2810
   72MOL    C5824340   1.866   3.816   0.494 -0.3388  0.0784 -0.3162
   72MOL    C5924341   1.797   3.842   0.629 -0.0205 -1.0634 -0.4682
   72MOL    O6024342   1.818   3.775   0.735  0.5339  0.0291  0.4648
   72MOL    H6124343   1.683   3.945   0.903 -1.5782  0.3561  2.0524
   72MOL    H6224344   1.754   4.101   0.835 -0.6258  0.7358 -0.4507
   72MOL    H6324345   1.571   4.091   0.672  0.7027  0.4006 -0.2414
   72MOL    H6424346   1.625   4.031   0.456 -1.1563 -3.2407  0.4042
   72MOL    H6524347   1.774   4.107   0.524  1.9916 -1.2426  1.1626
   72MOL    H6624348   1.764   3.893   0.311 -0.0798 -0.4003 -0.0402
   72MOL    H6724349   1.889   3.991   0.357 -1.0648  0.7144 -1.2651
   72MOL    H6824350   1.858   3.711   0.464  1.8603 -0.6027  1.2570
   72MOL    H6924351   1.974   3.828   0.505 -0.4719  0.8316  0.1435
   72MOL    C7024352   1.491   3.898   0.725  0.0088 -0.3638  0.0496
   72MOL    C7124353   1.404   3.877   0.592  0.6017  0.1671 -0.7354
   72MOL    N7224354   1.316   3.756   0.589 -0.4787 -0.0780  0.4000
   72MOL    C7324355   1.353   3.646   0.500  0.4904 -0.1549  0.0653
   72MOL    C7424356   1.251   3.528   0.536 -0.3679 -0.5979  0.8944
   72MOL    C7524357   1.139   3.600   0.620 -0.6276  0.2118 -0.1649
   72MOL    C7624358   1.202   3.734   0.654 -0.7484  0.8221 -0.3874
   72MOL    O7724359   1.150   3.818   0.723  0.0703  0.3343 -0.0927
   72MOL    H7824360   1.409   3.918   0.793  0.3231 -1.3123  0.7143
   72MOL    H7924361   1.517   3.796   0.752 -0.8216 -0.5629  0.0894
   72MOL    H8024362   1.472   3.872   0.507  0.9685 -0.2762 -0.4119
   72MOL    H8124363   1.333   3.687   0.402  1.0955 -0.5722 -0.2399
   72MOL    H8224364   1.460   3.621   0.504  0.7261  0.7401 -0.5327
   72MOL    H8324365   1.213   3.492   0.441 -1.2025  0.4697  0.8100
   72MOL    H8424366   1.306   3.446   0.582  0.8061 -0.0137  0.5666
   72MOL    H8524367   1.057   3.631   0.554 -0.0313  1.9807 -0.1005
   72MOL    H8624368   1.106   3.536   0.702  0.1441 -1.2998 -1.0260
   72MOL    C8724369   1.327   4.009   0.553 -0.1688  0.2603 -0.4061
   72MOL    C8824370   1.289   4.035   0.404 -0.3871 -0.3982 -0.5094
   72MOL    N8924371   1.166   3.964   0.353 -0.7213  0.0968 -0.3735
   72MOL    C9024372   1.034   3.993   0.403  0.1867  0.1710  0.5747
   72MOL    C9124373   0.939   3.920   0.302  0.0819  0.0519  0.1699
   72MOL    C9224374   1.027   3.838   0.216 -0.7561  0.9587  0.2686
   72MOL    C9324375   1.170   3.874   0.255 -0.5448 -0.7080  0.1748
   72MOL    O9424376   1.263   3.826   0.193 -0.2267  0.3447 -0.2311
   72MOL    H9524377   1.386   4.093   0.591 -1.0582  0.7760 -0.1506
   72MOL    H9624378   1.232   4.013   0.607  1.0068 -2.3861  1.9764
   72MOL    H9724379   1.369   3.992   0.344 -0.3177  0.8223 -1.3124
   72MOL    H9824380   1.037   3.960   0.507  0.6120  1.4344  0.9721
   72MOL    H9924381   1.000   4.096   0.388 -0.4936 -0.6477 -4.3278
   72MOL   H10024382   0.854   3.875   0.352 -0.9505  1.7193 -0.0562
   72MOL   H10124383   0.882   3.984   0.235  2.1281  0.2509 -1.4652
   72MOL   H10224384   1.008   3.733   0.236  0.5225  0.3066 -1.7120
   72MOL   H10324385   1.000   3.862   0.113 -0.1806  0.2572 -0.0561
   72MOL   C10424386   1.292   4.187   0.366 -0.0285 -0.8032  0.5908
   72MOL   C10524387   1.415   4.244   0.286  0.1731  0.3369  0.4875
   72MOL   N10624388   1.420   4.197   0.149  0.4638 -0.3598  0.2086
   72MOL   C10724389   1.509   4.090   0.097 -0.7179  0.4018  0.9091
   72MOL   C10824390   1.432   4.032   7.888  0.1455 -0.5430  0.6739
   72MOL   C10924391   1.320   4.124   7.854  0.1086  0.5310  0.2271
   72MOL   C11024392   1.336   4.232   0.051 -0.0264 -0.0582 -0.8501
   72MOL   O11124393   1.271   4.334   0.043 -0.4477 -0.3379 -0.0414
   72MOL   H11224394   1.286   4.238   0.462 -0.3985 -0.7671  0.5525
   72MOL   H11324395   1.206   4.230   0.314  0.2054 -0.4423  0.4979
   72MOL   H11424396   1.501   4.196   0.332  2.5327  3.5633 -0.4258
   72MOL   H11524397   1.589   4.146   0.048 -0.7330 -1.1047 -0.8523
   72MOL   H11624398   1.555   4.019   0.166 -0.9919  1.7564  2.5358
   72MOL   H11724399   1.507   4.013   7.811 -1.4103 -1.4352 -0.6601
   72MOL   H11824400   1.390   3.933   7.905 -0.7134 -0.4527 -0.8311
   72MOL   H11924401   1.225   4.071   7.869 -0.7414  1.2792 -2.2102
   72MOL   H12024402   1.325   4.138   7.746 -0.6496 -3.0023 -0.3478
   72MOL   C12124403   1.433   4.392   0.302  0.5779 -0.1822 -0.5805
   72MOL   C12224404   1.557   4.457   0.235  0.1513  0.5587  0.0730
   72MOL   N12324405   1.552   4.601   0.260 -0.2073  0.7213  0.3881
   72MOL   C12424406   1.490   4.683   0.156  0.1332  0.4929  0.2737
   72MOL   C12524407   1.456   4.821   0.222 -0.5752 -0.0697 -0.8337
   72MOL   C12624408   1.551   4.814   0.351  0.2572 -0.7425  0.0905
   72MOL   C12724409   1.587   4.670   0.367 -0.2402 -0.2971  0.1720
   72MOL   O12824410   1.638   4.618   0.462 -0.1764 -0.1394 -0.5068
   72MOL   H12924411   1.448   4.420   0.406 -2.2845 -2.1187  0.4073
   72MOL   H13024412   1.341   4.443   0.276  1.4511  0.8040 -1.7972
   72MOL   H13124413   1.534   4.449   0.129  1.5216 -0.0462 -0.1923
   72MOL   H13224414   1.406   4.636   0.104 -0.4712  0.8347  0.9384
   72MOL   H13324415   1.560   4.698   0.074 -0.0156  1.2579  0.2889
   72MOL   H13424416   1.467   4.906   0.154  0.7111  0.9212  0.5897
   72MOL   H13524417   1.354   4.824   0.261  0.5364 -2.4862  2.5388
   72MOL   H13624418   1.642   4.867   0.323  0.6964 -0.9178  1.1668
   72MOL   H13724419   1.509   4.853   0.444 -2.4633 -1.7788 -0.6654
   72MOL   C13824420   1.693   4.388   0.267  0.2786 -0.4630 -0.1884
   72MOL   C13924421   1.827   4.463   0.231  0.9052  1.1803 -0.4653
   72MOL   N14024422   1.939   4.369   0.266 -0.3672 -0.4364 -0.1242
   72MOL   C14124423   2.027   4.407   0.377 -0.1181 -1.5646 -0.5418
   72MOL   C14224424   2.142   4.310   0.361 -0.1715 -0.0237 -0.0581
   72MOL   C14324425   2.098   4.200   0.267  0.2754  0.1541 -0.0909
   72MOL   C14424426   1.974   4.262   0.202 -0.1849 -0.5711  0.1479
   72MOL   O14524427   1.914   4.195   0.124  0.4265 -0.1555  0.3219
   72MOL   H14624428   1.688   4.289   0.220  2.5474 -0.8019  0.2292
   72MOL   H14724429   1.690   4.358   0.372 -3.2156 -3.4510 -1.0212
   72MOL   H14824430   1.843   4.543   0.303  0.2492  0.0634  0.9575
   72MOL   H14924431   2.060   4.511   0.382  0.8496 -1.9601  1.3329
   72MOL   H15024432   1.975   4.388   0.471  1.0763 -1.4551  0.1398
   72MOL   H15124433   2.239   4.347   0.328 -1.4170  1.0231 -2.6997
   72MOL   H15224434   2.165   4.262   0.456  2.1979  1.5146  0.1991
   72MOL   H15324435   2.059   4.113   0.321 -0.8763  0.1913 -0.8433
   72MOL   H15424436   2.163   4.179   0.182  0.4497 -1.0155  0.3171
   72MOL   C15524437   1.829   4.501   0.086  0.1131 -0.5008 -0.9499
   72MOL   C15624438   1.955   4.566   0.027 -0.3242 -0.0961  0.0494
   72MOL   N15724439   1.934   4.587   7.788  0.1278 -0.0927  0.4085
   72MOL   C15824440   2.052   4.554   7.704  0.2045 -0.1397 -0.9807
   72MOL   C15924441   2.018   4.614   7.570  0.0894 -0.0180 -0.5983
   72MOL   C16024442   1.871   4.662   7.576 -0.1999 -0.1197  0.3036
   72MOL   C16124443   1.832   4.641   7.720 -0.7280 -0.0994  0.2539
   72MOL   O16224444   1.719   4.667   7.760 -0.0124 -0.0254  0.2522
   72MOL   H16324445   1.745   4.570   0.076  0.4582  0.8242  3.7378
   72MOL   H16424446   1.812   4.417   0.019  2.6342  0.1325 -2.4038
   72MOL   H16524447   2.028   4.486   0.040  0.6842  0.9113  0.7274
   72MOL   H16624448   2.150   4.583   7.743 -0.6518 -0.0368  1.1904
   72MOL   H16724449   2.062   4.445   7.699 -2.7166 -0.6212  1.8166
   72MOL   H16824450   2.085   4.694   7.539  0.4330 -0.7981 -1.8833
   72MOL   H16924451   2.036   4.535   7.497 -4.5846 -1.3594 -0.4827
   72MOL   H17024452   1.866   4.766   7.542 -0.1764 -0.1954  0.0704
   72MOL   H17124453   1.808   4.604   7.509 -1.5217 -0.2643  1.6759
   72MOL   C17224454   2.007   4.686   0.107 -0.5726 -0.1362 -0.3781
   72MOL   C17324455   2.150   4.732   0.071  0.5496 -0.2200  0.1813
   72MOL   N17424456   2.185   4.868   0.120  0.1080 -0.4403  0.1327
   72MOL   C17524457   2.210   4.967   0.018  0.0978 -0.3915  0.1112
   72MOL   C17624458   2.279   5.080   0.095 -0.0492 -0.0343 -0.4575
   72MOL   C17724459   2.235   5.058   0.244  0.4253  0.1792 -0.1175
   72MOL   C17824460   2.204   4.912   0.241 -0.3895 -0.8210 -0.5282
   72MOL   O17924461   2.204   4.846   0.348  0.1253  0.3339  0.3539
   72MOL   H18024462   2.001   4.674   0.215 -0.4596 -0.8571 -0.4491
   72MOL   H18124463   1.931   4.763   0.093 -0.3004  0.4064  1.0427
   72MOL   H18224464   2.145   4.737   7.868 -3.1577 -0.7379  0.2675
   72MOL   H18324465   2.272   4.940   7.838 -0.8784  0.7462 -0.9715
   72MOL   H18424466   2.121   4.999   7.870 -0.4816  0.7295  1.6884
   72MOL   H18524467   2.251   5.182   0.070 -0.0445  0.2964  0.8563
   72MOL   H18624468   2.387   5.066   0.096  0.5595  4.1408 -0.4134
   72MOL   H18724469   2.323   5.063   0.308  0.7683  0.0990 -0.5842
   72MOL   H18824470   2.151   5.113   0.287  1.1009  0.6145  0.6574
   72MOL   C18924471   2.266   4.637   0.112 -0.2585 -0.2561  0.1446
   72MOL   C19024472   2.414   4.678   0.075 -0.2407  0.2080  0.2952
   72MOL   N19124473   2.516   4.591   0.144 -0.2639  0.1056 -0.0494
   72MOL   C19224474   2.580   4.648   0.257 -0.3651 -0.7564 -0.2719
   72MOL   C19324475   2.669   4.527   0.311  0.8688  0.4774  0.7556
   72MOL   C19424476   2.670   4.415   0.201  0.3089  0.1631  0.0183
   72MOL   C19524477   2.554   4.464   0.115 -0.0356 -0.5442  0.3034
   72MOL   O19624478   2.501   4.394   0.030 -0.8671 -0.1202  0.0504
   72MOL   H19724479   2.248   4.541   0.062  0.0182  1.3542 -3.2299
   72MOL   H19824480   2.252   4.608   0.216 -0.9139  1.1865  0.4727
   72MOL   H19924481   2.422   4.777   0.120 -5.6979  1.0736 -0.2335
   72MOL   H20024482   2.634   4.739   0.230 -1.6534  0.7973  2.2198
   72MOL   H20124483   2.499   4.670   0.327 -0.8989 -0.0166 -1.1042
   72MOL   H20224484   2.773   4.557   0.328  0.9131  0.2257  0.9362
   72MOL   H20324485   2.628   4.484   0.402  0.5730 -0.0803  0.3609
   72MOL   H20424486   2.765   4.410   0.148 -0.4264  1.0215 -1.4061
   72MOL   H20524487   2.653   4.309   0.220 -0.5213 -0.0815 -1.9060
   72MOL   C20624488   2.452   4.693   7.832  0.0227  0.1147 -0.1912
   72MOL   C20724489   2.583   4.756   7.795 -0.3079  1.0300  0.5487
   72MOL   N20824490   2.617   4.730   7.654 -0.0890  1.0364  0.1252
   72MOL   C20924491   2.752   4.689   7.624  0.5498  0.2906  0.5564
   72MOL   C21024492   2.757   4.661   7.477 -0.3373  0.0189  0.8895
   72MOL   C21124493   2.637   4.737   7.419  0.4092 -0.8891  0.5233
   72MOL   C21224494   2.546   4.746   7.542  0.0416  0.2321 -0.5554
   72MOL   O21324495   2.430   4.777   7.534 -0.2584  0.0356  0.2085
   72MOL   H21424496   2.370   4.745   7.781 -0.6739 -0.5575  0.2248
   72MOL   H21524497   2.450   4.593   7.789 -1.2099 -0.5204  1.2850
   72MOL   H21624498   2.657   4.697   7.849  1.3334  1.9715 -0.6136
   72MOL   H21724499   2.830   4.761   7.649  0.7788  0.2169  0.0768
   72MOL   H21824500   2.773   4.604   7.689 -1.8391 -0.4265  0.4295
   72MOL   H21924501   2.854   4.691   7.437  0.2152 -0.4376  1.8671
   72MOL   H22024502   2.751   4.556   7.449  2.4455 -0.1700  0.9103
   72MOL   H22124503   2.661   4.837   7.383 -0.5942 -1.3285 -1.4055
   72MOL   H22224504   2.600   4.694   7.326 -1.2028  1.6117 -0.0391
   72MOL   C22324505   2.588   4.907   7.826 -0.4874 -0.1991 -0.1756
   72MOL   C22424506   2.732   4.981   7.840  0.0531  0.1880 -0.7562
   72MOL   N22524507   2.725   5.124   7.880 -0.4057  0.0323 -0.2656
   72MOL   C22624508   2.774   5.227   7.792  0.8488 -0.5105 -0.5610
   72MOL   C22724509   2.786   5.351   7.878  0.2946  0.4385 -0.1354
   72MOL   C22824510   2.699   5.322   0.098 -0.3779 -0.2196  0.1034
   72MOL   C22924511   2.674   5.175   0.094 -0.1392  0.1137  0.1362
   72MOL   O23024512   2.620   5.116   0.191  0.2703 -0.3171 -0.2131
   72MOL   H23124513   2.535   4.912   0.014 -1.3399 -3.8511 -0.3694
   72MOL   H23224514   2.542   4.981   7.761  0.8816  3.3491  2.7576
   72MOL   H23324515   2.780   4.988   7.742  1.9786  1.4335  0.2459
   72MOL   H23424516   2.869   5.202   7.746  0.9313  1.7501 -1.7122
   72MOL   H23524517   2.697   5.242   7.716  1.7262 -5.9252 -2.6900
   72MOL   H23624518   2.889   5.366   0.003  0.3622 -0.3863  0.0442
   72MOL   H23724519   2.755   5.444   7.829  1.0011  1.3483  1.1122
   72MOL   H23824520   2.754   5.343   0.189 -1.0574 -2.3549  1.0609
   72MOL   H23924521   2.603   5.374   0.089 -0.2931 -0.1985 -0.7327
   72MOL   C24024522   2.822   4.903   0.034 -0.5093 -0.2265 -0.0654
   72MOL   C24124523   2.960   4.969   0.058  0.3063 -0.0021  0.0775
   72MOL   N24224524   2.999   4.918   0.185 -0.4187 -0.2255 -0.0985
   72MOL   C24324525   2.997   5.000   0.304 -0.5962 -0.2910 -0.1020
   72MOL   C24424526   3.035   4.905   0.413  0.4462  0.7848  0.0561
   72MOL   C24524527   3.095   4.779   0.348 -1.0033  0.5102  0.0170
   72MOL   C24624528   3.059   4.795   0.206  0.1829 -0.4816  0.3671
   72MOL   O24724529   3.082   4.712   0.122  0.7005  0.0383  0.4437
   72MOL   H24824530   2.853   4.802   0.006  0.0070  0.7324 -3.2168
   72MOL   H24924531   2.774   4.901   0.131 -1.4048 -0.1377 -0.4987
   72MOL   H25024532   2.948   5.074   0.086 -0.2077 -0.3357  1.1453
   72MOL   H25124533   3.064   5.086   0.294 -1.2729  0.4272  1.4013
   72MOL   H25224534   2.896   5.038   0.318  0.1908  2.2480 -1.0529
   72MOL   H25324535   3.101   4.954   0.484 -1.1314  2.8054  0.1668
   72MOL   H25424536   2.946   4.869   0.464 -0.0954 -0.1927 -1.5499
   72MOL   H25524537   3.201   4.774   0.374 -0.9772  1.9550  0.2175
   72MOL   H25624538   3.056   4.685   0.386 -1.3077  1.5930  2.4535
   72MOL   C25724539   3.071   4.961   7.855  0.0096  0.5799 -0.2564
   72MOL   C25824540   3.201   5.033   7.899 -0.2341 -0.0079  0.7082
   72MOL   N25924541   3.316   4.982   7.829 -0.0892  0.1089  0.2756
   72MOL   C26024542   3.414   4.909   7.898 -0.7049 -0.0383 -0.5614
   72MOL   C26124543   3.496   4.840   7.786  0.1403  0.0328 -0.6269
   72MOL   C26224544   3.452   4.904   7.652 -0.3281 -0.3402 -0.9637
   72MOL   C26324545   3.338   4.988   7.696  0.4023  0.3057 -0.5806
   72MOL   O26424546   3.265   5.043   7.615  0.1577  0.2513  0.5506
   72MOL   H26524547   3.038   5.003   7.760  1.8587  1.6873 -0.4333
   72MOL   H26624548   3.082   4.855   7.836 -2.0503 -0.1060  2.0193
   72MOL   H26724549   3.206   5.010   0.100  0.5673 -0.7072  0.5271
   72MOL   H26824550   3.474   4.971   0.058  0.3376  0.2386 -1.7480
   72MOL   H26924551   3.372   4.834   0.060  1.8515 -2.0422 -1.1218
   72MOL   H27024552   3.603   4.855   7.798 -0.0548  0.4807  0.5771
   72MOL   H27124553   3.475   4.734   7.773 -1.2503  0.4982 -2.3700
   72MOL   H27224554   3.530   4.969   7.613 -0.0555  1.1113  1.8689
   72MOL   H27324555   3.417   4.833   7.577 -2.1658 -0.8355  0.3208
   72MOL   C27424556   3.183   5.185   7.886 -0.7341  0.2705 -0.9430
   72MOL   C27524557   3.288   5.279   0.042 -0.3268  0.0645  0.1690
   72MOL   N27624558   3.270   5.423   0.003 -0.0653 -0.0759 -0.5165
   72MOL   C27724559   3.361   5.481   7.812  0.3847  0.4639  0.0699
   72MOL   C27824560   3.303   5.624   7.798 -0.0431  0.1397 -0.0105
   72MOL   C27924561   3.204   5.645   0.006 -0.2704 -0.4173  0.0296
   72MOL   C28024562   3.171   5.506   0.045 -0.2392 -0.3246 -0.0655
   72MOL   O28124563   3.082   5.474   0.125  0.3996  0.0058 -0.3610
   72MOL   H28224564   3.088   5.216   0.025 -1.6698 -0.7042 -2.1994
   72MOL   H28324565   3.175   5.214   7.781 -0.6353  1.5466 -0.6077
   72MOL   H28424566   3.376   5.251   7.890 -1.1522 -0.1484 -0.9966
   72MOL   H28524567   3.460   5.480   7.858 -0.4771  1.8877  2.0765
   72MOL   H28624568   3.358   5.431   7.716  2.2732 -0.7126  0.6045
   72MOL   H28724569   3.374   5.707   7.800  1.2838 -1.0075  2.2013
   72MOL   H28824570   3.239   5.629   7.710 -1.5754 -0.9964  1.0099
   72MOL   H28924571   3.237   5.702   0.092 -0.5768  1.6999 -1.2244
   72MOL   H29024572   3.115   5.694   7.873  0.8131  1.3251 -0.2870
   72MOL   C29124573   3.311   5.268   0.192 -0.0585 -1.0755 -0.2936
   72MOL   C29224574   3.449   5.320   0.244  0.1605  0.0414 -0.4250
   72MOL   N29324575   3.437   5.343   0.388  0.0968 -1.0579 -0.7323
   72MOL   C29424576   3.475   5.479   0.435  0.0428  0.5691  0.3448
   72MOL   C29524577   3.473   5.462   0.587  0.4084 -0.1667 -0.2909
   72MOL   C29624578   3.441   5.319   0.615  0.0962  0.0467 -0.3411
   72MOL   C29724579   3.417   5.254   0.484 -0.2847 -0.1118 -0.1025
   72MOL   O29824580   3.382   5.139   0.474  0.4510 -0.3944  0.2127
   72MOL   H29924581   3.287   5.167   0.223  1.0945 -0.5006  2.5975
   72MOL   H30024582   3.233   5.320   0.247  0.1163  0.0803 -1.1171
   72MOL   H30124583   3.453   5.418   0.198  0.3162  0.5757  0.7100
   72MOL   H30224584   3.575   5.507   0.399 -0.9615  0.6127 -2.5529
   72MOL   H30324585   3.396   5.546   0.400  0.6387  0.8847 -0.4434
   72MOL   H30424586   3.571   5.488   0.627  1.0397 -0.3448 -1.6693
   72MOL   H30524587   3.406   5.534   0.635  0.4495 -0.3961  0.1094
   72MOL   H30624588   3.527   5.274   0.663  0.7739  1.0530 -0.6026
   72MOL   H30724589   3.359   5.309   0.687  1.6707  0.3081  1.5337
   72MOL   C30824590   3.568   5.224   0.220  0.4745 -0.3667  0.6919
   72MOL   C30924591   3.708   5.280   0.223  0.2562  0.4524 -0.7537
   72MOL   N31024592   3.814   5.180   0.193  0.6244 -0.4899 -0.1127
   72MOL   C31124593   3.798   5.078   0.085  0.2470 -0.8481 -0.2521
   72MOL   C31224594   3.912   4.988   0.087 -0.5199 -0.5290  0.1246
   72MOL   C31324595   4.001   5.043   0.201  0.1259  0.2571  0.5680
   72MOL   C31424596   3.919   5.152   0.270  0.3284 -0.1224  0.2091
   72MOL   O31524597   3.944   5.198   0.379 -0.2655 -0.7166  0.2811
   72MOL   H31624598   3.551   5.185   0.120 -2.0757  4.0620 -0.7410
   72MOL   H31724599   3.564   5.131   0.277 -1.8495 -0.3453  0.6099
   72MOL   H31824600   3.729   5.328   0.318 -0.7751 -1.2968  0.3777
   72MOL   H31924601   3.710   5.016   0.103  0.2431 -0.9388 -0.5821
   72MOL   H32024602   3.784   5.134   7.899  1.5885  0.4096  0.2920
   72MOL   H32124603   3.877   4.886   0.101  2.2624 -1.5761 -0.0830
   72MOL   H32224604   3.959   4.997   7.894 -0.4023  1.7472  0.3544
   72MOL   H32324605   4.040   4.963   0.264  0.7665 -0.6853 -0.9901
   72MOL   H32424606   4.087   5.093   0.156  0.3291  0.5123  1.2400
   72MOL   C32524607   3.723   5.404   0.129 -0.7861  0.2687  0.3787
   72MOL   C32624608   3.865   5.478   0.136  0.0755  0.5658  0.1621
   72MOL   N32724609   3.890   5.586   0.041  0.6074  0.1554  0.3771
   72MOL   C32824610   4.012   5.663   0.057  0.4456  0.4210 -0.2860
   72MOL   C32924611   4.010   5.763   7.848 -0.2818  0.7679  0.0356
   72MOL   C33024612   3.867   5.755   7.791 -0.0636  0.2416  0.8327
   72MOL   C33124613   3.807   5.630   7.853 -0.4640 -0.0334 -0.4854
   72MOL   O33224614   3.696   5.586   7.824  0.4731 -0.1592  0.2901
   72MOL   H33324615   3.649   5.482   0.147  0.4889  1.7014 -0.4921
   72MOL   H33424616   3.704   5.364   0.029  2.2485 -0.5333  0.0778
   72MOL   H33524617   3.941   5.405   0.109  0.0736  0.5612  0.1681
   72MOL   H33624618   4.015   5.717   0.152 -0.6766  0.4473 -0.2632
   72MOL   H33724619   4.090   5.588   0.047 -1.3220 -1.1706 -2.7855
   72MOL   H33824620   4.040   5.861   7.887  3.1343  0.4958 -1.7390
   72MOL   H33924621   4.093   5.747   7.779  0.0367  1.0206  0.3548
   72MOL   H34024622   3.807   5.837   7.830  1.5835  1.1659  1.4848
   72MOL   H34124623   3.861   5.742   7.683 -1.7591 -0.5241  1.0064
   72MOL   H34224624   3.877   5.523   0.235 -0.2366  2.2504 -0.5523
   73MOL     C124625   2.514   3.939   4.140  0.2549 -0.4333 -0.2565
   73MOL     C224626   2.619   4.055   4.151  0.9564  0.2219 -0.7192
   73MOL     N324627   2.560   4.175   4.093 -0.2995  0.0649 -0.3260
   73MOL     C424628   2.591   4.188   3.949 -0.6413  0.2013 -0.0939
   73MOL     C524629   2.513   4.307   3.906  0.7567  0.5598  0.7016
   73MOL     C624630   2.451   4.374   4.026  0.0074 -0.8762 -0.0143
   73MOL     C724631   2.491   4.281   4.143 -0.2251 -0.1075  0.0145
   73MOL     O824632   2.465   4.306   4.261  0.4233 -0.4218  0.1611
   73MOL     H924633   2.570   3.846   4.146  0.8204 -0.1434 -1.0407
   73MOL    H1024634   2.447   3.942   4.226 -0.2499 -2.5020 -0.5488
   73MOL    H1124635   2.697   4.023   4.082  1.1130  0.0623 -0.4695
   73MOL    H1224636   2.697   4.212   3.950 -0.3992 -0.7617 -1.1777
   73MOL    H1324637   2.567   4.094   3.899  0.0996 -0.1357  0.1651
   73MOL    H1424638   2.561   4.378   3.839 -0.9518  0.9737 -0.1286
   73MOL    H1524639   2.436   4.258   3.847  1.0520 -0.0336  0.8030
   73MOL    H1624640   2.494   4.473   4.042 -0.4196 -0.6842 -0.0583
   73MOL    H1724641   2.344   4.386   4.012 -0.0023 -2.9868 -1.9510
   73MOL    H1824642   2.471   3.922   4.041  1.5267  0.6518 -1.0163
   73MOL    C1924643   2.673   4.067   4.293  0.0398  0.7986 -1.2025
   73MOL    C2024644   2.828   4.112   4.313 -0.1143  0.4500 -0.9747
   73MOL    N2124645   2.848   4.170   4.448 -0.6487 -0.2170  0.2846
   73MOL    C2224646   2.811   4.098   4.574 -0.2700  1.1577  1.1574
   73MOL    C2324647   2.779   4.209   4.673 -0.5919 -0.2871  0.5518
   73MOL    C2424648   2.848   4.336   4.617  0.6785  0.3861  0.0427
   73MOL    C2524649   2.864   4.304   4.472  0.1809  0.7177 -0.1389
   73MOL    O2624650   2.887   4.391   4.391 -0.4918 -0.2754  0.4209
   73MOL    H2724651   2.668   3.965   4.332  3.1488  0.6787 -0.9785
   73MOL    H2824652   2.607   4.127   4.355  0.3958 -0.0199 -0.0119
   73MOL    H2924653   2.835   4.191   4.239 -0.4960  0.7909 -0.6522
   73MOL    H3024654   2.732   4.024   4.561  0.5483  0.4412  0.1767
   73MOL    H3124655   2.904   4.047   4.597 -0.6774  0.3933  1.1351
   73MOL    H3224656   2.670   4.212   4.676 -0.7041 -1.2428 -1.5841
   73MOL    H3324657   2.815   4.194   4.775  0.3752  0.9752  0.4067
   73MOL    H3424658   2.800   4.432   4.636 -0.1676  0.1754 -0.9580
   73MOL    H3524659   2.948   4.350   4.657  0.6390  0.1058  0.2408
   73MOL    C3624660   2.926   4.001   4.289  0.0356 -0.5784 -0.3703
   73MOL    C3724661   3.072   4.062   4.269  0.3480 -0.1683 -0.4021
   73MOL    N3824662   3.170   3.958   4.322  0.1540  0.3009 -0.1965
   73MOL    C3924663   3.268   3.988   4.428 -0.5019  0.1283 -0.0333
   73MOL    C4024664   3.351   3.863   4.444  0.0949  0.0555 -0.0196
   73MOL    C4124665   3.303   3.765   4.346 -0.3999  0.4221  0.4669
   73MOL    C4224666   3.186   3.836   4.279  0.4550 -0.4853  0.2061
   73MOL    O4324667   3.113   3.783   4.193 -0.2339  0.1340 -0.2966
   73MOL    H4424668   2.881   3.946   4.206 -0.8813 -0.3542 -0.0276
   73MOL    H4524669   2.925   3.924   4.365  1.7341 -1.2261 -0.9729
   73MOL    H4624670   3.077   4.148   4.335  0.4003  0.1270 -0.7850
   73MOL    H4724671   3.333   4.066   4.389  0.7995 -0.7867  0.2437
   73MOL    H4824672   3.223   4.024   4.521  0.0008 -3.6040  1.7549
   73MOL    H4924673   3.450   3.890   4.407  0.5271 -2.1101 -0.5133
   73MOL    H5024674   3.342   3.827   4.546  1.7752 -2.3756 -0.6884
   73MOL    H5124675   3.377   3.743   4.269  0.0057  2.4757  0.2538
   73MOL    H5224676   3.277   3.666   4.384  0.9943  0.0812  0.5496
   73MOL    C5324677   3.106   4.094   4.121 -1.0487  0.1715 -0.4717
   73MOL    C5424678   3.030   4.196   4.037 -0.1464 -0.3428 -0.2064
   73MOL    N5524679   3.026   4.331   4.079 -0.5312  0.4549  0.0061
   73MOL    C5624680   2.900   4.411   4.067  0.0699 -0.5854 -0.2173
   73MOL    C5724681   2.949   4.551   4.115 -0.0904 -0.7920  0.4404
   73MOL    C5824682   3.087   4.535   4.190 -0.2607  0.6015  0.4228
   73MOL    C5924683   3.124   4.402   4.141 -0.2734  0.1147 -0.1782
   73MOL    O6024684   3.239   4.359   4.161 -0.0391 -0.2176  0.0064
   73MOL    H6124685   3.107   3.996   4.074 -1.0652 -0.1652  0.2196
   73MOL    H6224686   3.211   4.125   4.118 -0.9580 -0.1106 -0.2560
   73MOL    H6324687   2.927   4.161   4.035  0.6961 -2.9298 -1.0289
   73MOL    H6424688   2.877   4.407   3.961 -1.1761  2.7363 -0.1072
   73MOL    H6524689   2.826   4.351   4.120 -1.1542  1.4815  0.4691
   73MOL    H6624690   2.960   4.608   4.023  0.5728 -0.6765  0.5823
   73MOL    H6724691   2.880   4.614   4.171 -0.9565 -0.8053 -0.6024
   73MOL    H6824692   3.163   4.602   4.150  0.7469 -0.8448 -0.1496
   73MOL    H6924693   3.074   4.553   4.297  1.7233 -0.3179  0.8454
   73MOL    C7024694   3.087   4.206   3.887  0.3536  0.6733  0.4364
   73MOL    C7124695   3.119   4.083   3.794  0.4885 -0.7029 -0.0082
   73MOL    N7224696   3.026   3.973   3.820  0.0955  0.3633  0.1010
   73MOL    C7324697   3.086   3.839   3.822  0.6383  0.0921 -0.8286
   73MOL    C7424698   2.973   3.740   3.852  0.1898  0.0053  0.4126
   73MOL    C7524699   2.847   3.826   3.835 -0.5904 -0.6859  0.5127
   73MOL    C7624700   2.893   3.973   3.824 -0.6911 -0.1798 -0.9359
   73MOL    O7724701   2.826   4.071   3.810  0.2424 -0.6444 -0.1375
   73MOL    H7824702   3.187   4.250   3.890  0.8227 -0.0791 -2.4101
   73MOL    H7924703   3.018   4.267   3.829 -0.1925 -0.9453 -0.6544
   73MOL    H8024704   3.221   4.048   3.809  0.9228 -0.2845 -1.8935
   73MOL    H8124705   3.134   3.813   3.728  2.0817  1.2398 -0.4377
   73MOL    H8224706   3.163   3.824   3.898  0.1771 -0.8262 -0.5365
   73MOL    H8324707   2.975   3.650   3.790  2.3685 -0.0851  0.5918
   73MOL    H8424708   2.975   3.691   3.949  0.4865  0.4600  0.6363
   73MOL    H8524709   2.787   3.815   3.745 -0.4479 -2.5364  0.6239
   73MOL    H8624710   2.779   3.819   3.919 -0.1969  1.1248  0.9874
   73MOL    C8724711   3.118   4.126   3.650  0.2215  0.4443 -0.2977
   73MOL    C8824712   3.218   4.235   3.602 -0.4632 -0.4665 -0.1952
   73MOL    N8924713   3.358   4.179   3.610  0.6499 -0.1992  0.0771
   73MOL    C9024714   3.444   4.217   3.716 -0.4811 -0.3652 -0.0768
   73MOL    C9124715   3.558   4.122   3.704  0.0918  0.2898 -1.1223
   73MOL    C9224716   3.529   4.020   3.592  0.5439 -0.4713 -0.0255
   73MOL    C9324717   3.402   4.077   3.536 -1.2961 -0.1692 -0.5042
   73MOL    O9424718   3.356   4.024   3.436  0.1725 -0.1391 -0.3599
   73MOL    H9524719   3.017   4.158   3.622  0.5552  1.7354 -0.0436
   73MOL    H9624720   3.129   4.037   3.588  0.0470  1.4686 -1.8419
   73MOL    H9724721   3.216   4.324   3.664 -1.2676  0.9911 -2.2572
   73MOL    H9824722   3.473   4.322   3.708  1.1077 -0.7806  0.1991
   73MOL    H9924723   3.399   4.218   3.815 -0.3082 -2.5664  0.0415
   73MOL   H10024724   3.646   4.179   3.676  0.1819  0.1866 -1.0487
   73MOL   H10124725   3.582   4.079   3.802  0.0360  2.3948 -0.1469
   73MOL   H10224726   3.611   4.010   3.521  0.4938 -1.2969  0.0225
   73MOL   H10324727   3.503   3.920   3.628 -0.9871  0.6307  2.0653
   73MOL   C10424728   3.183   4.291   3.460  0.3330 -0.0269 -0.2920
   73MOL   C10524729   3.036   4.336   3.431 -0.2592  0.2967 -0.3160
   73MOL   N10624730   2.976   4.441   3.525 -0.0734  0.3115 -0.3422
   73MOL   C10724731   2.849   4.433   3.601 -0.5927  0.3796 -0.0717
   73MOL   C10824732   2.836   4.572   3.671  0.1458  0.7546 -0.6726
   73MOL   C10924733   2.961   4.660   3.642  0.7249 -0.1739  0.3962
   73MOL   C11024734   3.037   4.563   3.553  0.3766 -0.1830  0.2967
   73MOL   O11124735   3.150   4.593   3.508 -0.4051 -0.4310  0.1897
   73MOL   H11224736   3.213   4.215   3.388 -0.2530 -0.6599  0.1340
   73MOL   H11324737   3.253   4.373   3.444  0.2771  0.1606  0.4214
   73MOL   H11424738   2.977   4.248   3.458 -0.3859 -0.2918 -2.4663
   73MOL   H11524739   2.767   4.413   3.532 -0.6542  0.3112  0.0220
   73MOL   H11624740   2.858   4.355   3.677  0.3184  0.6195  0.0715
   73MOL   H11724741   2.740   4.619   3.653 -0.4571  0.5919  1.8312
   73MOL   H11824742   2.831   4.558   3.779  2.2780  1.0663 -0.5022
   73MOL   H11924743   3.007   4.701   3.732 -1.4364  1.1277  0.9600
   73MOL   H12024744   2.938   4.742   3.573 -0.5466  0.8959  2.0565
   73MOL   C12124745   3.019   4.355   3.284 -0.5965 -0.1207 -1.1418
   73MOL   C12224746   2.875   4.361   3.238 -0.2477  0.1067  0.5524
   73MOL   N12324747   2.866   4.473   3.141 -0.0659 -0.1385 -0.2918
   73MOL   C12424748   2.937   4.465   3.016  0.0709 -0.2929  0.4636
   73MOL   C12524749   2.896   4.594   2.938 -0.2714  0.7726  0.9887
   73MOL   C12624750   2.810   4.671   3.035 -0.0051  0.1241 -0.1585
   73MOL   C12724751   2.810   4.591   3.163 -0.1794  0.8024 -0.1905
   73MOL   O12824752   2.765   4.633   3.269  0.2459 -0.4789 -0.6736
   73MOL   H12924753   3.070   4.280   3.224  0.3961  0.7499 -1.3993
   73MOL   H13024754   3.071   4.447   3.257  1.9650 -1.6560 -1.6106
   73MOL   H13124755   2.805   4.384   3.318 -0.9679  0.8864 -0.2850
   73MOL   H13224756   2.906   4.378   2.959 -1.8224 -0.6949  2.0741
   73MOL   H13324757   3.045   4.466   3.032  0.0251  1.7171  0.7697
   73MOL   H13424758   2.983   4.646   2.899 -0.3981 -0.5543 -1.1367
   73MOL   H13524759   2.844   4.559   2.848  1.2915 -1.1605  0.8055
   73MOL   H13624760   2.862   4.767   3.040 -1.0771  0.9421 -3.3994
   73MOL   H13724761   2.713   4.696   2.992 -0.9743  0.4980  2.1904
   73MOL   C13824762   2.810   4.231   3.181 -0.4848 -0.0648  0.1500
   73MOL   C13924763   2.787   4.098   3.263 -0.5491  0.2551 -0.3927
   73MOL   N14024764   2.677   4.107   3.361  1.1805 -0.3925  0.4690
   73MOL   C14124765   2.703   4.086   3.506 -0.1564 -0.8587 -0.2297
   73MOL   C14224766   2.566   4.094   3.574  0.0134 -0.8266  0.5245
   73MOL   C14324767   2.460   4.100   3.455 -0.3373 -0.1942 -0.4056
   73MOL   C14424768   2.544   4.127   3.332 -0.6239 -0.6951 -0.0735
   73MOL   O14524769   2.490   4.157   3.225 -0.2217 -0.6795  0.3734
   73MOL   H14624770   2.870   4.211   3.092  1.7998 -1.5982  1.9781
   73MOL   H14724771   2.713   4.262   3.142 -0.5850  0.2271  0.6270
   73MOL   H14824772   2.884   4.081   3.310  0.3183  1.9730 -1.4953
   73MOL   H14924773   2.754   3.990   3.517 -0.2220 -0.6725  1.8391
   73MOL   H15024774   2.771   4.163   3.541 -0.1766  1.1847 -4.4352
   73MOL   H15124775   2.561   4.001   3.630 -0.5486 -0.5717  0.8991
   73MOL   H15224776   2.573   4.181   3.639  0.7328 -1.6207  1.5268
   73MOL   H15324777   2.388   4.181   3.468 -0.9035 -0.9685  1.3725
   73MOL   H15424778   2.412   4.003   3.443  1.0399 -0.9105 -0.2463
   73MOL   C15524779   2.769   3.974   3.165  0.1217  0.3804 -0.2521
   73MOL   C15624780   2.773   3.839   3.234  0.3731 -0.9714  1.1695
   73MOL   N15724781   2.639   3.792   3.274  0.1194 -0.1661 -0.0698
   73MOL   C15824782   2.524   3.801   3.176 -0.1637  0.0905  0.4067
   73MOL   C15924783   2.401   3.736   3.251  0.0610 -0.2830  0.5952
   73MOL   C16024784   2.453   3.702   3.393  0.4716  0.3902  0.0826
   73MOL   C16124785   2.604   3.735   3.394  1.5376 -1.1032 -0.1051
   73MOL   O16224786   2.679   3.712   3.489 -0.7186 -0.0172 -0.2183
   73MOL   H16324787   2.849   3.992   3.093  0.0201  5.0427  0.6175
   73MOL   H16424788   2.677   3.988   3.108 -0.1493  2.5290  0.6326
   73MOL   H16524789   2.839   3.834   3.321  2.2278 -1.8263 -0.2443
   73MOL   H16624790   2.494   3.904   3.156  1.4120  0.2508 -1.3074
   73MOL   H16724791   2.552   3.752   3.082  0.0754  2.1458 -0.6303
   73MOL   H16824792   2.312   3.796   3.238  0.1566  0.0522  1.4288
   73MOL   H16924793   2.366   3.650   3.194 -1.9778  0.7979  0.2058
   73MOL   H17024794   2.418   3.770   3.470  0.7083 -0.7613  1.2258
   73MOL   H17124795   2.434   3.597   3.416  1.8248 -0.1470 -1.1656
   73MOL   C17224796   2.819   3.730   3.136 -0.0465  0.1236  0.2444
   73MOL   C17324797   2.975   3.710   3.127 -0.4093  0.0244  0.1321
   73MOL   N17424798   3.036   3.673   3.254  0.2808  0.1940 -0.3510
   73MOL   C17524799   3.147   3.760   3.296  0.0587 -0.3360  0.0975
   73MOL   C17624800   3.206   3.688   3.422 -0.1552  0.0340 -0.1676
   73MOL   C17724801   3.109   3.577   3.452 -0.0144  0.4744 -0.2399
   73MOL   C17824802   3.020   3.564   3.331  0.0480  0.0480 -0.7043
   73MOL   O17924803   2.931   3.473   3.312  0.2430  0.3115 -0.3101
   73MOL   H18024804   2.779   3.767   3.042  0.7418 -0.4024 -0.3104
   73MOL   H18124805   2.767   3.636   3.157 -0.5431 -0.0728 -1.7173
   73MOL   H18224806   3.021   3.805   3.100 -0.5011 -0.0173 -0.1735
   73MOL   H18324807   3.226   3.764   3.221 -1.2473 -2.1076 -1.4253
   73MOL   H18424808   3.122   3.864   3.317  0.1229  0.3240 -2.8347
   73MOL   H18524809   3.228   3.760   3.502  1.7646 -0.7521  0.0378
   73MOL   H18624810   3.296   3.640   3.384  0.2655  1.3571 -0.9133
   73MOL   H18724811   3.167   3.487   3.469  0.6061  0.6595 -1.3107
   73MOL   H18824812   3.051   3.607   3.539 -2.2129  1.9358 -2.1421
   73MOL   C18924813   3.016   3.605   3.014  0.1381 -0.0982 -0.1696
   73MOL   C19024814   2.972   3.639   2.869 -0.5247  0.6552  0.3442
   73MOL   N19124815   3.007   3.775   2.826  0.1055  0.1470 -0.1967
   73MOL   C19224816   2.906   3.866   2.779 -0.2790 -0.1256  0.2710
   73MOL   C19324817   2.982   4.002   2.769 -0.1715 -0.1023  0.1107
   73MOL   C19424818   3.126   3.978   2.790 -0.2119  0.8423 -0.4583
   73MOL   C19524819   3.131   3.828   2.808  0.3300  0.8342 -0.1367
   73MOL   O19624820   3.237   3.771   2.826  0.2213 -0.1980  0.0717
   73MOL   H19724821   2.971   3.510   3.042  1.1163  0.0269  1.8874
   73MOL   H19824822   3.124   3.591   3.012  0.2286  0.3901  0.7594
   73MOL   H19924823   2.863   3.643   2.872 -0.4960  2.6316 -0.5999
   73MOL   H20024824   2.873   3.830   2.682 -1.2044  0.9354  0.1896
   73MOL   H20124825   2.821   3.876   2.847  0.7036 -3.2353  2.0818
   73MOL   H20224826   2.951   4.057   2.680  1.4033 -1.1936 -1.1456
   73MOL   H20324827   2.930   4.052   2.851  0.4830  0.6208  0.0939
   73MOL   H20424828   3.191   3.994   2.704  2.2199  0.2996  1.2424
   73MOL   H20524829   3.165   4.034   2.875 -0.6692 -0.2900  0.5090
   73MOL   C20624830   3.011   3.525   2.776 -0.5827  0.0333 -0.0213
   73MOL   C20724831   2.925   3.397   2.789  0.3772  0.1950 -0.3179
   73MOL   N20824832   2.790   3.418   2.726  0.6441  0.5355 -0.4564
   73MOL   C20924833   2.677   3.372   2.800 -0.0925  0.8763 -0.1346
   73MOL   C21024834   2.560   3.375   2.700 -0.7931  0.2081 -0.4692
   73MOL   C21124835   2.614   3.445   2.569 -0.3716 -0.7148 -0.3769
   73MOL   C21224836   2.761   3.455   2.597  0.2176 -0.6367 -0.2285
   73MOL   O21324837   2.837   3.484   2.504  0.5922 -0.2812 -0.5257
   73MOL   H21424838   3.115   3.502   2.801 -1.0710 -0.8714  1.2150
   73MOL   H21524839   3.011   3.569   2.676 -0.6913 -0.3537 -0.1945
   73MOL   H21624840   2.896   3.366   2.890  3.0790 -0.9325  0.1530
   73MOL   H21724841   2.707   3.271   2.827 -0.4199  0.3898 -1.5397
   73MOL   H21824842   2.653   3.438   2.884 -1.9335 -1.2652  1.0852
   73MOL   H21924843   2.524   3.277   2.669 -0.4723  0.2540 -0.9945
   73MOL   H22024844   2.474   3.427   2.742 -2.2141 -1.5816 -1.1071
   73MOL   H22124845   2.605   3.379   2.483 -1.3365  0.1321 -0.9440
   73MOL   H22224846   2.562   3.539   2.551 -2.8211 -1.9671 -0.0480
   73MOL   C22324847   2.996   3.276   2.714 -0.4853 -0.2263  0.5574
   73MOL   C22424848   3.112   3.211   2.796 -0.4044  0.0296 -0.1578
   73MOL   N22524849   3.060   3.128   2.901  0.0608  0.0365 -0.4073
   73MOL   C22624850   3.073   3.162   3.041 -0.5902  0.3325  0.5049
   73MOL   C22724851   3.017   3.047   3.121  0.6339  0.2368  0.3191
   73MOL   C22824852   2.951   2.952   3.020  0.7819  0.2909 -0.6688
   73MOL   C22924853   2.994   3.009   2.888  0.6257  0.2967 -0.5424
   73MOL   O23024854   2.972   2.945   2.790  0.5364  0.0849  0.0014
   73MOL   H23124855   3.023   3.312   2.615 -3.6569 -0.3986 -0.3939
   73MOL   H23224856   2.930   3.195   2.687 -0.0175 -1.1222  2.0177
   73MOL   H23324857   3.170   3.292   2.841 -1.2140  1.1863 -1.1408
   73MOL   H23424858   3.178   3.175   3.069 -0.2264  0.3197 -0.7799
   73MOL   H23524859   3.017   3.254   3.055  1.5854  1.6990  0.5482
   73MOL   H23624860   3.090   2.995   3.184  0.2874  0.2223  0.7098
   73MOL   H23724861   2.942   3.096   3.183 -0.8828  0.8072 -1.9043
   73MOL   H23824862   2.972   2.846   3.034 -0.1184 -0.2706 -3.4042
   73MOL   H23924863   2.842   2.958   3.025  0.9501  3.9094 -0.5055
   73MOL   C24024864   3.217   3.135   2.713 -0.1785 -0.0671 -0.3142
   73MOL   C24124865   3.303   3.219   2.621  0.3325  0.4910 -0.2277
   73MOL   N24224866   3.375   3.328   2.680  0.2377  0.0791  0.3186
   73MOL   C24324867   3.390   3.454   2.609  0.1451  0.3955  0.1412
   73MOL   C24424868   3.488   3.536   2.692 -0.3035  0.2957  0.5427
   73MOL   C24524869   3.559   3.433   2.774  0.1302 -0.4244  0.2097
   73MOL   C24624870   3.461   3.325   2.783 -0.3073 -0.0916 -0.3629
   73MOL   O24724871   3.466   3.241   2.870 -0.6919  0.0426  0.1735
   73MOL   H24824872   3.172   3.046   2.669  2.1243 -0.4309 -2.0089
   73MOL   H24924873   3.296   3.099   2.781  0.0840 -0.6946 -0.9396
   73MOL   H25024874   3.233   3.269   2.554 -0.2408  0.4392  0.3232
   73MOL   H25124875   3.436   3.436   2.512  0.2328  4.6604 -0.7144
   73MOL   H25224876   3.292   3.501   2.603  0.9505  2.4464  2.5251
   73MOL   H25324877   3.559   3.580   2.622 -0.4355 -1.2105 -0.5669
   73MOL   H25424878   3.439   3.613   2.752 -2.6718  0.2522 -1.2217
   73MOL   H25524879   3.645   3.392   2.719 -1.2062  0.4753 -2.6629
   73MOL   H25624880   3.597   3.446   2.875 -2.3054 -2.2271  1.3922
   73MOL   C25724881   3.389   3.132   2.532  0.4165  0.3639  0.1506
   73MOL   C25824882   3.319   3.054   2.419  0.1091 -0.3940 -0.4724
   73MOL   N25924883   3.233   3.139   2.341 -0.1080  0.2402 -0.4400
   73MOL   C26024884   3.090   3.133   2.363  0.1576 -0.0076  0.1998
   73MOL   C26124885   3.032   3.243   2.292 -0.0696 -0.4855 -0.6942
   73MOL   C26224886   3.140   3.302   2.219  0.0050  0.4592  0.1411
   73MOL   C26324887   3.268   3.237   2.265 -0.1912  0.3770  0.3703
   73MOL   O26424888   3.373   3.284   2.235  0.5316  0.3330 -0.3096
   73MOL   H26524889   3.441   3.063   2.599 -1.7258 -0.5152  0.9444
   73MOL   H26624890   3.470   3.190   2.487 -0.9452  0.9362 -1.6042
   73MOL   H26724891   3.260   2.975   2.466 -0.1392 -1.1109 -1.9269
   73MOL   H26824892   3.041   3.045   2.321  0.0288  0.5791 -0.8782
   73MOL   H26924893   3.077   3.140   2.471  0.6355 -4.0398  0.5897
   73MOL   H27024894   2.951   3.204   2.231  1.9835 -3.0860 -1.8115
   73MOL   H27124895   2.993   3.314   2.366  0.4226 -1.2458  0.2912
   73MOL   H27224896   3.124   3.288   2.112 -0.7024  2.7453 -0.0640
   73MOL   H27324897   3.138   3.410   2.228 -0.7868  0.3038  2.0511
   73MOL   C27424898   3.432   2.984   2.334 -0.1709  0.2318  0.0521
   73MOL   C27524899   3.398   2.944   2.189  0.0148  0.2693 -0.0678
   73MOL   N27624900   3.518   2.872   2.144 -0.0975  0.5252 -0.0162
   73MOL   C27724901   3.590   2.926   2.031  0.0681 -0.3758 -0.0327
   73MOL   C27824902   3.698   2.824   2.000  0.0355 -0.3964  0.2072
   73MOL   C27924903   3.654   2.696   2.072  0.1532  0.0394  0.2610
   73MOL   C28024904   3.555   2.743   2.175  0.1109  0.3005  0.9396
   73MOL   O28124905   3.509   2.667   2.262 -0.2891  0.5380  0.2660
   73MOL   H28224906   3.468   2.897   2.388  0.1715 -0.6468 -1.5685
   73MOL   H28324907   3.526   3.039   2.334  0.8870 -1.5282 -1.1726
   73MOL   H28424908   3.392   3.027   2.119 -1.8482 -0.7199 -1.1054
   73MOL   H28524909   3.534   2.952   1.941 -0.9944  1.0529  1.0242
   73MOL   H28624910   3.633   3.023   2.054 -0.9824 -0.0174  0.4402
   73MOL   H28724911   3.707   2.792   1.896  0.0249 -1.0091  0.3899
   73MOL   H28824912   3.798   2.853   2.034 -0.9462  1.3603  1.6763
   73MOL   H28924913   3.607   2.625   2.004  3.1526 -1.6914 -0.0638
   73MOL   H29024914   3.740   2.650   2.120  1.6591  1.3566 -1.1210
   73MOL   C29124915   3.265   2.854   2.177 -0.2330  0.5589  0.3750
   73MOL   C29224916   3.163   2.908   2.068 -0.3698  0.3726  0.6157
   73MOL   N29324917   3.228   2.940   1.937 -0.0849  0.0491  0.0749
   73MOL   C29424918   3.229   3.074   1.886 -0.2957 -0.7632 -0.1957
   73MOL   C29524919   3.296   3.069   1.750 -0.6602  0.2007 -0.2548
   73MOL   C29624920   3.333   2.927   1.727  0.4692 -0.3085  0.7245
   73MOL   C29724921   3.288   2.860   1.851  0.3683  0.4485 -0.1566
   73MOL   O29824922   3.295   2.734   1.860  0.0028  0.1620  0.1031
   73MOL   H29924923   3.224   2.834   2.276  0.3267  1.6124  0.8339
   73MOL   H30024924   3.293   2.757   2.136  1.9168  1.3485 -0.1138
   73MOL   H30124925   3.128   3.003   2.110  1.9543  1.1140  0.9802
   73MOL   H30224926   3.127   3.111   1.884 -0.0215 -0.0421 -1.3215
   73MOL   H30324927   3.278   3.147   1.952 -0.7335  1.1511 -1.9274
   73MOL   H30424928   3.240   3.111   1.667  1.7178  1.0283 -1.4915
   73MOL   H30524929   3.390   3.124   1.746 -0.8437  0.5717  0.5271
   73MOL   H30624930   3.280   2.878   1.646 -2.2061  0.1544  2.1436
   73MOL   H30724931   3.437   2.908   1.701 -0.8698 -2.5325 -3.5515
   73MOL   C30824932   3.039   2.817   2.058 -0.6121 -0.9665 -0.0145
   73MOL   C30924933   2.911   2.870   1.990 -0.2440 -0.0185  0.4207
   73MOL   N31024934   2.792   2.779   2.006 -0.7403  0.3568  0.2639
   73MOL   C31124935   2.720   2.736   1.885  0.3260 -0.5301 -0.2483
   73MOL   C31224936   2.581   2.692   1.943 -0.1592 -0.4315  0.0139
   73MOL   C31324937   2.600   2.674   2.092  0.4602 -0.5016 -0.1308
   73MOL   C31424938   2.728   2.750   2.119  0.0333 -0.0751  0.2654
   73MOL   O31524939   2.768   2.775   2.233 -0.0333  0.4779 -0.3818
   73MOL   H31624940   3.002   2.787   2.156  1.6755 -1.3772  0.7550
   73MOL   H31724941   3.071   2.724   2.013  1.1673 -0.2366 -0.3146
   73MOL   H31824942   2.923   2.862   1.882 -2.9445  2.0256 -0.0924
   73MOL   H31924943   2.711   2.832   1.835  0.6399  0.4846  1.6427
   73MOL   H32024944   2.782   2.660   1.835 -0.0082  1.6289 -4.1759
   73MOL   H32124945   2.508   2.770   1.920  0.0846 -0.0011  0.6700
   73MOL   H32224946   2.552   2.598   1.896 -2.0895 -0.3490  0.9695
   73MOL   H32324947   2.519   2.728   2.142 -0.6003 -1.6772 -0.5547
   73MOL   H32424948   2.612   2.569   2.119  0.1964 -0.4483  0.2042
   73MOL   C32524949   2.875   3.007   2.034 -0.2670 -0.5680 -0.9634
   73MOL   C32624950   2.749   3.076   1.965  0.3527 -0.5700 -0.5402
   73MOL   N32724951   2.729   3.210   2.016 -0.2830  0.7930 -0.3074
   73MOL   C32824952   2.631   3.241   2.113  0.2442  0.5143 -0.3608
   73MOL   C32924953   2.674   3.379   2.173 -0.1252 -0.1706 -0.2218
   73MOL   C33024954   2.775   3.433   2.070 -0.4320 -0.1329  0.0240
   73MOL   C33124955   2.815   3.309   1.992  0.5523 -0.3004 -0.2758
   73MOL   O33224956   2.919   3.298   1.931  0.0398  0.2534  0.6483
   73MOL   H33324957   2.962   3.071   2.015 -0.3699 -0.0017  0.4146
   73MOL   H33424958   2.862   3.003   2.142 -2.1255  2.2914 -1.0237
   73MOL   H33524959   2.661   3.016   1.987  0.8324 -1.7023 -1.6335
   73MOL   H33624960   2.538   3.245   2.056 -0.9989 -2.7672  1.3213
   73MOL   H33724961   2.617   3.168   2.192  0.5608 -1.7176 -2.2807
   73MOL   H33824962   2.594   3.449   2.201  1.0842  0.8437  0.7852
   73MOL   H33924963   2.735   3.363   2.262 -1.6581 -0.3189  0.8441
   73MOL   H34024964   2.729   3.509   2.006  0.7640 -0.4221 -1.2018
   73MOL   H34124965   2.858   3.481   2.123 -0.6090 -1.3766  1.4543
   73MOL   H34224966   2.752   3.072   1.856  1.1510 -1.3823 -0.4958
   74MOL     C124967   0.684   2.302   3.981 -0.2220 -0.3115 -0.1769
   74MOL     C224968   0.638   2.242   3.842 -0.3168  0.4319  0.4459
   74MOL     N324969   0.493   2.225   3.849  0.2075 -0.8060 -0.1872
   74MOL     C424970   0.429   2.096   3.849 -0.0695  0.4271 -0.0903
   74MOL     C524971   0.278   2.120   3.839  0.4706 -0.5073  0.1127
   74MOL     C624972   0.262   2.265   3.871 -0.0414 -0.3774 -0.3370
   74MOL     C724973   0.406   2.320   3.864 -0.1243 -0.3549  0.2023
   74MOL     O824974   0.425   2.445   3.880 -0.0481 -0.6589 -0.2100
   74MOL     H924975   0.792   2.319   3.981  0.0368 -1.8890 -0.8298
   74MOL    H1024976   0.640   2.398   4.009  0.4861 -0.8355  2.9243
   74MOL    H1124977   0.685   2.145   3.831 -2.7222 -1.0322  2.4737
   74MOL    H1224978   0.488   2.030   3.785  0.2512  1.9862 -1.4340
   74MOL    H1324979   0.447   2.052   3.947 -3.2369 -1.6765 -0.3965
   74MOL    H1424980   0.254   2.102   3.734 -3.2033  0.6735  0.6836
   74MOL    H1524981   0.210   2.059   3.899 -0.2924  0.6469  0.4414
   74MOL    H1624982   0.182   2.315   3.816  0.5253 -1.6946 -2.4255
   74MOL    H1724983   0.237   2.256   3.977 -1.3551 -0.8642 -0.6794
   74MOL    H1824984   0.664   2.231   4.062 -2.6014  0.4197 -0.0770
   74MOL    C1924985   0.682   2.339   3.720  0.1001  0.0268 -0.4195
   74MOL    C2024986   0.836   2.346   3.688  0.0097  0.1546 -0.0685
   74MOL    N2124987   0.890   2.216   3.652  0.1638  0.0402 -0.1537
   74MOL    C2224988   0.982   2.153   3.737  0.9604 -0.7468 -0.0313
   74MOL    C2324989   0.978   2.009   3.709 -0.2007 -0.3702  0.5484
   74MOL    C2424990   0.917   1.996   3.569  0.0574 -0.5426  0.1278
   74MOL    C2524991   0.859   2.134   3.545  0.0338  0.1454 -0.1912
   74MOL    O2624992   0.791   2.173   3.449 -0.5847  0.1163 -0.0125
   74MOL    H2724993   0.645   2.440   3.737  2.7549  1.0734 -0.5578
   74MOL    H2824994   0.635   2.305   3.628  1.9217  1.7637 -2.0474
   74MOL    H2924995   0.892   2.377   3.776  0.8817 -1.8373  0.1021
   74MOL    H3024996   1.073   2.208   3.715 -0.8323  2.1399 -0.4377
   74MOL    H3124997   0.980   2.162   3.846  0.2887  2.4897 -0.2759
   74MOL    H3224998   1.073   1.956   3.706 -1.2744 -2.2551 -3.0868
   74MOL    H3324999   0.919   1.958   3.786  0.3293 -0.0312  1.1876
   74MOL    H3425000   0.978   1.959   3.486 -0.5364 -0.2571 -0.4473
   74MOL    H3525001   0.820   1.945   3.571  0.2261 -0.8596  0.1744
   74MOL    C3625002   0.873   2.458   3.583  0.2778 -0.7753 -0.3186
   74MOL    C3725003   0.857   2.607   3.626  0.3103  0.0693 -0.3522
   74MOL    N3825004   0.881   2.634   3.765 -0.4454 -0.0315  0.1279
   74MOL    C3925005   0.784   2.707   3.856  0.8475 -0.6983  0.9835
   74MOL    C4025006   0.843   2.698   3.991  0.2620  0.0000  0.2845
   74MOL    C4125007   0.986   2.640   3.986  0.3693  0.0441  0.1463
   74MOL    C4225008   0.990   2.602   3.837  0.3248  0.0109  0.0278
   74MOL    O4325009   1.093   2.552   3.794 -0.4612  0.4054 -0.0319
   74MOL    H4425010   0.809   2.441   3.496  0.1379 -0.8601 -0.1991
   74MOL    H4525011   0.976   2.437   3.555  0.1399  0.0230 -1.4749
   74MOL    H4625012   0.751   2.630   3.618  0.1742  0.4039  2.2015
   74MOL    H4725013   0.782   2.808   3.816 -0.2050 -1.0657  0.0695
   74MOL    H4825014   0.678   2.681   3.851  0.7136  0.2107 -1.5704
   74MOL    H4925015   0.840   2.800   4.029  0.9047  0.9248 -2.0461
   74MOL    H5025016   0.781   2.645   4.063 -2.8385  1.3468 -1.3092
   74MOL    H5125017   1.062   2.714   4.012  0.5881 -0.1188 -0.0393
   74MOL    H5225018   1.010   2.553   4.046 -0.5727 -0.1552  0.2378
   74MOL    C5325019   0.943   2.707   3.555  0.5561 -0.0138 -0.6492
   74MOL    C5425020   0.910   2.735   3.400  0.6327  0.9017  0.0482
   74MOL    N5525021   0.787   2.813   3.385 -0.3298  0.2158  0.3074
   74MOL    C5625022   0.662   2.745   3.346  0.1445  0.0797  0.2369
   74MOL    C5725023   0.550   2.827   3.419 -0.0793 -0.1685  0.6188
   74MOL    C5825024   0.613   2.955   3.464 -0.5044 -0.2136  0.0485
   74MOL    C5925025   0.763   2.933   3.441  0.1179 -0.6482  0.0013
   74MOL    O6025026   0.845   3.018   3.475 -0.2115 -0.2360  0.6304
   74MOL    H6125027   1.045   2.668   3.562  0.6646  0.3100 -0.4212
   74MOL    H6225028   0.945   2.803   3.607 -0.1605  1.0881 -2.5986
   74MOL    H6325029   0.892   2.637   3.356  1.2185  1.6658 -1.9405
   74MOL    H6425030   0.657   2.764   3.238 -1.3784 -0.4740  0.1832
   74MOL    H6525031   0.666   2.638   3.363  1.1468  0.2030  0.7728
   74MOL    H6625032   0.474   2.843   3.343 -1.1912  1.4952  2.0458
   74MOL    H6725033   0.503   2.773   3.501  1.1498 -1.2087  0.6693
   74MOL    H6825034   0.583   3.046   3.412 -0.3661 -0.1284  0.1202
   74MOL    H6925035   0.600   2.963   3.572  0.7904 -1.9253  0.3517
   74MOL    C7025036   1.038   2.799   3.339  0.0505 -0.3488  0.4420
   74MOL    C7125037   1.044   2.832   3.191 -0.4526 -0.0756  0.6667
   74MOL    N7225038   1.181   2.853   3.146  0.1794  0.0727  0.2676
   74MOL    C7325039   1.235   2.988   3.149  0.1344  0.7492  0.2517
   74MOL    C7425040   1.366   2.980   3.071  0.1395  0.2155  0.3120
   74MOL    C7525041   1.377   2.838   3.024 -0.2215  0.2064 -0.9169
   74MOL    C7625042   1.252   2.767   3.077 -0.2751 -0.0288  0.5628
   74MOL    O7725043   1.240   2.644   3.066 -0.2058 -0.5772  0.0157
   74MOL    H7825044   1.130   2.743   3.358  1.8055  1.8629 -1.3177
   74MOL    H7925045   1.064   2.886   3.400  0.0834  0.0135 -0.0853
   74MOL    H8025046   0.997   2.930   3.183 -0.5188 -0.2317 -1.0599
   74MOL    H8125047   1.161   3.053   3.101 -0.2957 -0.5563 -0.8954
   74MOL    H8225048   1.240   3.017   3.254 -1.2966  0.4857  0.4144
   74MOL    H8325049   1.371   3.056   2.992  2.1648  2.2468  2.3324
   74MOL    H8425050   1.445   3.002   3.143 -2.3727  2.0768  2.6326
   74MOL    H8525051   1.369   2.842   2.916  0.2936  0.1366 -0.9586
   74MOL    H8625052   1.470   2.793   3.059  0.3322  0.7306 -1.7035
   74MOL    C8725053   0.963   2.733   3.100  0.0278 -0.1966  0.6299
   74MOL    C8825054   0.954   2.764   2.944  0.2090  0.4372  0.6700
   74MOL    N8925055   0.930   2.634   2.876 -0.0709  0.6483 -0.2036
   74MOL    C9025056   1.036   2.561   2.812 -0.2593  0.0776 -0.1011
   74MOL    C9125057   0.962   2.434   2.761  0.1783 -0.0635 -0.5939
   74MOL    C9225058   0.823   2.428   2.821 -0.2516  0.5120  0.4941
   74MOL    C9325059   0.814   2.568   2.885  0.3613 -0.1634  0.1183
   74MOL    O9425060   0.707   2.604   2.937 -0.3384  1.1157 -0.6330
   74MOL    H9525061   0.860   2.747   3.132 -0.3043  1.0754 -0.8946
   74MOL    H9625062   0.996   2.633   3.127 -0.8672 -0.2662  1.4878
   74MOL    H9725063   1.052   2.802   2.916  1.1389 -2.8303 -0.7287
   74MOL    H9825064   1.081   2.624   2.736 -1.3178 -0.7221 -1.4011
   74MOL    H9925065   1.115   2.537   2.884  1.6279 -0.9076 -2.4101
   74MOL   H10025066   0.959   2.451   2.653  1.4754 -0.1157 -0.6434
   74MOL   H10125067   1.020   2.344   2.780 -0.0766 -0.3504 -1.1452
   74MOL   H10225068   0.732   2.424   2.760  1.0046 -0.1740 -1.3661
   74MOL   H10325069   0.831   2.346   2.892  0.7557  0.5370  0.4154
   74MOL   C10425070   0.857   2.872   2.891  0.3607  0.2010 -0.3012
   74MOL   C10525071   0.913   3.017   2.881  0.7427  0.0638  0.7945
   74MOL   N10625072   1.021   3.031   2.779 -0.0101  0.0600  0.1270
   74MOL   C10725073   1.025   2.953   2.657  0.0809  0.9113 -0.0688
   74MOL   C10825074   1.154   2.990   2.580 -0.3714 -0.0045 -0.1261
   74MOL   C10925075   1.221   3.097   2.667 -0.1204  0.2147 -0.3443
   74MOL   C11025076   1.124   3.113   2.783  0.1246  0.2063 -0.3611
   74MOL   O11125077   1.149   3.204   2.871 -0.1404  0.2463  0.0190
   74MOL   H11225078   0.767   2.854   2.949  0.6686 -0.3434  0.0110
   74MOL   H11325079   0.829   2.853   2.788 -2.3824  1.6621  0.1425
   74MOL   H11425080   0.948   3.050   2.979  1.7046 -0.3826  0.6070
   74MOL   H11525081   1.006   2.847   2.670 -0.3475  1.1914  1.7209
   74MOL   H11625082   0.931   2.982   2.610 -1.9399  1.2646  3.9353
   74MOL   H11725083   1.221   2.904   2.577  1.3082  1.2674  0.2151
   74MOL   H11825084   1.118   3.032   2.486  0.4347  3.0726  0.8829
   74MOL   H11925085   1.224   3.194   2.617 -1.6673  0.0553 -0.7803
   74MOL   H12025086   1.315   3.076   2.718 -0.5511  2.0522  1.2812
   74MOL   C12125087   0.790   3.112   2.847 -0.5615  1.3562  0.3641
   74MOL   C12225088   0.692   3.152   2.960  0.1398  0.0792  0.4690
   74MOL   N12325089   0.747   3.257   3.048  0.1356  0.1229  0.5533
   74MOL   C12425090   0.785   3.227   3.183  0.5121 -0.0572  0.4951
   74MOL   C12525091   0.866   3.340   3.245 -0.3052  0.3749  0.0796
   74MOL   C12625092   0.845   3.453   3.141  0.4577 -0.2813 -0.0453
   74MOL   C12725093   0.798   3.379   3.012 -0.2040  0.7403 -0.1379
   74MOL   O12825094   0.804   3.430   2.899 -0.3622  0.4302  0.4867
   74MOL   H12925095   0.729   3.084   2.760  1.4856  0.3312 -0.7868
   74MOL   H13025096   0.830   3.205   2.807  0.1719  0.4459 -1.0505
   74MOL   H13125097   0.684   3.062   3.021 -0.8392 -0.4498 -0.4112
   74MOL   H13225098   0.831   3.129   3.195  2.0199  0.5361 -0.3124
   74MOL   H13325099   0.694   3.220   3.242  0.8424  2.9007  1.4659
   74MOL   H13425100   0.840   3.360   3.348  1.1968  0.5719  0.4279
   74MOL   H13525101   0.972   3.312   3.242 -1.0602 -2.5842 -1.8366
   74MOL   H13625102   0.771   3.528   3.171  0.0352 -0.9565  0.6290
   74MOL   H13725103   0.935   3.513   3.129 -0.6133  1.3086 -0.3373
   74MOL   C13825104   0.553   3.193   2.911  0.1509 -0.3299  0.2093
   74MOL   C13925105   0.467   3.095   2.829 -0.9683 -0.0851  0.7643
   74MOL   N14025106   0.463   2.957   2.890  0.2813  0.1075  0.1446
   74MOL   C14125107   0.491   2.845   2.803 -0.2347  0.2714  0.2481
   74MOL   C14225108   0.421   2.725   2.863  0.8443 -0.0920  0.3488
   74MOL   C14325109   0.380   2.771   3.009  0.2353  0.5369  0.2790
   74MOL   C14425110   0.404   2.923   3.007  0.3514  0.5667 -0.1327
   74MOL   O14525111   0.382   2.996   3.104  0.5257 -0.5855  0.5559
   74MOL   H14625112   0.579   3.277   2.848 -1.6025  0.5651  0.6434
   74MOL   H14725113   0.497   3.232   2.996 -1.9510  0.8708 -1.7065
   74MOL   H14825114   0.506   3.089   2.727 -1.3558  0.7078  0.5612
   74MOL   H14925115   0.467   2.872   2.700  0.9246 -0.4674 -0.2210
   74MOL   H15025116   0.599   2.836   2.808 -0.3740 -2.2358 -0.2950
   74MOL   H15125117   0.333   2.704   2.803  1.4177 -1.1464 -0.1375
   74MOL   H15225118   0.465   2.625   2.857 -1.6784 -1.2277  0.0180
   74MOL   H15325119   0.456   2.731   3.075 -1.7197 -4.7042 -0.4280
   74MOL   H15425120   0.283   2.736   3.044 -0.0749  2.0961  1.0174
   74MOL   C15525121   0.320   3.148   2.804 -0.4548 -0.4554  0.3097
   74MOL   C15625122   0.297   3.280   2.742  0.4819 -0.1085 -0.0647
   74MOL   N15725123   0.384   3.300   2.624 -0.6054  0.2726 -0.1383
   74MOL   C15825124   0.363   3.229   2.498  0.6990 -0.7353  0.1614
   74MOL   C15925125   0.478   3.263   2.405  0.5753  0.3228 -0.7495
   74MOL   C16025126   0.572   3.346   2.496  0.4591  0.3343  0.5082
   74MOL   C16125127   0.491   3.381   2.617 -0.1290  0.1057 -0.5561
   74MOL   O16225128   0.527   3.465   2.700 -0.2360 -0.1977 -0.0930
   74MOL   H16325129   0.274   3.166   2.901 -2.4113  1.6807 -0.9664
   74MOL   H16425130   0.269   3.067   2.750 -1.8446 -1.2435  2.7136
   74MOL   H16525131   0.336   3.357   2.809  0.1162 -0.0761  0.1097
   74MOL   H16625132   0.356   3.124   2.528 -2.2326 -0.6006  0.0407
   74MOL   H16725133   0.270   3.254   2.448  1.6400  1.7402 -0.4100
   74MOL   H16825134   0.521   3.178   2.353 -0.0816 -0.5472  0.0998
   74MOL   H16925135   0.426   3.323   2.330  1.1762  0.4451 -1.0646
   74MOL   H17025136   0.663   3.288   2.513  1.8314  1.5396 -2.3497
   74MOL   H17125137   0.595   3.441   2.447 -0.8711 -0.2510 -1.3069
   74MOL   C17225138   0.148   3.305   2.699  0.0340  0.7438 -0.1920
   74MOL   C17325139   0.116   3.456   2.665 -0.6980  0.2558 -0.4190
   74MOL   N17425140   0.036   3.469   2.540  0.7038  0.6290  0.0038
   74MOL   C17525141   0.102   3.523   2.429 -0.7974 -0.6919  0.0199
   74MOL   C17625142   7.903   3.523   2.318  0.3196 -0.2008 -0.3739
   74MOL   C17725143   7.781   3.441   2.365 -0.5250 -0.1578 -0.8747
   74MOL   C17825144   7.816   3.419   2.511 -0.4307 -0.3579 -0.6158
   74MOL   O17925145   7.744   3.364   2.592 -0.6177 -0.0082  0.2227
   74MOL   H18025146   0.075   3.264   2.769 -0.5392 -1.3001 -1.9168
   74MOL   H18125147   0.132   3.234   2.618  1.2676  2.7815 -2.3027
   74MOL   H18225148   0.206   3.510   2.635  1.7824 -2.8054  1.2904
   74MOL   H18325149   0.139   3.625   2.438 -0.5562 -0.9186  1.7549
   74MOL   H18425150   0.182   3.451   2.411 -1.2121 -0.9311 -0.8828
   74MOL   H18525151   0.041   3.490   2.223  4.2159  0.9544  0.9197
   74MOL   H18625152   7.869   3.625   2.305  1.2658  0.2327  0.5084
   74MOL   H18725153   7.682   3.479   2.340 -1.0481 -1.1947 -0.3968
   74MOL   H18825154   7.801   3.351   2.307  2.0038  0.1309 -0.5013
   74MOL   C18925155   0.048   3.532   2.788 -0.6651 -0.0243  0.4624
   74MOL   C19025156   0.125   3.521   2.926 -1.2424 -0.0156  0.0531
   74MOL   N19125157   0.263   3.575   2.933  0.0370 -0.3697  0.0956
   74MOL   C19225158   0.349   3.515   3.027  0.4308 -0.4394  0.0853
   74MOL   C19325159   0.479   3.600   3.031  0.6495 -0.1344 -0.0337
   74MOL   C19425160   0.441   3.724   2.957 -0.0973 -0.4362 -0.4877
   74MOL   C19525161   0.308   3.694   2.892  0.4885 -0.2328 -0.6534
   74MOL   O19625162   0.246   3.776   2.821 -0.2404 -0.7664  0.3429
   74MOL   H19725163   7.855   3.495   2.816  0.4500 -3.2962  0.2409
   74MOL   H19825164   0.049   3.638   2.759  0.0526 -0.2006 -0.1709
   74MOL   H19925165   0.132   3.413   2.942  0.4081  0.5045  2.9229
   74MOL   H20025166   0.308   3.520   3.128 -0.3237  0.2212 -0.2462
   74MOL   H20125167   0.364   3.410   3.002 -1.1064 -0.5646 -0.3108
   74MOL   H20225168   0.525   3.595   3.130  0.0652 -0.4287  0.2227
   74MOL   H20325169   0.547   3.551   2.961 -0.3304 -2.0237  0.3112
   74MOL   H20425170   0.437   3.808   3.027 -0.3068  0.2358 -1.3013
   74MOL   H20525171   0.498   3.747   2.867  1.1749 -0.3849  0.3240
   74MOL   C20625172   0.052   3.577   3.050  0.4764 -0.0477  0.5795
   74MOL   C20725173   7.850   3.475   3.107 -0.1399  0.3787  0.5323
   74MOL   N20825174   0.004   3.348   3.151 -0.5113  0.0486  0.0911
   74MOL   C20925175   7.840   3.234   3.094 -0.5436  0.5621  0.3220
   74MOL   C21025176   0.019   3.112   3.135 -0.1793  0.8124  0.6057
   74MOL   C21125177   0.108   3.159   3.246  0.5962  0.4857  0.6177
   74MOL   C21225178   0.088   3.310   3.242 -0.3389  0.5991 -0.7084
   74MOL   O21325179   0.146   3.385   3.317  0.1568  0.3543  0.1430
   74MOL   H21425180   0.011   3.675   3.027 -0.1705 -1.0105 -2.5337
   74MOL   H21525181   0.120   3.602   3.132  0.6253 -0.3524  0.5475
   74MOL   H21625182   7.797   3.461   3.013 -0.2853  0.0778  0.6575
   74MOL   H21725183   7.749   3.231   3.154  0.3899 -0.6146  1.6890
   74MOL   H21825184   7.830   3.244   2.986  0.8300 -0.9476  0.0348
   74MOL   H21925185   7.876   3.017   3.157  1.4743  0.0570  1.1476
   74MOL   H22025186   0.080   3.109   3.045  1.7049 -1.8987  1.8904
   74MOL   H22125187   0.083   3.115   3.343  2.6313  1.5954  1.6583
   74MOL   H22225188   0.211   3.132   3.226 -0.0455 -1.4755 -0.1844
   74MOL   C22325189   7.750   3.526   3.207 -0.2300  0.5897 -0.5719
   74MOL   C22425190   7.662   3.635   3.148  0.0897 -0.4545  0.2313
   74MOL   N22525191   7.597   3.604   3.021 -0.0238  0.2102 -0.0792
   74MOL   C22625192   7.612   3.688   2.908  0.7153  0.1055  0.1965
   74MOL   C22725193   7.519   3.640   2.798  0.0844  0.4685  0.6910
   74MOL   C22825194   7.483   3.500   2.849  0.0798 -0.5104  0.2507
   74MOL   C22925195   7.521   3.494   2.994 -0.2796 -1.0478  0.2250
   74MOL   O23025196   7.489   3.399   3.065 -0.5877  0.5156 -0.4135
   74MOL   H23125197   7.803   3.561   3.296  0.0157 -0.2747 -0.3665
   74MOL   H23225198   7.687   3.446   3.247 -0.2165 -0.0251 -1.7572
   74MOL   H23325199   7.721   3.726   3.137 -0.7058 -0.4036 -4.7540
   74MOL   H23425200   7.582   3.790   2.935 -1.4792 -0.3425 -0.3972
   74MOL   H23525201   7.717   3.681   2.880  0.3716 -0.8346 -0.8812
   74MOL   H23625202   7.419   3.682   2.799 -0.4633 -0.7002 -1.3802
   74MOL   H23725203   7.552   3.633   2.694 -1.5906 -0.8277  0.2156
   74MOL   H23825204   7.381   3.472   2.825 -0.0073  0.3822 -0.4586
   74MOL   H23925205   7.549   3.428   2.801 -0.4129  0.9134 -2.7043
   74MOL   C24025206   7.558   3.662   3.262 -0.4931 -0.3653 -0.0190
   74MOL   C24125207   7.496   3.801   3.284 -0.3999 -0.3972  0.4970
   74MOL   N24225208   7.414   3.845   3.169  0.6030 -0.2636  0.7187
   74MOL   C24325209   7.443   3.974   3.107  0.3294 -0.4927 -0.0766
   74MOL   C24425210   7.322   4.011   3.014  0.0519  0.9576 -0.7045
   74MOL   C24525211   7.250   3.885   3.001  0.7654  0.4293  0.2971
   74MOL   C24625212   7.300   3.795   3.108 -0.2298 -0.0732 -0.3522
   74MOL   O24725213   7.255   3.683   3.122 -0.2717  0.7558  0.1002
   74MOL   H24825214   7.600   3.641   3.361  0.1272  0.6920 -0.0492
   74MOL   H24925215   7.477   3.590   3.251 -1.9181  1.2660 -0.4353
   74MOL   H25025216   7.581   3.868   3.292  0.3639 -1.0924 -1.5033
   74MOL   H25125217   7.459   4.053   3.180  1.3502 -1.1293  0.4016
   74MOL   H25225218   7.537   3.965   3.053 -0.9559  0.5569 -2.5720
   74MOL   H25325219   7.261   4.087   3.063 -0.1674  0.9469 -0.9620
   74MOL   H25425220   7.361   4.035   2.915 -2.5050  0.3809 -1.8862
   74MOL   H25525221   7.145   3.911   3.016  0.3877  0.9362 -2.9305
   74MOL   H25625222   7.270   3.830   2.909  0.2370  0.0831  0.3873
   74MOL   C25725223   7.411   3.796   3.415 -0.0835 -0.8085 -1.0543
   74MOL   C25825224   7.295   3.902   3.436 -0.4273  0.1594 -0.2945
   74MOL   N25925225   7.183   3.837   3.502  0.5515  0.1229  1.3938
   74MOL   C26025226   7.062   3.799   3.421  0.0368  0.2061  0.0753
   74MOL   C26125227   6.968   3.731   3.516 -0.3648 -0.0616 -0.3565
   74MOL   C26225228   7.053   3.695   3.637 -0.0625 -0.2133  0.3999
   74MOL   C26325229   7.183   3.776   3.626  0.6914  0.8616  0.0691
   74MOL   O26425230   7.273   3.778   3.704  1.0468  0.0768 -0.6235
   74MOL   H26525231   7.482   3.795   3.498 -3.2622 -0.4228  1.7902
   74MOL   H26625232   7.365   3.698   3.414  0.3040 -0.9897 -1.5022
   74MOL   H26725233   7.262   3.924   3.335 -0.1994  0.2036 -0.3589
   74MOL   H26825234   7.007   3.884   3.381  0.0467  0.0720 -0.2192
   74MOL   H26925235   7.096   3.742   3.335  1.1559  1.4031 -0.2921
   74MOL   H27025236   6.890   3.797   3.552  0.6618  0.3661  1.1213
   74MOL   H27125237   6.919   3.645   3.470  0.3687 -0.7336  0.0975
   74MOL   H27225238   7.003   3.728   3.728 -3.2461  1.1728 -1.7742
   74MOL   H27325239   7.065   3.587   3.638 -2.0105 -0.5290 -3.3520
   74MOL   C27425240   7.339   4.029   3.502 -0.2808 -0.2558  0.7514
   74MOL   C27525241   7.235   4.142   3.517  0.3484  0.4942  0.4911
   74MOL   N27625242   7.287   4.250   3.593 -0.0419 -0.0528 -0.4936
   74MOL   C27725243   7.216   4.301   3.708  0.0172 -0.7517  0.0486
   74MOL   C27825244   7.298   4.413   3.766 -0.5965  0.0683  0.4093
   74MOL   C27925245   7.417   4.437   3.665 -0.0271  0.7928  0.0392
   74MOL   C28025246   7.400   4.328   3.565  0.0768 -0.0991 -0.4476
   74MOL   O28125247   7.474   4.309   3.471  0.2688 -0.7118 -0.3224
   74MOL   H28225248   7.427   4.071   3.453 -3.0341  1.4670 -2.9686
   74MOL   H28325249   7.380   3.997   3.598 -2.5139 -2.0696  1.1442
   74MOL   H28425250   7.148   4.110   3.575  0.1789 -1.4666 -0.7882
   74MOL   H28525251   7.112   4.325   3.683 -0.1586 -2.4400 -0.9261
   74MOL   H28625252   7.220   4.222   3.782  3.9572  0.5989  1.3724
   74MOL   H28725253   7.228   4.498   3.768 -1.7476 -0.8743  1.3565
   74MOL   H28825254   7.333   4.394   3.868 -2.3180  0.8568  1.1826
   74MOL   H28925255   7.433   4.533   3.616  1.9259 -0.1042 -1.1478
   74MOL   H29025256   7.513   4.413   3.711  1.3799 -0.0847 -3.2183
   74MOL   C29125257   7.180   4.187   3.377 -0.3386 -0.1012  0.4517
   74MOL   C29225258   7.070   4.302   3.373 -0.4488 -0.3314  1.1653
   74MOL   N29325259   7.071   4.359   3.241 -0.5618  0.3286 -0.5351
   74MOL   C29425260   7.147   4.484   3.217  0.2578 -0.3303 -0.0808
   74MOL   C29525261   7.132   4.509   3.068  0.0131  0.3042 -0.1192
   74MOL   C29625262   7.050   4.399   3.009  0.0860 -0.1134 -0.2913
   74MOL   C29725263   7.021   4.311   3.127 -0.2321  0.2845 -0.3683
   74MOL   O29825264   6.972   4.197   3.119 -0.0645 -0.1081 -0.0584
   74MOL   H29925265   7.147   4.099   3.322  0.9933 -0.4223  0.1353
   74MOL   H30025266   7.272   4.216   3.325 -1.3842  0.6721 -0.9993
   74MOL   H30125267   7.097   4.381   3.443 -1.2109 -0.6671  1.8548
   74MOL   H30225268   7.109   4.567   3.277  1.4195  0.2554 -0.1395
   74MOL   H30325269   7.253   4.473   3.241 -0.0857 -1.2617  1.0596
   74MOL   H30425270   7.080   4.604   3.054  1.1927  1.0007  0.2516
   74MOL   H30525271   7.228   4.515   3.018 -1.1917 -3.6211 -3.1199
   74MOL   H30625272   6.951   4.440   2.989 -0.4701 -1.4877 -0.4755
   74MOL   H30725273   7.093   4.346   2.924 -1.6349 -1.8631 -0.1221
   74MOL   C30825274   6.931   4.259   3.425 -0.0960 -0.8878 -0.9063
   74MOL   C30925275   6.828   4.366   3.415 -0.0820  0.3881 -0.4261
   74MOL   N31025276   6.690   4.310   3.396  0.1723 -0.9253 -0.6455
   74MOL   C31125277   6.604   4.368   3.289  0.0428 -0.0466 -0.7386
   74MOL   C31225278   6.469   4.295   3.295 -1.1365 -0.3569 -0.9854
   74MOL   C31325279   6.482   4.192   3.409  0.4968 -0.9384  0.7766
   74MOL   C31425280   6.624   4.213   3.463  0.3004 -0.6695  0.2949
   74MOL   O31525281   6.669   4.149   3.558  0.0363  0.0298 -0.1259
   74MOL   H31625282   6.933   4.219   3.526  1.5909  1.4358  0.0190
   74MOL   H31725283   6.897   4.172   3.369 -0.8195 -0.6823 -0.7946
   74MOL   H31825284   6.842   4.417   3.320 -1.0938  1.1058 -0.2063
   74MOL   H31925285   6.589   4.476   3.297  0.8729  0.0302 -0.1715
   74MOL   H32025286   6.661   4.357   3.197  0.3440  1.2193 -0.7075
   74MOL   H32125287   6.384   4.359   3.315  0.3011  1.5016 -0.7509
   74MOL   H32225288   6.449   4.249   3.198 -1.1036 -0.7499 -0.8088
   74MOL   H32325289   6.408   4.230   3.479  1.1930 -0.3379  1.1864
   74MOL   H32425290   6.452   4.095   3.368 -2.9015  1.5335 -2.8880
   74MOL   C32525291   6.838   4.463   3.533 -0.1006  0.8291 -0.3707
   74MOL   C32625292   6.752   4.589   3.540 -1.0695 -0.5998 -0.2256
   74MOL   N32725293   6.826   4.699   3.477 -0.4547 -0.3310  0.4207
   74MOL   C32825294   6.915   4.788   3.548  0.0903  0.1626 -0.1963
   74MOL   C32925295   6.988   4.880   3.444  0.2490  0.1127 -0.3714
   74MOL   C33025296   6.922   4.836   3.312 -0.0642 -0.0625 -0.0043
   74MOL   C33125297   6.814   4.735   3.352 -0.0843 -0.2949 -0.1629
   74MOL   O33225298   6.715   4.715   3.280  0.0538  0.4189  0.5294
   74MOL   H33325299   6.942   4.484   3.561 -0.1319 -0.5473  0.7686
   74MOL   H33425300   6.804   4.410   3.621  0.0788  0.2911 -0.6254
   74MOL   H33525301   6.739   4.624   3.642  2.0889  2.4927 -0.7561
   74MOL   H33625302   6.858   4.847   3.620 -0.2753  0.2894 -0.5873
   74MOL   H33725303   6.991   4.729   3.599  0.7080 -0.6352 -1.9755
   74MOL   H33825304   6.982   4.986   3.468 -0.2129 -0.5659  2.6973
   74MOL   H33925305   7.093   4.855   3.456  0.1311 -0.4191 -0.4041
   74MOL   H34025306   6.856   4.914   3.275  0.0375 -0.2139 -0.5085
   74MOL   H34125307   6.986   4.796   3.233 -0.4538  0.9364 -0.8341
   74MOL   H34225308   6.654   4.565   3.500 -0.6424 -1.9053 -0.4895
   75MOL     C125309   2.380   2.092   5.907  0.4081 -0.1255 -0.2434
   75MOL     C225310   2.342   1.968   6.003  0.4223 -0.9197  0.1941
   75MOL     N325311   2.218   1.896   5.969 -0.1014 -0.0218 -0.0333
   75MOL     C425312   2.095   1.948   6.011 -0.1375 -0.7470  0.3369
   75MOL     C525313   1.988   1.844   5.970  0.2873  0.3056 -0.0614
   75MOL     C625314   2.048   1.788   5.840 -0.3834  0.3116  0.2256
   75MOL     C725315   2.199   1.821   5.857 -0.1646 -0.3233 -0.0175
   75MOL     O825316   2.284   1.772   5.782  0.0145  0.1069 -0.2805
   75MOL     H925317   2.454   2.047   5.841  0.5232  0.9095 -0.8257
   75MOL    H1025318   2.292   2.137   5.862 -0.0683  2.0624  2.7222
   75MOL    H1125319   2.318   2.021   6.096  0.9500  0.5884 -0.5018
   75MOL    H1225320   2.086   1.964   6.119  0.5480 -1.9365  0.5783
   75MOL    H1325321   2.081   2.039   5.952  0.1446 -1.1277 -0.3247
   75MOL    H1425322   1.980   1.764   6.043  1.4052  0.0155 -0.2423
   75MOL    H1525323   1.887   1.882   5.953 -0.7316 -0.6461  3.5917
   75MOL    H1625324   2.030   1.681   5.825  3.3255 -0.4773  0.8281
   75MOL    H1725325   2.023   1.840   5.748  0.4520  1.0279  0.3999
   75MOL    H1825326   2.425   2.172   5.966  1.6921 -0.8816 -0.1896
   75MOL    C1925327   2.467   1.872   6.021 -0.1936 -0.6044  0.9771
   75MOL    C2025328   2.599   1.937   6.078  0.8636 -0.9969  0.2081
   75MOL    N2125329   2.586   1.965   6.223  0.3739  0.4944  0.6129
   75MOL    C2225330   2.590   2.101   6.273  0.3379 -0.2306  0.2243
   75MOL    C2325331   2.582   2.086   6.426  0.1506 -0.5163  0.0858
   75MOL    C2425332   2.593   1.934   6.457 -0.6263  0.0297  0.0787
   75MOL    C2525333   2.586   1.870   6.322 -0.2752 -0.0581 -0.1852
   75MOL    O2625334   2.606   1.748   6.311 -0.2576 -0.0760 -0.2235
   75MOL    H2725335   2.491   1.829   5.924  0.4956  0.1333  0.8122
   75MOL    H2825336   2.435   1.793   6.088 -2.3288  0.1768  0.9259
   75MOL    H2925337   2.626   2.030   6.028  2.1745 -1.1545  0.5934
   75MOL    H3025338   2.689   2.135   6.245  0.6543 -1.7924 -0.6257
   75MOL    H3125339   2.511   2.165   6.234 -0.9378 -0.5016  2.2904
   75MOL    H3225340   2.659   2.158   6.455 -1.8367  1.7316 -0.0572
   75MOL    H3325341   2.484   2.120   6.457 -0.0685 -1.2967  0.2526
   75MOL    H3425342   2.693   1.902   6.486 -0.8411 -0.1491  0.6122
   75MOL    H3525343   2.528   1.892   6.534 -1.0309  0.5040 -0.0000
   75MOL    C3625344   2.710   1.830   6.039 -0.0716  0.6539  0.2573
   75MOL    C3725345   2.852   1.867   6.095 -0.1964  0.1000  0.1161
   75MOL    N3825346   2.951   1.765   6.059  0.1827  0.5807 -0.0630
   75MOL    C3925347   3.036   1.711   6.165 -0.2170 -0.9284  0.2575
   75MOL    C4025348   3.095   1.583   6.110 -1.0237 -0.0235  0.1837
   75MOL    C4125349   3.104   1.618   5.961  0.3200 -0.1397 -0.1121
   75MOL    C4225350   2.998   1.721   5.943 -0.1323  0.1989 -0.2322
   75MOL    O4325351   2.958   1.754   5.834  0.6309  0.2341  0.3536
   75MOL    H4425352   2.715   1.806   5.933 -2.1072  1.4519 -0.0488
   75MOL    H4525353   2.686   1.730   6.076 -0.8058  0.2175 -1.3892
   75MOL    H4625354   2.835   1.865   6.203  0.7850 -1.8237  0.2589
   75MOL    H4725355   3.119   1.777   6.188 -1.5710  1.0364 -0.3433
   75MOL    H4825356   2.969   1.683   6.246 -0.6739 -0.0851  0.1796
   75MOL    H4925357   3.192   1.568   6.156 -1.9481 -1.4301  1.7561
   75MOL    H5025358   3.036   1.491   6.113  0.1544 -0.8144 -0.4730
   75MOL    H5125359   3.197   1.672   5.942  0.0768  1.2735  2.5797
   75MOL    H5225360   3.100   1.526   5.902  0.5679 -0.9010  1.0431
   75MOL    C5325361   2.893   2.009   6.049 -0.4024 -0.2905  0.0708
   75MOL    C5425362   3.020   2.059   6.115 -0.4789  0.0845  0.4926
   75MOL    N5525363   3.083   2.180   6.057  0.3109 -0.0816  0.0186
   75MOL    C5625364   3.217   2.170   6.012  0.5187 -0.1935  0.6698
   75MOL    C5725365   3.251   2.320   5.978  0.3595 -0.1158 -0.5531
   75MOL    C5825366   3.140   2.403   6.039 -0.0286  0.0632  0.2828
   75MOL    C5925367   3.044   2.305   6.086  0.4452  0.5905  0.5237
   75MOL    O6025368   2.946   2.339   6.151  0.3058  0.2999 -0.2573
   75MOL    H6125369   2.824   2.090   6.071  1.2341  1.3968 -0.8207
   75MOL    H6225370   2.886   1.997   5.941 -1.1614  0.3437  0.0405
   75MOL    H6325371   3.094   1.983   6.087 -0.3721  0.6643 -0.8610
   75MOL    H6425372   3.286   2.134   6.089 -1.2620  1.0951  2.9506
   75MOL    H6525373   3.217   2.101   5.929 -1.3264 -0.3474  0.7746
   75MOL    H6625374   3.348   2.356   6.015 -0.2026  0.5749  0.2695
   75MOL    H6725375   3.244   2.331   5.870 -0.5413  1.1116 -0.3837
   75MOL    H6825376   3.179   2.449   6.130  2.1397 -0.7471 -0.2232
   75MOL    H6925377   3.098   2.485   5.981  0.3086  0.3581  0.4556
   75MOL    C7025378   3.012   2.071   6.270  0.6241  0.4725  0.1626
   75MOL    C7125379   3.145   2.115   6.330 -0.2379  0.3483 -1.0637
   75MOL    N7225380   3.119   2.160   6.466  0.4107  0.8499 -0.3802
   75MOL    C7325381   3.170   2.293   6.495  0.3080 -0.6181 -0.0461
   75MOL    C7425382   3.101   2.321   6.629  0.0966 -0.2685  0.8366
   75MOL    C7525383   3.055   2.181   6.681  0.3354  0.2828 -0.1318
   75MOL    C7625384   3.070   2.088   6.564  0.6263 -0.6305 -0.7043
   75MOL    O7725385   3.042   1.974   6.563  0.6511  0.3639 -0.3390
   75MOL    H7825386   2.984   1.973   6.310 -1.5007  0.1956 -1.8885
   75MOL    H7925387   2.933   2.140   6.299 -0.2759 -0.2910 -0.4390
   75MOL    H8025388   3.192   2.199   6.279  1.5925  0.8146  1.3002
   75MOL    H8125389   3.277   2.284   6.513  0.2978  0.3836  0.5630
   75MOL    H8225390   3.155   2.372   6.421 -2.3815 -1.3055 -0.3055
   75MOL    H8325391   3.164   2.380   6.695  2.0280 -0.5551 -0.7181
   75MOL    H8425392   3.011   2.380   6.609  0.9984  0.3183 -1.6403
   75MOL    H8525393   3.126   2.153   6.758 -0.8134 -3.3786 -0.3038
   75MOL    H8625394   2.954   2.191   6.719 -0.4476 -1.0598 -1.7885
   75MOL    C8725395   3.240   1.995   6.334 -0.7780  0.2627 -0.4895
   75MOL    C8825396   3.387   2.016   6.373 -0.3621 -0.4069 -0.1482
   75MOL    N8925397   3.441   1.892   6.420 -0.8732  1.0694 -0.4562
   75MOL    C9025398   3.426   1.852   6.558  0.5940  0.4321  0.8607
   75MOL    C9125399   3.462   1.698   6.566  0.4640  0.5035  0.2597
   75MOL    C9225400   3.487   1.659   6.417 -0.1824  0.5305 -0.7187
   75MOL    C9325401   3.479   1.786   6.342  0.2442 -0.1007 -0.2384
   75MOL    O9425402   3.477   1.787   6.219 -0.3820  0.1212 -0.3975
   75MOL    H9525403   3.255   1.959   6.232  1.7683 -0.0072 -0.0470
   75MOL    H9625404   3.200   1.910   6.389 -0.2974 -0.9086 -1.9069
   75MOL    H9725405   3.384   2.085   6.458  0.1595 -0.6138  0.0403
   75MOL    H9825406   3.482   1.921   6.622  0.7761  1.2709 -0.1932
   75MOL    H9925407   3.321   1.867   6.583  0.3184  3.2383 -1.6916
   75MOL   H10025408   3.552   1.688   6.626  0.7282  2.2742  0.2091
   75MOL   H10125409   3.376   1.645   6.606 -0.5387  2.4006  0.7082
   75MOL   H10225410   3.589   1.620   6.413 -0.0833  0.5832  1.0542
   75MOL   H10325411   3.415   1.582   6.389 -1.2157  1.8521 -1.8081
   75MOL   C10425412   3.480   2.085   6.268 -0.5800 -0.5537  0.1145
   75MOL   C10525413   3.633   2.104   6.301 -0.1089 -0.5052 -0.5019
   75MOL   N10625414   3.700   2.149   6.181 -0.5250  0.2440  0.5461
   75MOL   C10725415   3.668   2.275   6.113  0.8494 -0.9665 -0.2180
   75MOL   C10825416   3.743   2.270   5.976  0.3473  0.1938 -0.5731
   75MOL   C10925417   3.837   2.146   5.984 -0.2406 -0.4489  0.1560
   75MOL   C11025418   3.801   2.083   6.116  0.3914 -0.0618 -0.0186
   75MOL   O11125419   3.860   1.988   6.156 -0.3470 -0.1509 -0.0672
   75MOL   H11225420   3.444   2.186   6.250  0.3524 -0.3119 -0.4065
   75MOL   H11325421   3.482   2.033   6.172 -0.2092 -0.1173 -0.1132
   75MOL   H11425422   3.671   2.007   6.332  0.7879  0.2162  0.6959
   75MOL   H11525423   3.563   2.298   6.092  0.9240  0.7598  1.1840
   75MOL   H11625424   3.712   2.359   6.165  1.6386  0.2570 -2.8155
   75MOL   H11725425   3.666   2.258   5.900 -0.4429 -0.6430  0.3439
   75MOL   H11825426   3.797   2.360   5.948 -1.0009  1.8616  2.0462
   75MOL   H11925427   3.943   2.170   5.983 -0.5475  1.0164  1.7586
   75MOL   H12025428   3.808   2.087   5.897 -1.2339 -0.2218  0.3331
   75MOL   C12125429   3.665   2.210   6.407 -0.2103  0.2281 -0.7685
   75MOL   C12225430   3.812   2.198   6.461  0.4444 -0.6380 -0.5576
   75MOL   N12325431   3.872   2.326   6.454 -0.8423 -0.9176  0.0402
   75MOL   C12425432   3.989   2.344   6.367 -0.2431  0.6196  0.8450
   75MOL   C12525433   4.001   2.489   6.355  0.3821  0.1752 -0.7451
   75MOL   C12625434   3.944   2.545   6.485 -0.2476  0.0652  0.0556
   75MOL   C12725435   3.844   2.439   6.518 -0.1048  0.0217  0.5432
   75MOL   O12825436   3.748   2.462   6.589  0.2329  0.0728  0.4914
   75MOL   H12925437   3.603   2.193   6.495  0.3526 -1.3380 -0.6599
   75MOL   H13025438   3.640   2.310   6.371  0.2916  0.7643  0.3712
   75MOL   H13125439   3.874   2.130   6.403  0.7033 -0.2228 -0.7697
   75MOL   H13225440   3.980   2.302   6.267  0.5580 -1.4710  1.6180
   75MOL   H13325441   4.081   2.306   6.411 -0.1221 -0.5362 -0.3884
   75MOL   H13425442   4.106   2.517   6.341 -0.1866  2.4706 -0.6093
   75MOL   H13525443   3.949   2.525   6.267  0.1932 -1.3204 -1.2613
   75MOL   H13625444   4.005   2.564   6.573 -0.9326  1.3502  0.2671
   75MOL   H13725445   3.890   2.638   6.467  0.7269  0.3524 -1.4281
   75MOL   C13825446   3.803   2.151   6.612  0.2356 -0.0219 -0.0680
   75MOL   C13925447   3.784   2.001   6.635  0.1698  0.1311 -1.0268
   75MOL   N14025448   3.894   1.914   6.576 -0.1728  0.4397  0.6941
   75MOL   C14125449   3.859   1.803   6.487  0.3225  0.3426  0.3813
   75MOL   C14225450   3.982   1.723   6.454 -0.1238 -0.3389 -0.5000
   75MOL   C14325451   4.088   1.776   6.554  0.6585 -0.0148  0.5628
   75MOL   C14425452   4.021   1.899   6.614 -0.7886 -0.5200  0.6007
   75MOL   O14525453   4.083   1.971   6.697  0.7707  0.0095  0.0759
   75MOL   H14625454   3.727   2.201   6.672  0.5777 -1.2029  1.3592
   75MOL   H14725455   3.899   2.170   6.658 -1.2913  0.4437  3.0396
   75MOL   H14825456   3.696   1.960   6.586 -0.2794  0.1654 -0.2584
   75MOL   H14925457   3.789   1.734   6.535  0.5345 -2.5486 -3.2211
   75MOL   H15025458   3.811   1.835   6.394 -0.1344  0.8266  0.7757
   75MOL   H15125459   3.968   1.618   6.480 -0.8299  0.8259  4.3927
   75MOL   H15225460   4.036   1.742   6.361  0.2013  1.9900  0.1198
   75MOL   H15325461   4.175   1.812   6.498 -1.1278  3.7574  0.0468
   75MOL   H15425462   4.122   1.701   6.625 -0.3651 -0.4990  0.5463
   75MOL   C15525463   3.763   1.966   6.783 -0.2162 -0.5289  0.1947
   75MOL   C15625464   3.633   2.015   6.862  0.7051  0.9603 -0.4624
   75MOL   N15725465   3.512   1.934   6.867 -0.4237  0.4624  1.1279
   75MOL   C15825466   3.389   2.004   6.869  0.3674 -0.3461 -0.2531
   75MOL   C15925467   3.287   1.895   6.893 -0.0723 -0.0460  0.0968
   75MOL   C16025468   3.365   1.767   6.931  0.0402 -0.1471  0.7782
   75MOL   C16125469   3.511   1.808   6.919 -0.2070  0.2105  0.5319
   75MOL   O16225470   3.597   1.735   6.955 -0.2856  0.1459 -0.2047
   75MOL   H16325471   3.854   2.005   6.829 -1.1656  0.9866  0.8040
   75MOL   H16425472   3.762   1.860   6.808  0.2200 -0.2297  1.5133
   75MOL   H16525473   3.605   2.116   6.830  0.5237  1.6511  1.7813
   75MOL   H16625474   3.375   2.084   6.942  2.0179 -2.0411  1.9869
   75MOL   H16725475   3.364   2.050   6.773  2.8011 -0.7578 -1.1063
   75MOL   H16825476   3.206   1.919   6.963  0.2104 -0.1638  0.4681
   75MOL   H16925477   3.232   1.882   6.800 -0.9585  0.7192  0.5074
   75MOL   H17025478   3.347   1.718   7.027  2.7008 -1.1275  0.8251
   75MOL   H17125479   3.350   1.688   6.857  0.5435  1.4443 -1.0720
   75MOL   C17225480   3.671   2.049   7.006 -0.2633 -0.0436 -0.0427
   75MOL   C17325481   3.761   2.170   7.030  0.6140 -0.1783 -0.5859
   75MOL   N17425482   3.686   2.292   7.013 -0.2780  0.0335  0.1015
   75MOL   C17525483   3.757   2.401   6.947 -0.6900  0.5105 -0.1978
   75MOL   C17625484   3.663   2.521   6.940  0.0591  0.4708  0.1761
   75MOL   C17725485   3.532   2.470   6.995  0.0586  0.0752 -0.3766
   75MOL   C17825486   3.555   2.326   7.034  0.6574  0.1866 -0.0957
   75MOL   O17925487   3.464   2.258   7.072 -0.1155 -0.0121 -0.0569
   75MOL   H18025488   3.717   1.959   7.047  2.4891  0.1284 -2.5521
   75MOL   H18125489   3.582   2.049   7.069 -0.7543  0.7802 -0.7231
   75MOL   H18225490   3.851   2.157   6.971  0.3958 -0.8061 -0.7785
   75MOL   H18325491   3.848   2.423   7.003  0.3728  0.8139 -1.9928
   75MOL   H18425492   3.788   2.364   6.849  1.6053  1.4322  0.1552
   75MOL   H18525493   3.641   2.547   6.836 -0.0220  0.7480  0.2620
   75MOL   H18625494   3.691   2.610   6.996  4.1856  1.2663 -2.8934
   75MOL   H18725495   3.496   2.521   7.084  0.5641  1.4685 -0.9637
   75MOL   H18825496   3.449   2.464   6.924 -1.3706  0.3923  1.2186
   75MOL   C18925497   3.806   2.175   7.173 -0.1674  0.0678 -0.0270
   75MOL   C19025498   3.889   2.056   7.220  0.5975 -0.0157 -0.7086
   75MOL   N19125499   3.990   2.009   7.129  0.2722 -0.6961 -0.3119
   75MOL   C19225500   3.993   1.870   7.088 -0.3885 -0.1203  0.2671
   75MOL   C19325501   4.121   1.854   7.010  0.4566  0.2348  0.1169
   75MOL   C19425502   4.190   1.993   7.011  0.3251 -0.9231 -0.5058
   75MOL   C19525503   4.094   2.086   7.085 -0.1701 -0.8418 -0.1619
   75MOL   O19625504   4.119   2.201   7.113  0.0685 -0.2237 -0.1247
   75MOL   H19725505   3.720   2.185   7.239 -1.4777  0.7665 -1.8029
   75MOL   H19825506   3.867   2.264   7.190  1.1167 -0.8259  0.1046
   75MOL   H19925507   3.822   1.970   7.230 -1.6377  1.7559 -0.1141
   75MOL   H20025508   3.991   1.803   7.173 -0.0090 -2.0923 -1.2308
   75MOL   H20125509   3.907   1.843   7.026 -1.0092  1.3534  0.4698
   75MOL   H20225510   4.179   1.775   7.058  1.9416  1.3835  0.2441
   75MOL   H20325511   4.099   1.810   6.913 -2.8087 -2.0455  1.7534
   75MOL   H20425512   4.281   1.985   7.070  0.1300  2.2108  0.2760
   75MOL   H20525513   4.212   2.044   6.917  0.1756  1.5260  0.7595
   75MOL   C20625514   3.955   2.077   7.357 -0.1608 -0.5314  0.1802
   75MOL   C20725515   3.851   2.107   7.480  0.0334 -1.0357 -0.0817
   75MOL   N20825516   3.735   2.015   7.481  0.5859 -0.3385  0.4089
   75MOL   C20925517   3.603   2.076   7.499 -0.0276  0.1585 -0.5391
   75MOL   C21025518   3.506   1.959   7.508 -0.5176  0.4276 -0.1362
   75MOL   C21125519   3.582   1.827   7.496 -0.9552  0.0254  0.1100
   75MOL   C21225520   3.728   1.880   7.474  0.0654  0.1309 -0.1400
   75MOL   O21325521   3.820   1.806   7.462 -0.1805  0.4341 -0.1893
   75MOL   H21425522   4.027   2.159   7.350  0.1437 -0.7870  0.3268
   75MOL   H21525523   4.018   1.992   7.382  0.3735 -1.0147 -2.5972
   75MOL   H21625524   3.815   2.201   7.438 -0.8144 -0.7747  1.2033
   75MOL   H21725525   3.595   2.144   7.584 -0.5657  0.3131 -0.7136
   75MOL   H21825526   3.578   2.139   7.413  0.5622 -2.6626 -2.8424
   75MOL   H21925527   3.436   1.976   7.591 -1.0255  0.2223 -0.5245
   75MOL   H22025528   3.431   1.965   7.429  0.3608  0.8595 -0.9479
   75MOL   H22125529   3.598   1.761   7.581  1.1798 -2.7475 -2.3199
   75MOL   H22225530   3.541   1.764   7.416  0.0930 -1.3661  0.6571
   75MOL   C22325531   3.909   2.123   7.621  0.0305 -0.5782  0.1003
   75MOL   C22425532   4.002   2.247   7.639 -0.2696  0.5747 -0.1376
   75MOL   N22525533   3.941   2.369   7.581  0.4083 -0.3219 -0.9117
   75MOL   C22625534   3.995   2.443   7.470  0.2746  1.1265 -0.3115
   75MOL   C22725535   3.882   2.527   7.410 -0.5371  0.5326 -0.4495
   75MOL   C22825536   3.775   2.525   7.522 -0.8462 -0.5231 -0.4191
   75MOL   C22925537   3.817   2.421   7.611  0.3957  0.1876  0.1380
   75MOL   O23025538   3.738   2.366   7.690 -0.5997  0.4070 -0.1530
   75MOL   H23125539   3.971   2.036   7.640 -0.8592 -1.3289 -0.3637
   75MOL   H23225540   3.829   2.128   7.695  0.9552 -0.7913  1.1214
   75MOL   H23325541   4.097   2.237   7.587 -0.1434 -1.0762  0.4056
   75MOL   H23425542   4.072   2.504   7.519  1.2093 -0.1670 -0.1604
   75MOL   H23525543   4.042   2.378   7.396 -0.1283  1.6998 -1.0772
   75MOL   H23625544   3.903   2.634   7.399 -0.0236  0.8646  3.1284
   75MOL   H23725545   3.844   2.498   7.312  1.9480 -1.8027 -0.7761
   75MOL   H23825546   3.775   2.620   7.574  0.1078 -0.9859  0.4542
   75MOL   H23925547   3.674   2.502   7.488 -0.5426 -0.2940 -1.5061
   75MOL   C24025548   4.024   2.284   7.784  0.0048 -0.1312 -0.1661
   75MOL   C24125549   4.091   2.176   7.876  0.1093 -0.4716 -0.0172
   75MOL   N24225550   4.221   2.224   0.031 -0.1770 -0.3586  0.5276
   75MOL   C24325551   4.341   2.183   7.866  0.6825  0.1212 -0.1091
   75MOL   C24425552   4.454   2.254   0.032  0.8718 -0.8853 -0.0914
   75MOL   C24525553   4.396   2.335   0.151  0.6147  0.1427  0.8341
   75MOL   C24625554   4.245   2.316   0.130 -0.5628  0.7673  0.5729
   75MOL   O24725555   4.161   2.385   0.185 -0.4770 -0.1881  0.1003
   75MOL   H24825556   3.925   2.299   7.827  0.2815  3.0007 -0.4890
   75MOL   H24925557   4.076   2.378   7.801 -1.8413  1.6456 -3.7497
   75MOL   H25025558   4.130   2.094   7.816  2.5471  0.8572 -0.3271
   75MOL   H25125559   4.346   2.076   7.883  0.2775 -0.4396 -3.1875
   75MOL   H25225560   4.337   2.206   7.759  1.0972 -0.3617 -0.2283
   75MOL   H25325561   4.532   2.184   0.063  1.7777 -0.1672 -0.7465
   75MOL   H25425562   4.506   2.309   7.860 -0.7381  0.7764 -0.0225
   75MOL   H25525563   4.421   2.299   0.251  1.3896  0.8572  0.9044
   75MOL   H25625564   4.410   2.443   0.144  4.1523 -0.1710  1.7585
   75MOL   C25725565   3.997   2.122   0.076  0.5758 -0.2734 -0.5595
   75MOL   C25825566   4.037   1.985   0.133 -0.0590  0.1896 -0.3237
   75MOL   N25925567   4.021   1.989   0.276 -0.2151 -0.5898 -0.4333
   75MOL   C26025568   4.117   1.928   0.363 -0.2176 -0.1019 -0.4400
   75MOL   C26125569   4.081   1.969   0.504  0.3697  0.2730  0.7736
   75MOL   C26225570   3.951   2.046   0.488 -0.1466 -0.5255  0.8463
   75MOL   C26325571   3.921   2.045   0.345 -0.2295  0.4585 -0.3140
   75MOL   O26425572   3.814   2.080   0.303 -0.1717 -0.6757  0.0718
   75MOL   H26525573   3.896   2.116   0.034  0.3515 -0.4347 -0.0015
   75MOL   H26625574   4.000   2.200   0.152 -1.1248  0.2583 -1.0130
   75MOL   H26725575   4.142   1.968   0.106 -0.3534 -1.8838 -0.2832
   75MOL   H26825576   4.109   1.821   0.344 -0.6560  0.1206 -1.5545
   75MOL   H26925577   4.219   1.959   0.340 -0.2854  0.2876 -0.2274
   75MOL   H27025578   4.051   1.875   0.550 -0.3120 -0.4752 -1.1172
   75MOL   H27125579   4.165   2.014   0.556  0.8902 -1.5677  1.5693
   75MOL   H27225580   3.865   2.023   0.550  0.5681 -3.5302  0.7972
   75MOL   H27325581   3.960   2.153   0.507  0.5065 -0.3785 -0.2559
   75MOL   C27425582   3.949   1.871   0.063  0.0486 -0.7374 -0.5821
   75MOL   C27525583   4.040   1.751   0.011 -0.4122 -0.0972  0.6229
   75MOL   N27625584   3.968   1.623   0.017 -0.5597 -0.0018 -0.0515
   75MOL   C27725585   4.020   1.518   0.105 -0.1282  0.6791  0.0786
   75MOL   C27825586   3.925   1.399   0.077  0.5308 -0.5753 -0.0144
   75MOL   C27925587   3.800   1.458   0.012 -0.4770 -0.1376  0.0754
   75MOL   C28025588   3.842   1.596   7.871 -0.9177  0.1146  0.1710
   75MOL   O28125589   3.776   1.667   7.794 -0.0870  0.1282 -0.2840
   75MOL   H28225590   3.876   1.908   7.896 -0.0182 -0.9414 -0.6177
   75MOL   H28325591   3.875   1.830   0.131 -0.3348  1.1388  0.1605
   75MOL   H28425592   4.126   1.754   0.078 -0.7929 -0.4183  1.1294
   75MOL   H28525593   4.125   1.499   0.083 -0.4331 -1.0504  0.0816
   75MOL   H28625594   4.007   1.562   0.204 -1.0807  0.3708  0.0938
   75MOL   H28725595   3.976   1.339   0.001 -2.1817 -0.7399 -1.7766
   75MOL   H28825596   3.908   1.326   0.156  3.3107 -0.9432  0.2959
   75MOL   H28925597   3.767   1.403   7.830  3.5878  0.4999 -1.9528
   75MOL   H29025598   3.718   1.469   0.084 -0.4428 -0.1870  0.1221
   75MOL   C29125599   4.095   1.779   7.778  0.0141  0.9128  0.5967
   75MOL   C29225600   4.234   1.713   7.737  0.8402  0.4570  0.0949
   75MOL   N29325601   4.254   1.730   7.588  0.0682  1.1071  0.3004
   75MOL   C29425602   4.209   1.634   7.494 -0.4116 -0.4264  0.4342
   75MOL   C29525603   4.279   1.669   7.358  0.2814 -1.0040 -0.5668
   75MOL   C29625604   4.285   1.817   7.363 -0.6664 -0.5406 -0.4786
   75MOL   C29725605   4.287   1.841   7.512  0.0340  0.4802  0.2271
   75MOL   O29825606   4.310   1.955   7.552 -0.6373 -0.0422 -0.8202
   75MOL   H29925607   4.095   1.887   7.767 -2.2658  0.9756  0.8312
   75MOL   H30025608   4.017   1.749   7.707  0.8488  3.5421 -1.4931
   75MOL   H30125609   4.219   1.605   7.746 -3.3239  0.8999 -0.5957
   75MOL   H30225610   4.227   1.528   7.510 -1.6034 -1.0594 -2.0698
   75MOL   H30325611   4.100   1.634   7.492 -0.4646 -0.3026  2.5705
   75MOL   H30425612   4.379   1.627   7.370  0.0845 -1.0440  1.0870
   75MOL   H30525613   4.241   1.627   7.265 -1.1811 -0.4839 -0.2150
   75MOL   H30625614   4.372   1.857   7.310 -1.4648 -0.4898 -1.7669
   75MOL   H30725615   4.195   1.859   7.317 -0.6713 -0.8185 -0.7229
   75MOL   C30825616   4.354   1.770   7.825  0.5303  0.0708 -0.6067
   75MOL   C30925617   4.390   1.672   0.031 -0.9157  0.3379 -0.0360
   75MOL   N31025618   4.437   1.543   7.880 -0.4753 -0.5526  0.6172
   75MOL   C31125619   4.385   1.421   0.026  0.2723  0.1163 -0.0671
   75MOL   C31225620   4.456   1.298   7.867  0.1735 -0.0360 -0.1261
   75MOL   C31325621   4.522   1.363   7.741  0.1095  0.5054 -0.8546
   75MOL   C31425622   4.519   1.515   7.778  1.0453  0.5908  0.1573
   75MOL   O31525623   4.584   1.598   7.723  0.1307  0.3711  0.0629
   75MOL   H31625624   4.316   1.864   7.866  0.5241 -0.6297  1.0497
   75MOL   H31725625   4.437   1.801   7.762 -0.3771  0.1356 -1.7937
   75MOL   H31825626   4.307   1.639   0.093 -1.4048  2.3417  0.4041
   75MOL   H31925627   4.395   1.412   0.134  0.3666  0.3285 -0.0581
   75MOL   H32025628   4.282   1.401   7.902  0.0141 -0.6110  1.2812
   75MOL   H32125629   4.529   1.267   0.035 -0.0195  0.6657  0.3598
   75MOL   H32225630   4.390   1.218   7.834 -1.4159  1.9713 -2.0311
   75MOL   H32325631   4.619   1.319   7.720  0.3716  1.4392 -1.6613
   75MOL   H32425632   4.459   1.364   7.652 -1.4146  1.4333  0.2035
   75MOL   C32525633   4.496   1.730   0.125 -0.2689 -0.0770  0.7847
   75MOL   C32625634   4.446   1.834   0.221  0.2877  0.6398  0.0409
   75MOL   N32725635   4.549   1.886   0.317  0.6522  0.8072  0.1374
   75MOL   C32825636   4.497   1.971   0.419  0.4919 -0.7569  0.2412
   75MOL   C32925637   4.624   2.004   0.499  0.2805  0.6796 -0.5153
   75MOL   C33025638   4.747   1.977   0.413  0.0023  0.3036  0.5768
   75MOL   C33125639   4.683   1.898   0.302  0.3753 -0.4977  0.1134
   75MOL   O33225640   4.757   1.857   0.210  0.0329  0.6015  0.2416
   75MOL   H33325641   4.575   1.772   0.062  0.7196 -0.5434  1.7063
   75MOL   H33425642   4.544   1.652   0.185  1.6755  0.6152  0.1851
   75MOL   H33525643   4.359   1.793   0.273  0.4903 -1.2458 -1.0561
   75MOL   H33625644   4.436   2.051   0.376  0.4498 -1.8829 -1.8786
   75MOL   H33725645   4.437   1.914   0.490  1.8829  0.0918  2.1194
   75MOL   H33825646   4.612   2.107   0.530  1.6145  0.3414  1.1904
   75MOL   H33925647   4.632   1.945   0.591  0.8965  2.1811  0.4069
   75MOL   H34025648   4.796   2.063   0.366  0.8719 -0.3552  0.2525
   75MOL   H34125649   4.823   1.915   0.461 -0.4695  0.4461  1.5167
   75MOL   H34225650   4.407   1.917   0.163  0.4312  1.4088  1.0411
   76MOL     C125651   0.419   5.338   2.951 -0.3235 -0.6433  0.7888
   76MOL     C225652   0.416   5.430   3.075  0.8260  0.7409  0.2807
   76MOL     N325653   0.411   5.348   3.203  0.3367  0.3718 -0.1160
   76MOL     C425654   0.303   5.372   3.299 -0.1226 -0.2530  0.0535
   76MOL     C525655   0.339   5.278   3.421  0.0759 -0.1295  0.4463
   76MOL     C625656   0.485   5.233   3.399 -0.0261  0.4350 -0.4849
   76MOL     C725657   0.516   5.286   3.263 -0.2153 -0.5806  0.5379
   76MOL     O825658   0.628   5.277   3.218 -0.6278 -0.1876  0.1790
   76MOL     H925659   0.524   5.311   2.938 -0.5181  0.4325 -3.8221
   76MOL    H1025660   0.372   5.243   2.977  2.2756 -2.1910 -0.0107
   76MOL    H1125661   0.320   5.479   3.071  0.0212 -0.6242  1.8841
   76MOL    H1225662   0.307   5.479   3.323 -0.8140 -0.5519  1.5047
   76MOL    H1325663   0.204   5.350   3.260 -0.7423  0.6198  1.1164
   76MOL    H1425664   0.316   5.329   3.515  0.9846 -1.1315  1.2224
   76MOL    H1525665   0.273   5.191   3.424 -1.1703  0.7611 -0.7145
   76MOL    H1625666   0.560   5.276   3.466  1.7960 -0.2189 -2.0975
   76MOL    H1725667   0.495   5.125   3.393 -0.5958  0.4443 -1.6631
   76MOL    H1825668   0.360   5.379   2.870  1.1684 -1.1238 -0.5666
   76MOL    C1925669   0.525   5.536   3.086 -0.5891 -0.1627  0.2761
   76MOL    C2025670   0.530   5.643   2.970  0.9575 -0.2667  0.9516
   76MOL    N2125671   0.421   5.735   2.976 -0.5709 -0.0311 -0.4193
   76MOL    C2225672   0.400   5.828   3.085  0.3510 -0.2314  0.3283
   76MOL    C2325673   0.288   5.926   3.038 -0.2649 -1.1547  0.0067
   76MOL    C2425674   0.237   5.871   2.905 -0.2362 -0.3371  0.8933
   76MOL    C2525675   0.318   5.742   2.885 -0.2912  0.5283 -0.3536
   76MOL    O2625676   0.287   5.665   2.797 -0.1809  0.0879  0.7253
   76MOL    H2725677   0.622   5.486   3.077 -0.7324 -0.4038  0.0850
   76MOL    H2825678   0.522   5.584   3.184 -1.7875  2.4469 -0.9959
   76MOL    H2925679   0.524   5.592   2.874 -1.9333  1.0315  0.3949
   76MOL    H3025680   0.361   5.782   3.176 -0.5759  0.2323  0.1745
   76MOL    H3125681   0.491   5.874   3.123 -0.5916  1.3992  0.6582
   76MOL    H3225682   0.204   5.938   3.106 -1.1124  0.2802 -1.2815
   76MOL    H3325683   0.320   6.030   3.036 -0.3483 -1.1516 -1.5587
   76MOL    H3425684   0.130   5.851   2.903 -0.2548 -0.1210 -0.1673
   76MOL    H3525685   0.282   5.933   2.827 -1.1976 -1.8717 -0.9155
   76MOL    C3625686   0.663   5.716   2.963  0.2790 -0.6901  0.7514
   76MOL    C3725687   0.775   5.636   2.903 -0.0402  0.9639  0.1530
   76MOL    N3825688   0.775   5.651   2.757 -0.0153  0.3781 -0.1713
   76MOL    C3925689   0.765   5.532   2.675  0.0513  0.4115  0.1635
   76MOL    C4025690   0.799   5.573   2.537  0.2490 -0.3776  1.0034
   76MOL    C4125691   0.808   5.723   2.538  0.4409  0.0708  0.3526
   76MOL    C4225692   0.787   5.762   2.683  0.2753 -0.1664 -0.0819
   76MOL    O4325693   0.779   5.874   2.722 -0.2016  0.0086 -0.2256
   76MOL    H4425694   0.689   5.747   3.064  1.0664 -0.8891  0.6129
   76MOL    H4525695   0.647   5.811   2.911  2.1778 -0.9961 -0.4535
   76MOL    H4625696   0.766   5.530   2.925 -0.5189  1.0251  0.2581
   76MOL    H4725697   0.828   5.451   2.713 -0.2265  0.4454  0.7101
   76MOL    H4825698   0.660   5.502   2.686 -0.0829 -0.0875 -2.1654
   76MOL    H4925699   0.899   5.533   2.519 -0.9818 -2.4966 -1.3138
   76MOL    H5025700   0.741   5.525   2.459  2.5893  2.1544 -2.4699
   76MOL    H5125701   0.904   5.759   2.500  1.0733 -0.2626  1.6125
   76MOL    H5225702   0.730   5.765   2.474  0.6653 -2.3954 -1.5902
   76MOL    C5325703   0.910   5.682   2.957 -0.0356 -0.2948 -0.0417
   76MOL    C5425704   0.963   5.628   3.091 -0.1513 -0.5564  0.2074
   76MOL    N5525705   0.959   5.482   3.101 -0.4383 -0.1001  0.0717
   76MOL    C5625706   0.927   5.435   3.234 -0.1079 -0.7186  0.0972
   76MOL    C5725707   0.966   5.281   3.227 -0.1717 -0.5217  0.0871
   76MOL    C5825708   0.970   5.243   3.076 -0.0607 -0.1703 -1.2549
   76MOL    C5925709   0.985   5.383   3.016 -0.7764 -0.0543  0.4967
   76MOL    O6025710   1.026   5.402   2.903 -0.3162  0.3909 -0.1924
   76MOL    H6125711   0.910   5.791   2.952 -3.0237 -0.2986 -0.9676
   76MOL    H6225712   0.981   5.642   2.884 -0.8925 -3.1228  0.6016
   76MOL    H6325713   0.903   5.667   3.173  0.7449 -0.6642  0.9156
   76MOL    H6425714   0.991   5.484   3.307  0.5249 -0.0029 -0.9234
   76MOL    H6525715   0.821   5.454   3.252 -0.1575  0.3217 -1.2260
   76MOL    H6625716   1.057   5.273   3.286  0.8805  3.0814 -0.9417
   76MOL    H6725717   0.890   5.219   3.275  0.6327 -0.5192  1.3787
   76MOL    H6825718   1.048   5.171   3.052  0.4695  0.0910 -0.3291
   76MOL    H6925719   0.876   5.193   3.055 -1.1706  0.7035  1.4325
   76MOL    C7025720   1.111   5.667   3.110 -0.0305 -0.4051 -0.1204
   76MOL    C7125721   1.139   5.815   3.130 -0.0002 -0.2561 -0.2089
   76MOL    N7225722   1.073   5.869   3.252 -0.0134  0.1292  0.6199
   76MOL    C7325723   0.947   5.942   3.250 -0.7514 -0.8457 -0.0405
   76MOL    C7425724   0.878   5.921   3.387  0.0650 -0.3262 -0.3654
   76MOL    C7525725   0.997   5.860   3.477 -0.2410 -0.3969  0.1372
   76MOL    C7625726   1.104   5.827   3.378  0.2116 -0.2705 -0.0374
   76MOL    O7725727   1.205   5.764   3.419 -0.2854 -0.8357 -0.1362
   76MOL    H7825728   1.170   5.632   3.025 -0.7380 -2.1944  0.1081
   76MOL    H7925729   1.156   5.619   3.197 -3.0633  1.0069  2.3567
   76MOL    H8025730   1.099   5.874   3.047  1.3634  1.2166  0.1473
   76MOL    H8125731   0.956   6.048   3.231  3.0461 -1.3383 -1.4159
   76MOL    H8225732   0.880   5.895   3.178 -1.2482  0.0312 -0.1551
   76MOL    H8325733   0.833   6.016   3.413  1.9022  0.4807 -0.0309
   76MOL    H8425734   0.803   5.845   3.365  0.8504 -1.5004  0.9343
   76MOL    H8525735   1.025   5.935   3.551  2.8191  0.0832 -1.4290
   76MOL    H8625736   0.957   5.775   3.533 -1.4408  0.1911  0.1954
   76MOL    C8725737   1.293   5.841   3.139 -0.0206 -0.2391 -0.8193
   76MOL    C8825738   1.342   5.900   3.001  0.3189  0.1448 -0.3385
   76MOL    N8925739   1.479   5.941   3.020 -0.2789 -0.5941 -0.1355
   76MOL    C9025740   1.509   6.083   3.056 -0.0314  0.1525  0.1809
   76MOL    C9125741   1.649   6.096   3.109 -0.1724 -0.6548  0.1152
   76MOL    C9225742   1.709   5.956   3.091  0.3959 -0.1857 -0.2357
   76MOL    C9325743   1.593   5.871   3.039 -0.0205 -0.0065  0.2041
   76MOL    O9425744   1.595   5.748   3.028  0.1648  0.2944  0.3312
   76MOL    H9525745   1.348   5.750   3.162 -0.0623 -0.1082 -0.1934
   76MOL    H9625746   1.333   5.912   3.211 -1.8586 -0.0028 -0.0023
   76MOL    H9725747   1.294   5.995   2.979  0.8446  0.5165  0.0894
   76MOL    H9825748   1.491   6.148   2.970 -1.1394  1.9714  1.7521
   76MOL    H9925749   1.431   6.119   3.124  0.8878  3.2851 -0.3624
   76MOL   H10025750   1.704   6.159   3.038  0.1013 -1.9829 -0.8730
   76MOL   H10125751   1.657   6.125   3.213  1.0024  3.4945 -1.0076
   76MOL   H10225752   1.780   5.959   3.009  2.4482  2.7591  1.5442
   76MOL   H10325753   1.759   5.913   3.178  1.4862  0.6995 -0.4238
   76MOL   C10425754   1.330   5.809   2.884  0.0068  0.1081  0.3052
   76MOL   C10525755   1.394   5.848   2.749  0.8552 -0.1342  0.3708
   76MOL   N10625756   1.357   5.761   2.637 -0.1947  0.5901  0.0329
   76MOL   C10725757   1.230   5.787   2.572  0.1067  0.4053  0.3008
   76MOL   C10825758   1.210   5.668   2.488 -0.4136 -0.4176 -0.2444
   76MOL   C10925759   1.318   5.565   2.527 -0.5021 -0.2025  0.0358
   76MOL   C11025760   1.413   5.641   2.612 -0.0032 -0.8207 -0.4799
   76MOL   O11125761   1.517   5.602   2.660 -0.5698 -0.3591  0.5137
   76MOL   H11225762   1.223   5.800   2.861 -0.5446  1.2102  2.3651
   76MOL   H11325763   1.357   5.707   2.912 -1.6145 -0.1816  0.8501
   76MOL   H11425764   1.500   5.824   2.761  0.5465 -0.4681  2.7955
   76MOL   H11525765   1.160   5.782   2.656 -0.7768 -2.1453 -0.5424
   76MOL   H11625766   1.225   5.875   2.508 -0.8151  1.0405  1.2227
   76MOL   H11725767   1.112   5.626   2.507 -0.1810 -0.7386  0.2706
   76MOL   H11825768   1.210   5.692   2.382  2.3528 -0.6825 -0.3452
   76MOL   H11925769   1.379   5.536   2.441  0.8262  1.3995  0.3973
   76MOL   H12025770   1.272   5.479   2.576 -0.7000  0.2401  0.6271
   76MOL   C12125771   1.362   5.995   2.701 -0.1754 -0.0740  0.2655
   76MOL   C12225772   1.468   6.046   2.593 -0.3787  0.1379 -0.4599
   76MOL   N12325773   1.428   6.179   2.538 -0.2894 -1.0353  0.7868
   76MOL   C12425774   1.423   6.208   2.392  0.4022 -0.3413  0.3904
   76MOL   C12525775   1.387   6.364   2.380 -0.2418  0.5753  0.4191
   76MOL   C12625776   1.370   6.409   2.524  0.5229  0.0141 -0.7878
   76MOL   C12725777   1.400   6.291   2.609  0.2589  0.5875 -0.6140
   76MOL   O12825778   1.410   6.315   2.727 -0.1040  0.1969 -0.4422
   76MOL   H12925779   1.377   6.059   2.788 -0.4884  2.0532 -1.1935
   76MOL   H13025780   1.262   6.025   2.672  0.2889  1.2720 -0.0259
   76MOL   H13125781   1.477   5.971   2.514  2.9886  0.9700 -0.9678
   76MOL   H13225782   1.337   6.153   2.355 -1.3661  2.1230  0.7571
   76MOL   H13325783   1.513   6.168   2.345  0.2298 -2.5742  1.9079
   76MOL   H13425784   1.475   6.417   2.344  0.7736 -1.2111  0.2214
   76MOL   H13525785   1.299   6.376   2.317 -0.8301  0.5612  1.2376
   76MOL   H13625786   1.422   6.498   2.559 -1.4143 -0.0977  2.5839
   76MOL   H13725787   1.268   6.438   2.548  0.5286 -1.2210  0.8121
   76MOL   C13825788   1.613   6.049   2.645  0.1174  0.2460 -0.1103
   76MOL   C13925789   1.724   6.048   2.533  0.1396 -0.6011 -0.0900
   76MOL   N14025790   1.850   6.126   2.574 -0.3517  0.8949  0.2724
   76MOL   C14125791   1.889   6.244   2.502  0.1656 -0.1289  0.0864
   76MOL   C14225792   2.011   6.292   2.573  0.7365 -0.7039 -0.2031
   76MOL   C14325793   2.031   6.208   2.699  0.2433 -0.3882 -0.4942
   76MOL   C14425794   1.913   6.121   2.691 -0.0905 -0.6540  0.0728
   76MOL   O14525795   1.879   6.045   2.779  0.1339  0.0075  0.1006
   76MOL   H14625796   1.636   5.971   2.717  0.4207  2.1648  1.9429
   76MOL   H14725797   1.627   6.140   2.704  2.3539  0.8794 -1.5158
   76MOL   H14825798   1.684   6.099   2.446  0.1745 -1.9400 -0.9084
   76MOL   H14925799   1.913   6.217   2.399  1.9458  0.6181  0.2877
   76MOL   H15025800   1.812   6.322   2.502  0.5681  0.3014 -1.8214
   76MOL   H15125801   2.097   6.278   2.509  0.7042  1.0936 -0.6669
   76MOL   H15225802   1.997   6.397   2.599 -2.1888 -0.8460 -1.0024
   76MOL   H15325803   2.019   6.278   2.782  1.1415 -0.7829 -0.0187
   76MOL   H15425804   2.122   6.148   2.709  0.1937 -0.8105 -2.4511
   76MOL   C15525805   1.775   5.916   2.475 -0.2327  0.0549  0.3254
   76MOL   C15625806   1.694   5.835   2.378  0.6691 -0.2052 -0.0379
   76MOL   N15725807   1.655   5.895   2.253 -0.5859 -0.2713 -0.6108
   76MOL   C15825808   1.750   5.974   2.179 -0.4868  0.6850 -0.4600
   76MOL   C15925809   1.690   6.004   2.046 -0.4253  0.6665 -0.0282
   76MOL   C16025810   1.537   5.967   2.060  0.1044 -0.2242 -0.5084
   76MOL   C16125811   1.534   5.903   2.198 -0.2662 -0.4145  0.1093
   76MOL   O16225812   1.432   5.858   2.251  0.2770  0.4371  0.7076
   76MOL   H16325813   1.810   5.846   2.551  0.2210  0.1883  0.2367
   76MOL   H16425814   1.866   5.938   2.420 -0.1048 -0.8883  0.1483
   76MOL   H16525815   1.604   5.810   2.435  1.0282 -0.3541  0.4665
   76MOL   H16625816   1.742   6.071   2.229  2.6842  0.9299 -0.3166
   76MOL   H16725817   1.853   5.940   2.186 -0.0415  2.0652 -0.1127
   76MOL   H16825818   1.685   6.112   2.033 -1.0324  0.4169 -2.0329
   76MOL   H16925819   1.744   5.958   1.963  0.8995 -0.4050  1.4013
   76MOL   H17025820   1.472   6.054   2.058  1.8239  1.1439  1.6671
   76MOL   H17125821   1.514   5.907   1.971  0.3289  0.3682 -0.9711
   76MOL   C17225822   1.784   5.709   2.344 -0.0696  0.2438  0.1715
   76MOL   C17325823   1.707   5.589   2.282  0.0324  0.1909  0.3948
   76MOL   N17425824   1.679   5.601   2.138 -0.2118 -0.1241  0.3399
   76MOL   C17525825   1.774   5.639   2.038 -0.8111  0.0234 -0.3412
   76MOL   C17625826   1.715   5.618   1.903  1.1295  0.1142 -0.1865
   76MOL   C17725827   1.567   5.602   1.924 -0.0109  0.2264  0.9566
   76MOL   C17825828   1.563   5.583   2.077 -0.3891 -0.0560 -0.1762
   76MOL   O17925829   1.456   5.558   2.133  0.2182 -0.2089  0.2175
   76MOL   H18025830   1.853   5.686   2.425  2.3213  0.9015 -1.6052
   76MOL   H18125831   1.850   5.742   2.263  2.9094  0.1456  2.4476
   76MOL   H18225832   1.619   5.581   2.345  1.2623 -1.2603  1.9548
   76MOL   H18325833   1.806   5.741   2.059  0.8812 -0.7234  0.8768
   76MOL   H18425834   1.857   5.568   2.044  2.1350  3.2984 -0.6636
   76MOL   H18525835   1.748   5.521   1.866 -1.0858 -0.4152 -0.8631
   76MOL   H18625836   1.741   5.699   1.834  0.2618  1.6486  1.2472
   76MOL   H18725837   1.514   5.695   1.902 -1.4063 -1.2770 -2.5251
   76MOL   H18825838   1.519   5.520   1.870  1.2860 -0.4578  0.8177
   76MOL   C18925839   1.783   5.461   2.313 -0.3194 -0.6542  0.6400
   76MOL   C19025840   1.693   5.335   2.286  0.4034  0.1775  0.3296
   76MOL   N19125841   1.769   5.235   2.205  0.2654  0.3131 -0.2423
   76MOL   C19225842   1.715   5.198   2.083 -0.3976 -0.0807  0.1941
   76MOL   C19325843   1.814   5.093   2.024  0.1206 -0.4046  0.1735
   76MOL   C19425844   1.941   5.094   2.115  0.6377 -0.1379 -0.3877
   76MOL   C19525845   1.881   5.168   2.239 -0.0800  0.2826 -0.0957
   76MOL   O19625846   1.939   5.175   2.346 -0.0229 -0.2935  0.5276
   76MOL   H19725847   1.813   5.456   2.418  0.2209 -2.0110  0.4193
   76MOL   H19825848   1.877   5.458   2.259 -2.2666 -0.2501 -2.8898
   76MOL   H19925849   1.608   5.374   2.231  1.0788 -2.4509 -2.7832
   76MOL   H20025850   1.616   5.156   2.102 -0.7237  1.0960  1.1368
   76MOL   H20125851   1.700   5.283   2.016 -1.3033 -0.4662 -0.0929
   76MOL   H20225852   1.773   4.993   2.039  1.5433 -1.1699 -0.8732
   76MOL   H20325853   1.831   5.103   1.917  2.2527  0.6229  0.5753
   76MOL   H20425854   1.994   5.002   2.137  0.7720  0.0490  0.0756
   76MOL   H20525855   2.013   5.165   2.075  1.0646 -0.1172  0.4133
   76MOL   C20625856   1.633   5.276   2.417 -0.0287 -0.2478  0.1047
   76MOL   C20725857   1.518   5.173   2.405 -0.6294  0.4597  0.1739
   76MOL   N20825858   1.558   5.061   2.482 -0.5848 -0.2981 -0.3189
   76MOL   C20925859   1.560   5.052   2.627 -0.6679 -0.4442  0.1709
   76MOL   C21025860   1.648   4.937   2.667  0.3991  0.2732 -0.0792
   76MOL   C21125861   1.669   4.863   2.533  0.1154 -0.5759  0.1413
   76MOL   C21225862   1.605   4.950   2.425 -0.6436  0.2811  0.9791
   76MOL   O21325863   1.614   4.918   2.305  0.1955  0.0512 -0.7035
   76MOL   H21425864   1.609   5.360   2.484  0.2697  0.3758 -0.5672
   76MOL   H21525865   1.718   5.237   2.473 -1.9414 -1.9438  1.9315
   76MOL   H21625866   1.524   5.151   2.299 -2.2698 -1.2447  0.4017
   76MOL   H21725867   1.597   5.146   2.668 -0.9391 -0.1454 -0.2628
   76MOL   H21825868   1.458   5.028   2.658 -0.5222  1.9703  2.7253
   76MOL   H21925869   1.742   4.976   2.705 -0.5854  1.5004  1.1691
   76MOL   H22025870   1.612   4.871   2.746 -0.1057 -0.4207 -0.8759
   76MOL   H22125871   1.775   4.867   2.510 -0.3062  0.0374 -1.7613
   76MOL   H22225872   1.630   4.762   2.541  0.6296 -0.6627  1.6925
   76MOL   C22325873   1.376   5.229   2.423 -0.2924  0.7259 -0.4456
   76MOL   C22425874   1.276   5.111   2.400 -0.3313  0.5904  0.3071
   76MOL   N22525875   1.132   5.144   2.445 -0.3195 -0.0917 -0.5416
   76MOL   C22625876   1.081   5.109   2.581  0.3834 -0.2166  0.0271
   76MOL   C22725877   0.929   5.112   2.574 -0.8803  0.1160 -0.1147
   76MOL   C22825878   0.904   5.201   2.457 -0.3440  0.6802  0.3093
   76MOL   C22925879   1.033   5.213   2.384 -0.6439  0.6636  0.9583
   76MOL   O23025880   1.049   5.264   2.275  0.2194 -0.5522 -0.1364
   76MOL   H23125881   1.361   5.316   2.359  1.5494  3.5162  2.7623
   76MOL   H23225882   1.356   5.268   2.523  0.1093 -0.8216  0.2539
   76MOL   H23325883   1.300   5.034   2.473 -1.2210  1.6279  1.7281
   76MOL   H23425884   1.132   5.015   2.596  1.0573  0.1311 -0.0719
   76MOL   H23525885   1.118   5.182   2.653  0.6755 -0.6448  0.3047
   76MOL   H23625886   0.876   5.017   2.566 -2.8449  1.1288  0.3857
   76MOL   H23725887   0.897   5.150   2.671 -1.3622  0.3641 -0.3667
   76MOL   H23825888   0.826   5.159   2.393 -1.1472  0.0360  1.6748
   76MOL   H23925889   0.888   5.305   2.487 -1.6647 -0.0520  2.2823
   76MOL   C24025890   1.274   5.039   2.258  0.9647 -0.1806 -0.0477
   76MOL   C24125891   1.186   4.915   2.261 -0.7075 -0.8311 -0.0345
   76MOL   N24225892   1.142   4.910   2.122  0.4274  0.6403  0.1635
   76MOL   C24325893   1.027   4.988   2.080 -0.1186  0.5103 -0.1963
   76MOL   C24425894   0.981   4.929   1.944  0.4075 -0.0883  0.2700
   76MOL   C24525895   1.110   4.859   1.897 -0.5301 -0.1190  0.0658
   76MOL   C24625896   1.192   4.842   2.019  0.3535 -0.1919  0.0056
   76MOL   O24725897   1.289   4.763   2.015 -0.0864  0.5314 -0.1389
   76MOL   H24825898   1.372   5.001   2.227  0.5402 -0.3872 -1.1605
   76MOL   H24925899   1.245   5.110   2.181 -1.1792 -0.1156  0.7839
   76MOL   H25025900   1.093   4.927   2.317 -0.7916  0.5324 -0.4460
   76MOL   H25125901   0.951   4.992   2.158 -0.8268 -0.7110 -0.8190
   76MOL   H25225902   1.053   5.093   2.065 -1.8355  1.3003  2.0110
   76MOL   H25325903   0.905   4.854   1.966  0.4104 -0.1842 -0.0457
   76MOL   H25425904   0.946   5.006   1.876 -0.6741 -0.2210  0.6640
   76MOL   H25525905   1.093   4.760   1.854  1.0794 -0.4261  0.0923
   76MOL   H25625906   1.150   4.906   1.808 -1.3860 -0.9596 -0.7802
   76MOL   C25725907   1.263   4.790   2.315  0.7505 -0.7394  0.4007
   76MOL   C25825908   1.188   4.651   2.320  0.6128  0.1696  0.2514
   76MOL   N25925909   1.284   4.537   2.328  0.4202 -0.2705  0.6821
   76MOL   C26025910   1.298   4.443   2.223  0.2726 -0.1452 -0.3786
   76MOL   C26125911   1.421   4.364   2.257  0.5634 -0.2200  0.4817
   76MOL   C26225912   1.476   4.414   2.388 -0.1096 -0.4431  0.4542
   76MOL   C26325913   1.380   4.526   2.425  0.3147 -0.0397  0.5634
   76MOL   O26425914   1.388   4.592   2.525 -0.0477  0.1938 -0.4097
   76MOL   H26525915   1.303   4.810   2.414  0.8943  2.4878 -0.2393
   76MOL   H26625916   1.355   4.774   2.259  2.6252  0.0319  3.1718
   76MOL   H26725917   1.127   4.637   2.231 -1.6478 -3.3432  2.2440
   76MOL   H26825918   1.208   4.382   2.217  0.7663 -1.0615  1.2585
   76MOL   H26925919   1.309   4.484   2.123 -1.2677  3.0970  0.7164
   76MOL   H27025920   1.407   4.256   2.251  0.2098 -0.0975 -1.0146
   76MOL   H27125921   1.498   4.391   2.185 -0.7462 -0.6772 -1.1068
   76MOL   H27225922   1.464   4.344   2.470  2.3569 -0.6100  0.7094
   76MOL   H27325923   1.575   4.458   2.391  1.3380 -3.5849  0.3363
   76MOL   C27425924   1.087   4.656   2.438  0.1339  0.3862  1.1705
   76MOL   C27525925   1.001   4.530   2.471 -0.0707 -0.2038 -0.0073
   76MOL   N27625926   0.912   4.562   2.585 -0.1868 -0.5395  0.5203
   76MOL   C27725927   0.928   4.487   2.711 -0.1339  0.5436  0.2948
   76MOL   C27825928   0.830   4.546   2.810 -0.8150  0.0190  0.1799
   76MOL   C27925929   0.763   4.661   2.734  0.1493  0.4569  0.8139
   76MOL   C28025930   0.817   4.655   2.592  0.2611 -0.0537  0.0613
   76MOL   O28125931   0.780   4.740   2.509  0.3914 -0.0124  0.0203
   76MOL   H28225932   1.030   4.748   2.428  0.4856  0.5294  0.5106
   76MOL   H28325933   1.138   4.679   2.532 -1.6291  0.6514  2.0826
   76MOL   H28425934   1.065   4.446   2.494 -0.1865 -1.4536 -3.9041
   76MOL   H28525935   0.930   4.379   2.697 -1.2214  0.7276 -1.3442
   76MOL   H28625936   1.031   4.490   2.747  0.1489  0.3947 -0.5072
   76MOL   H28725937   0.760   4.467   2.835 -0.5178 -0.0398  0.8643
   76MOL   H28825938   0.873   4.582   2.904  0.0791  0.3430 -0.3483
   76MOL   H28925939   0.658   4.642   2.713  0.4288  1.1987 -1.3936
   76MOL   H29025940   0.771   4.760   2.780 -1.6716  0.7518  0.5197
   76MOL   C29125941   0.919   4.498   2.343 -0.0570  0.1371  0.3196
   76MOL   C29225942   0.826   4.377   2.362  1.3166 -0.4435 -0.5223
   76MOL   N29325943   0.718   4.375   2.267  0.0857 -0.0487  0.3358
   76MOL   C29425944   0.574   4.396   2.309  0.1689  0.1003 -0.9105
   76MOL   C29525945   0.491   4.399   2.184 -0.4047 -0.6149 -0.2818
   76MOL   C29625946   0.584   4.348   2.068  0.4999  0.2393 -0.6360
   76MOL   C29725947   0.718   4.356   2.132 -0.4669 -0.2821  0.2518
   76MOL   O29825948   0.814   4.330   2.058 -1.1290 -0.3424 -0.1966
   76MOL   H29925949   0.984   4.486   2.257  1.2761  2.1625  1.0051
   76MOL   H30025950   0.863   4.588   2.315  0.8090  0.5877  0.0202
   76MOL   H30125951   0.777   4.390   2.459  0.5861  1.4376 -1.1206
   76MOL   H30225952   0.547   4.312   2.372  1.5057 -0.1315 -0.6489
   76MOL   H30325953   0.540   4.486   2.360  0.5787  0.4402 -1.2348
   76MOL   H30425954   0.409   4.330   2.206  0.2726 -1.0785  0.8538
   76MOL   H30525955   0.451   4.499   2.172  2.0308  0.4847  0.5277
   76MOL   H30625956   0.559   4.245   2.043 -0.1085 -0.4299  2.5030
   76MOL   H30725957   0.583   4.412   1.980  1.1382 -1.3721 -1.8515
   76MOL   C30825958   0.909   4.241   2.383  0.1292  0.1622  0.3491
   76MOL   C30925959   0.822   4.115   2.401 -0.5365 -0.1242 -0.6681
   76MOL   N31025960   0.778   4.053   2.275 -0.1616  0.4177 -0.5005
   76MOL   C31125961   0.866   3.967   2.201  0.4632  0.4206 -0.2118
   76MOL   C31225962   0.790   3.921   2.072  0.2335 -0.1645  0.0375
   76MOL   C31325963   0.644   3.967   2.097 -0.2708  0.7257 -0.8345
   76MOL   C31425964   0.650   4.037   2.229 -0.3780 -0.3424  0.3857
   76MOL   O31525965   0.550   4.062   2.294  0.3167 -0.7065 -0.6237
   76MOL   H31625966   0.964   4.250   2.476  0.9078 -3.9956  0.3837
   76MOL   H31725967   0.987   4.228   2.308 -0.8881 -0.3858 -0.6437
   76MOL   H31825968   0.729   4.165   2.429 -1.0272 -2.1375  1.3664
   76MOL   H31925969   0.962   4.015   2.183  0.3786  0.2331 -1.1588
   76MOL   H32025970   0.898   3.882   2.262 -1.1557 -0.1000 -0.0705
   76MOL   H32125971   0.824   3.988   1.993  1.7259  0.5841  1.2950
   76MOL   H32225972   0.801   3.816   2.045 -3.0495 -0.2269 -1.3505
   76MOL   H32325973   0.597   4.042   2.034 -1.0674 -0.4397 -1.6364
   76MOL   H32425974   0.586   3.875   2.108  0.9440  0.0520  0.0318
   76MOL   C32525975   0.865   4.012   2.511 -0.2141  0.2962  0.0712
   76MOL   C32625976   0.833   4.050   2.649  0.6383 -0.8467 -0.5479
   76MOL   N32725977   0.865   3.951   2.752 -0.2493 -0.1091  0.2447
   76MOL   C32825978   0.788   3.950   2.887  0.3900 -0.9363  0.1077
   76MOL   C32925979   0.824   3.816   2.950  0.5277 -0.2458  0.1053
   76MOL   C33025980   0.945   3.762   2.886  0.9221  0.0891  0.3799
   76MOL   C33125981   0.953   3.852   2.761  0.2339 -0.1102 -0.3551
   76MOL   O33225982   1.039   3.827   2.675  0.1180 -0.7642 -0.3884
   76MOL   H33325983   0.968   3.985   2.488 -0.3220  0.2350 -0.3408
   76MOL   H33425984   0.802   3.926   2.485  0.1443  0.3323 -0.9508
   76MOL   H33525985   0.726   4.070   2.655  0.6366 -0.8722 -0.5015
   76MOL   H33625986   0.838   4.033   2.938 -0.6596  1.2450 -2.2765
   76MOL   H33725987   0.682   3.976   2.881  0.9982  0.9836 -3.3505
   76MOL   H33825988   0.850   3.832   3.055  3.5369  0.8325 -0.7648
   76MOL   H33925989   0.745   3.740   2.946  1.8066 -1.6294  0.7359
   76MOL   H34025990   1.038   3.786   2.938  2.0013 -1.0339 -0.9934
   76MOL   H34125991   0.948   3.658   2.855 -2.5797  0.0314  0.0577
   76MOL   H34225992   0.875   4.146   2.681 -0.3241 -0.5027 -0.3156
   77MOL     C125993   5.802   6.321   3.013  0.4585 -0.3045  0.1764
   77MOL     C225994   5.831   6.258   2.871  0.7028 -0.0163  0.2345
   77MOL     N325995   5.967   6.203   2.848  0.5749 -0.4700 -0.4115
   77MOL     C425996   6.026   6.228   2.722  0.0614  0.2810 -0.1008
   77MOL     C525997   6.148   6.133   2.721 -0.4125  0.3778  0.0883
   77MOL     C625998   6.163   6.078   2.867  0.4079 -1.0748 -0.3855
   77MOL     C725999   6.035   6.121   2.932 -0.0496 -0.6283  0.1882
   77MOL     O826000   6.006   6.089   3.049  0.1595 -0.0314  0.1277
   77MOL     H926001   5.877   6.395   3.037 -0.0760  0.1799  0.3585
   77MOL    H1026002   5.704   6.369   3.018  0.1562 -0.6700 -1.5535
   77MOL    H1126003   5.824   6.340   2.800 -0.4384 -1.9220 -1.9177
   77MOL    H1226004   5.952   6.216   2.643  1.7728  2.3767 -2.0893
   77MOL    H1326005   6.059   6.332   2.718 -0.0632  0.4312  2.1717
   77MOL    H1426006   6.138   6.047   2.655  3.0893  1.4934 -2.0431
   77MOL    H1526007   6.240   6.182   2.687  0.6626 -1.6407 -0.0115
   77MOL    H1626008   6.176   5.970   2.864  2.4316 -0.8446 -0.9859
   77MOL    H1726009   6.247   6.130   2.914  0.6272 -0.2782 -1.6271
   77MOL    H1826010   5.802   6.241   3.087  1.5758 -1.0475 -0.6005
   77MOL    C1926011   5.735   6.143   2.831  0.1463 -1.0048  0.2419
   77MOL    C2026012   5.592   6.198   2.827 -0.1148 -0.7072 -0.3555
   77MOL    N2126013   5.564   6.281   2.704 -0.0598  0.2555  0.3275
   77MOL    C2226014   5.522   6.419   2.715 -0.4315  0.4360 -0.6737
   77MOL    C2326015   5.499   6.466   2.573 -0.3374 -0.1868  0.0598
   77MOL    C2426016   5.534   6.348   2.477 -0.2954 -0.0318 -0.2644
   77MOL    C2526017   5.576   6.243   2.574 -0.2808 -0.7108 -0.0069
   77MOL    O2626018   5.599   6.129   2.540 -0.0552 -0.4175 -0.1874
   77MOL    H2726019   5.744   6.073   2.914 -0.1185 -0.0863  1.0666
   77MOL    H2826020   5.761   6.109   2.731  2.4266 -2.0544  1.1436
   77MOL    H2926021   5.571   6.255   2.917  0.0496 -3.2357  1.3191
   77MOL    H3026022   5.425   6.421   2.765 -0.3494 -0.1159 -0.4935
   77MOL    H3126023   5.592   6.487   2.764 -0.7032  1.0059 -1.0616
   77MOL    H3226024   5.391   6.483   2.568 -0.9679 -3.4475  0.9793
   77MOL    H3326025   5.563   6.547   2.539 -0.8340  0.2477  0.1667
   77MOL    H3426026   5.449   6.323   2.413 -0.3786 -0.0067 -0.1646
   77MOL    H3526027   5.614   6.374   2.408 -0.2818  0.6389 -0.0008
   77MOL    C3626028   5.479   6.089   2.834 -0.3756  0.3357  0.0831
   77MOL    C3726029   5.333   6.142   2.834 -0.0132 -0.1316 -0.0832
   77MOL    N3826030   5.246   6.025   2.812 -0.1558 -0.2519  0.6786
   77MOL    C3926031   5.173   5.995   2.684 -0.2880 -0.4211  0.7044
   77MOL    C4026032   5.083   5.870   2.708 -0.0770 -0.1550  0.4056
   77MOL    C4126033   5.131   5.817   2.847 -0.2755 -0.8028  0.2514
   77MOL    C4226034   5.229   5.922   2.898 -0.1365 -1.0097  0.7130
   77MOL    O4326035   5.291   5.913   3.006  0.0361 -0.0535 -0.5857
   77MOL    H4426036   5.499   6.017   2.913 -0.4676 -1.0866 -1.1561
   77MOL    H4526037   5.489   6.026   2.745 -0.9066  0.4052 -0.0317
   77MOL    H4626038   5.319   6.206   2.747  1.1544  0.8669  0.4581
   77MOL    H4726039   5.113   6.085   2.674  0.7415  0.3563  1.3979
   77MOL    H4826040   5.232   5.970   2.596  0.2723 -0.5258  1.1022
   77MOL    H4926041   4.982   5.912   2.705  0.0335  0.0943  0.1822
   77MOL    H5026042   5.090   5.802   2.623  2.1774  1.9219 -1.1110
   77MOL    H5126043   5.038   5.827   2.903  1.6566  0.9246  3.3372
   77MOL    H5226044   5.160   5.713   2.860 -0.1099 -0.8017 -0.1131
   77MOL    C5326045   5.295   6.229   2.962 -0.0699  0.1867  0.2170
   77MOL    C5426046   5.157   6.293   2.957  0.3963  0.9231 -0.0849
   77MOL    N5526047   5.118   6.349   3.087  0.1123 -0.0167 -0.3861
   77MOL    C5626048   5.200   6.464   3.130  0.3997 -0.2078 -0.9364
   77MOL    C5726049   5.141   6.512   3.260 -0.0978  0.4917 -0.3729
   77MOL    C5826050   5.007   6.432   3.283 -0.1831  0.4988  0.0740
   77MOL    C5926051   5.008   6.334   3.166  0.2801 -0.3328 -0.5440
   77MOL    O6026052   4.930   6.240   3.152  0.1427 -0.4296 -0.0081
   77MOL    H6126053   5.359   6.318   2.960  0.7737 -0.4232 -0.3209
   77MOL    H6226054   5.318   6.179   3.056 -1.2946 -0.6961  0.0546
   77MOL    H6326055   5.087   6.211   2.940  1.2910  0.1867 -0.2272
   77MOL    H6426056   5.304   6.438   3.150  0.8649  2.4141  0.2777
   77MOL    H6526057   5.194   6.542   3.054 -0.8991  0.7113  0.1021
   77MOL    H6626058   5.208   6.499   3.344  0.6099 -0.5205 -1.0766
   77MOL    H6726059   5.125   6.620   3.255 -1.4834  0.3446  0.6573
   77MOL    H6826060   5.004   6.379   3.378  2.5357 -1.5438 -0.9254
   77MOL    H6926061   4.916   6.490   3.267 -0.4314  0.4117  1.1291
   77MOL    C7026062   5.129   6.393   2.838 -0.0700 -0.3265  0.2655
   77MOL    C7126063   4.994   6.474   2.829 -0.2268  0.2037  0.0271
   77MOL    N7226064   5.015   6.596   2.744 -0.1807 -0.2628  1.2035
   77MOL    C7326065   5.037   6.582   2.600  0.2985 -0.6246  0.0440
   77MOL    C7426066   5.107   6.714   2.573 -0.2347  0.3769  0.3599
   77MOL    C7526067   5.068   6.817   2.676 -0.2248  0.6656  0.4929
   77MOL    C7626068   5.037   6.721   2.789 -0.4841  0.0325  0.3225
   77MOL    O7726069   5.022   6.756   2.908  0.0135 -0.5288 -0.0717
   77MOL    H7826070   5.120   6.329   2.750  0.1902 -2.5213  1.8028
   77MOL    H7926071   5.213   6.462   2.836 -2.1463  2.3223  1.6031
   77MOL    H8026072   4.972   6.506   2.931  1.6312 -0.1569  0.5726
   77MOL    H8126073   5.092   6.495   2.564  0.6715  0.2554 -1.5762
   77MOL    H8226074   4.939   6.579   2.553  0.2882 -1.8251  0.1388
   77MOL    H8326075   5.214   6.698   2.588 -0.6368 -1.2513  1.5680
   77MOL    H8426076   5.103   6.759   2.474 -1.2610 -0.2402  0.1132
   77MOL    H8526077   5.153   6.878   2.706 -0.2469  0.1346  1.6704
   77MOL    H8626078   4.980   6.872   2.644  0.5921  2.1980  0.8393
   77MOL    C8726079   4.875   6.387   2.791 -0.0793  0.7013 -0.3524
   77MOL    C8826080   4.749   6.400   2.878  0.4223  0.4562 -0.3784
   77MOL    N8926081   4.701   6.541   2.909 -0.5578 -0.3914 -0.0118
   77MOL    C9026082   4.680   6.592   3.047  0.4560 -0.1106 -0.3211
   77MOL    C9126083   4.613   6.729   3.039  0.9202 -0.7636 -0.3150
   77MOL    C9226084   4.619   6.762   2.890  0.1708 -0.4054 -0.0879
   77MOL    C9326085   4.668   6.637   2.820 -0.3983 -0.5000  0.1058
   77MOL    O9426086   4.674   6.628   2.698 -0.5304  0.6405  0.0867
   77MOL    H9526087   4.901   6.281   2.791 -0.5545  0.5493  2.1353
   77MOL    H9626088   4.842   6.410   2.690 -1.1634  1.0074  0.0547
   77MOL    H9726089   4.778   6.359   2.975 -1.7726 -1.0791 -0.3209
   77MOL    H9826090   4.613   6.526   3.103  0.6701  0.4143  0.5545
   77MOL    H9926091   4.771   6.598   3.106  1.3621 -1.6801 -1.4983
   77MOL   H10026092   4.508   6.728   3.070  1.4588  1.1563  1.6539
   77MOL   H10126093   4.666   6.802   3.100  1.4348 -1.3929 -0.0095
   77MOL   H10226094   4.521   6.777   2.846  0.3219 -1.7919 -0.9318
   77MOL   H10326095   4.684   6.848   2.872  0.1888  0.0007  1.8126
   77MOL   C10426096   4.624   6.320   2.839  0.1480 -0.3062  0.5839
   77MOL   C10526097   4.624   6.163   2.837 -0.4884 -0.6822  0.1163
   77MOL   N10626098   4.682   6.101   2.965  0.4005  0.0307 -0.0856
   77MOL   C10726099   4.797   6.021   2.956 -0.6731 -0.2583 -0.1141
   77MOL   C10826100   4.819   5.947   3.089  0.4513  0.3990 -0.2020
   77MOL   C10926101   4.713   6.020   3.180  0.3171  0.4886  0.3046
   77MOL   C11026102   4.627   6.097   3.085 -0.1734 -0.4505 -0.4220
   77MOL   O11126103   4.522   6.155   3.111 -0.3132  0.3395 -0.1166
   77MOL   H11226104   4.574   6.357   2.749  1.6412 -2.2764 -1.1247
   77MOL   H11326105   4.545   6.348   2.908 -1.8583 -2.1981 -0.8434
   77MOL   H11426106   4.689   6.139   2.753  0.7507 -0.2313  0.9200
   77MOL   H11526107   4.800   5.959   2.866 -0.2484 -0.1989 -0.1464
   77MOL   H11626108   4.882   6.088   2.947 -0.6425 -0.4289 -1.2907
   77MOL   H11726109   4.805   5.839   3.081  0.0390  0.1749  3.0713
   77MOL   H11826110   4.924   5.953   3.116  0.5114  0.0716 -0.3562
   77MOL   H11926111   4.759   6.084   3.255  2.4092 -0.9326  0.2828
   77MOL   H12026112   4.654   5.941   3.226 -0.4679  0.9177  0.0354
   77MOL   C12126113   4.483   6.114   2.802 -0.1689  0.1643 -0.4314
   77MOL   C12226114   4.445   5.964   2.815 -0.1597  0.9015 -0.9534
   77MOL   N12326115   4.297   5.942   2.788  0.4432 -0.2480  0.3991
   77MOL   C12426116   4.198   5.907   2.898  0.3369  0.4521 -0.2576
   77MOL   C12526117   4.053   5.929   2.837  0.0080 -0.8648 -0.0964
   77MOL   C12626118   4.080   5.968   2.690 -0.3571 -1.0197 -0.2290
   77MOL   C12726119   4.230   5.977   2.674  0.1452  0.5992 -0.6604
   77MOL   O12826120   4.283   6.011   2.567  0.3707  0.0380  0.7834
   77MOL   H12926121   4.453   6.154   2.706  1.2907  0.0955 -0.9237
   77MOL   H13026122   4.410   6.164   2.866  0.8050  2.1306 -0.8212
   77MOL   H13126123   4.460   5.927   2.916  0.2216  3.0201 -0.2117
   77MOL   H13226124   4.226   5.964   2.987  0.9116  0.5810 -0.5209
   77MOL   H13326125   4.210   5.805   2.934 -0.2001 -0.1753 -1.8245
   77MOL   H13426126   3.980   5.849   2.854 -1.6443  1.4905  4.8330
   77MOL   H13526127   3.999   6.008   2.890 -0.9734 -1.9729  0.5791
   77MOL   H13626128   4.045   5.892   2.620 -1.9160 -0.4071 -0.1220
   77MOL   H13726129   4.039   6.065   2.665  0.5674 -0.7261 -0.6353
   77MOL   C13826130   4.530   5.878   2.721 -0.1717  0.5169  0.5443
   77MOL   C13926131   4.524   5.727   2.745 -0.1829  0.2822  0.0293
   77MOL   N14026132   4.543   5.664   2.614 -0.2135 -0.0819 -0.4514
   77MOL   C14126133   4.432   5.589   2.551  1.0034  0.0058  0.7088
   77MOL   C14226134   4.484   5.526   2.425 -0.1071  0.6376  0.8839
   77MOL   C14326135   4.606   5.603   2.395 -0.0420 -0.3210  0.3518
   77MOL   C14426136   4.640   5.671   2.527 -0.7254  0.3249 -0.2783
   77MOL   O14526137   4.749   5.725   2.551  0.3925 -0.1124  0.1381
   77MOL   H14626138   4.632   5.917   2.730 -0.4209  1.2710  0.1308
   77MOL   H14726139   4.517   5.915   2.619 -1.3882 -2.2839 -0.3650
   77MOL   H14826140   4.420   5.708   2.770 -0.2020  1.1655  0.6395
   77MOL   H14926141   4.387   5.508   2.608  2.2086 -1.3969 -0.2996
   77MOL   H15026142   4.349   5.660   2.546 -0.0640 -1.0734  2.6812
   77MOL   H15126143   4.504   5.422   2.448 -0.6711  0.3558  0.1147
   77MOL   H15226144   4.407   5.536   2.347  1.6852 -1.1710 -1.1788
   77MOL   H15326145   4.573   5.680   2.325 -1.6424 -1.3900 -0.1103
   77MOL   H15426146   4.684   5.538   2.355  0.6387 -0.2569  1.5582
   77MOL   C15526147   4.622   5.684   2.859  0.1226 -0.3440  0.2627
   77MOL   C15626148   4.626   5.528   2.885 -0.6548 -0.8945  0.1069
   77MOL   N15726149   4.743   5.493   2.960 -0.0798 -0.2579  0.0501
   77MOL   C15826150   4.862   5.441   2.891  0.2676 -0.0807 -0.4258
   77MOL   C15926151   4.979   5.438   2.992 -0.4247 -0.6776  0.2806
   77MOL   C16026152   4.914   5.486   3.123  0.4436 -0.3670 -0.1840
   77MOL   C16126153   4.776   5.537   3.082  0.6124 -0.4096 -0.4904
   77MOL   O16226154   4.712   5.613   3.147 -0.3053 -0.1221 -0.0705
   77MOL   H16326155   4.594   5.726   2.956  0.2827 -0.2376  0.2639
   77MOL   H16426156   4.723   5.713   2.830  0.3837 -0.5534  0.9416
   77MOL   H16526157   4.633   5.483   2.786  0.7438 -0.7017  0.1103
   77MOL   H16626158   4.848   5.343   2.846  0.9751 -0.3531 -0.0647
   77MOL   H16726159   4.888   5.502   2.805  2.1366  2.9024  2.1310
   77MOL   H16826160   5.030   5.342   2.995  1.6293  0.2600 -2.2619
   77MOL   H16926161   5.052   5.513   2.962 -0.5375 -0.7941 -0.2891
   77MOL   H17026162   4.914   5.399   3.189  0.9773 -2.0272 -2.3130
   77MOL   H17126163   4.981   5.552   3.178  0.3737  0.7479 -1.4277
   77MOL   C17226164   4.492   5.475   2.955 -0.2919  0.1234 -0.1683
   77MOL   C17326165   4.474   5.317   2.951 -0.2257  0.4228 -0.9295
   77MOL   N17426166   4.425   5.247   3.074 -0.1853 -0.4715  0.6185
   77MOL   C17526167   4.483   5.122   3.124  0.9700  0.3011 -0.7267
   77MOL   C17626168   4.386   5.060   3.227  0.1621 -0.2184  0.6960
   77MOL   C17726169   4.296   5.182   3.257 -0.2418  0.7744  0.1956
   77MOL   C17826170   4.332   5.295   3.161 -0.1902  0.2151  0.0461
   77MOL   O17926171   4.271   5.402   3.150 -0.0913  0.6655  0.0171
   77MOL   H18026172   4.404   5.527   2.917 -0.5544  0.6701  1.1698
   77MOL   H18126173   4.503   5.509   3.058 -1.5362 -1.4277  0.4948
   77MOL   H18226174   4.567   5.268   2.923 -0.5755 -0.1799 -1.0491
   77MOL   H18326175   4.485   5.048   3.044  1.2435 -1.4754  0.8744
   77MOL   H18426176   4.580   5.138   3.172 -0.3946  0.3925  2.0982
   77MOL   H18526177   4.442   5.018   3.311  4.5459 -0.2436 -2.0420
   77MOL   H18626178   4.326   4.973   3.205  1.5310 -0.8535 -0.6187
   77MOL   H18726179   4.191   5.154   3.256 -0.1213  0.3504 -1.6869
   77MOL   H18826180   4.316   5.218   3.359 -1.7325 -0.5010  0.9494
   77MOL   C18926181   4.380   5.284   2.830 -0.4875  0.6231  0.1677
   77MOL   C19026182   4.356   5.133   2.789 -0.1457 -0.8509 -0.0147
   77MOL   N19126183   4.226   5.133   2.720  1.0886  0.2323 -0.3486
   77MOL   C19226184   4.122   5.040   2.768  0.3481 -0.1015  0.1126
   77MOL   C19326185   4.014   5.045   2.659 -0.1094 -0.4050  0.3444
   77MOL   C19426186   4.048   5.161   2.570  0.5383 -0.1123  0.1247
   77MOL   C19526187   4.191   5.185   2.602 -0.4424 -0.2440 -0.2919
   77MOL   O19626188   4.259   5.264   2.535 -0.7580  0.3655  1.0004
   77MOL   H19726189   4.428   5.314   2.737  1.5545  0.3110  1.0995
   77MOL   H19826190   4.286   5.337   2.841 -0.1591  1.7800 -2.3977
   77MOL   H19926191   4.326   5.077   2.877  0.8597 -3.1199 -1.0774
   77MOL   H20026192   4.162   4.940   2.779 -0.7053 -0.4811  0.6236
   77MOL   H20126193   4.079   5.080   2.860  0.5681 -0.3732  0.3322
   77MOL   H20226194   4.000   4.956   2.599 -3.4964  1.5754 -1.9857
   77MOL   H20326195   3.916   5.054   2.705 -0.5615 -3.3230  0.0308
   77MOL   H20426196   4.026   5.137   2.466 -0.9239  1.4424  0.0652
   77MOL   H20526197   3.989   5.250   2.591 -1.5748 -1.2996 -0.5490
   77MOL   C20626198   4.467   5.065   2.707  0.1147  0.4042 -0.0216
   77MOL   C20726199   4.433   4.917   2.675 -0.3623  0.0706  0.3300
   77MOL   N20826200   4.512   4.870   2.563 -0.7045 -0.3960 -0.2144
   77MOL   C20926201   4.450   4.812   2.445  0.6463 -0.4387 -0.6578
   77MOL   C21026202   4.558   4.802   2.338 -1.2713  0.1117  0.3352
   77MOL   C21126203   4.688   4.830   2.419  0.1260 -0.5376 -0.4449
   77MOL   C21226204   4.645   4.873   2.552 -0.4368  0.6491 -0.7062
   77MOL   O21326205   4.718   4.927   2.635 -0.1940  0.0299 -0.0705
   77MOL   H21426206   4.560   5.070   2.764 -0.2062  0.5362  0.4949
   77MOL   H21526207   4.480   5.119   2.613 -0.8207  1.2264  0.3104
   77MOL   H21626208   4.328   4.900   2.656 -0.4790 -2.0869  2.7220
   77MOL   H21726209   4.416   4.709   2.457  2.8492 -1.2217 -0.9777
   77MOL   H21826210   4.358   4.869   2.429  0.8940  0.3514  0.6670
   77MOL   H21926211   4.571   4.705   2.290 -0.9103  1.1730 -1.7779
   77MOL   H22026212   4.552   4.877   2.260 -1.2443 -1.0338 -0.7723
   77MOL   H22126213   4.743   4.737   2.437 -1.1932 -0.9115  1.9107
   77MOL   H22226214   4.743   4.911   2.372 -0.2198  0.2139  0.4265
   77MOL   C22326215   4.457   4.829   2.801  0.4841 -0.5588 -0.1973
   77MOL   C22426216   4.436   4.676   2.768  0.4881  0.8349  0.6406
   77MOL   N22526217   4.486   4.593   2.876  0.4028  0.1807  0.2181
   77MOL   C22626218   4.606   4.517   2.851  0.2431 -0.5563 -0.2996
   77MOL   C22726219   4.649   4.440   2.984 -1.2156 -0.0872  0.8665
   77MOL   C22826220   4.535   4.471   3.076 -0.9810 -0.3281 -0.3906
   77MOL   C22926221   4.450   4.572   3.003 -1.0989 -1.0204 -0.0213
   77MOL   O23026222   4.351   4.630   3.051 -0.0519 -0.0742  0.0294
   77MOL   H23126223   4.395   4.858   2.885  1.5544  1.1566  0.0180
   77MOL   H23226224   4.557   4.846   2.842  0.3194 -0.9783  0.3805
   77MOL   H23326225   4.499   4.660   2.680  0.0382 -1.3966  0.6998
   77MOL   H23426226   4.612   4.455   2.762 -0.9868  0.3246 -1.0145
   77MOL   H23526227   4.688   4.584   2.826 -0.5499  0.4158 -0.3589
   77MOL   H23626228   4.669   4.334   2.969  0.9785  0.2988  0.9954
   77MOL   H23726229   4.739   4.483   3.027 -0.9956 -1.1476  1.4955
   77MOL   H23826230   4.476   4.382   3.098 -0.0325 -1.1200 -0.9830
   77MOL   H23926231   4.586   4.507   3.166  1.0764 -2.3600 -0.6804
   77MOL   C24026232   4.300   4.635   2.728  0.1123  0.2214 -0.1177
   77MOL   C24126233   4.278   4.481   2.691 -0.2303 -0.2622 -0.1914
   77MOL   N24226234   4.134   4.453   2.716 -0.0620 -0.2330 -0.1495
   77MOL   C24326235   4.029   4.502   2.630  0.4371  0.4481  0.7126
   77MOL   C24426236   3.898   4.456   2.700 -0.4468 -0.3146  0.0424
   77MOL   C24526237   3.938   4.402   2.840  0.5611 -0.4248  0.0366
   77MOL   C24626238   4.089   4.391   2.826 -0.0452 -0.4559 -0.4353
   77MOL   O24726239   4.160   4.349   2.920  0.0436 -0.7545 -0.0566
   77MOL   H24826240   4.244   4.703   2.664 -1.4814 -0.3184  0.6565
   77MOL   H24926241   4.239   4.643   2.819  0.8017 -2.1277  0.5916
   77MOL   H25026242   4.326   4.421   2.768  2.0528  1.8323  0.1050
   77MOL   H25126243   4.035   4.611   2.629  3.3382  0.3393  1.3808
   77MOL   H25226244   4.030   4.470   2.526  1.4554 -0.2002  0.9221
   77MOL   H25326245   3.837   4.546   2.690 -2.8018 -1.7603  0.7537
   77MOL   H25426246   3.867   4.369   2.642  3.5081 -1.5623 -0.2963
   77MOL   H25526247   3.912   4.461   2.927 -1.2246 -1.0467 -0.0619
   77MOL   H25626248   3.899   4.302   2.859 -0.2823 -0.2910 -0.9338
   77MOL   C25726249   4.331   4.450   2.546 -0.8276  0.3217  0.4071
   77MOL   C25826250   4.362   4.297   2.520 -0.7321 -0.4633  0.1123
   77MOL   N25926251   4.253   4.211   2.559 -0.3788  0.7389  0.0722
   77MOL   C26026252   4.279   4.091   2.641  0.1932 -0.4157 -0.0058
   77MOL   C26126253   4.145   4.025   2.677  0.4386 -0.0819 -0.0598
   77MOL   C26226254   4.054   4.079   2.562  0.6507 -0.3985  0.9669
   77MOL   C26326255   4.130   4.199   2.499 -0.1397  0.7437  0.3698
   77MOL   O26426256   4.091   4.272   2.407  0.3087 -0.1909 -0.5054
   77MOL   H26526257   4.427   4.501   2.541 -0.6665 -0.0975 -1.0587
   77MOL   H26626258   4.262   4.493   2.473 -0.3960  0.5721  0.1461
   77MOL   H26726259   4.443   4.279   2.590 -1.7885  0.3717  1.5757
   77MOL   H26826260   4.331   4.013   2.584  0.3939 -0.1554 -0.1763
   77MOL   H26926261   4.339   4.116   2.729  0.4974  0.8417 -0.5638
   77MOL   H27026262   4.156   3.917   2.666  1.9747 -0.0605  1.0348
   77MOL   H27126263   4.099   4.056   2.771 -0.3307  0.5594 -0.6452
   77MOL   H27226264   4.034   4.005   2.485  2.2238  0.0226  0.1312
   77MOL   H27326265   3.958   4.126   2.583  1.4708  1.4972  0.5727
   77MOL   C27426266   4.405   4.265   2.374 -0.7745  0.2508  0.2360
   77MOL   C27526267   4.530   4.344   2.322 -0.6394  0.3493  0.0723
   77MOL   N27626268   4.651   4.303   2.399  0.5104 -0.1200  0.5894
   77MOL   C27726269   4.743   4.405   2.452  0.0839 -0.1520 -0.5668
   77MOL   C27826270   4.863   4.326   2.505 -1.2945 -0.6644  0.2039
   77MOL   C27926271   4.830   4.183   2.490  0.2194  0.8677  0.6492
   77MOL   C28026272   4.696   4.179   2.421 -0.1300 -0.3806 -0.4869
   77MOL   O28126273   4.654   4.068   2.381 -0.3163  0.0973  0.2557
   77MOL   H28226274   4.323   4.299   2.312 -0.9869  0.2145  0.4971
   77MOL   H28326275   4.409   4.158   2.353 -0.8208  0.2938  0.0099
   77MOL   H28426276   4.516   4.448   2.352 -0.0867  0.0303  1.5123
   77MOL   H28526277   4.773   4.474   2.374  1.5435  1.3857  1.3161
   77MOL   H28626278   4.690   4.456   2.533 -1.1066 -1.3783 -0.5449
   77MOL   H28726279   4.952   4.361   2.453 -1.0718 -1.5469 -0.0227
   77MOL   H28826280   4.883   4.346   2.610  2.2273  0.1238 -0.5710
   77MOL   H28926281   4.903   4.135   2.425 -2.4482 -0.7831 -1.2635
   77MOL   H29026282   4.835   4.128   2.584  2.7007 -1.2457 -0.6714
   77MOL   C29126283   4.542   4.323   2.171 -0.0560 -0.0391  0.3582
   77MOL   C29226284   4.500   4.441   2.073  1.3019  0.1281 -0.0999
   77MOL   N29326285   4.524   4.397   1.942 -0.6965  0.3871  0.1778
   77MOL   C29426286   4.652   4.423   1.873 -0.5811 -0.1289  0.3321
   77MOL   C29526287   4.628   4.373   1.732 -0.9756  0.1392  0.0355
   77MOL   C29626288   4.491   4.298   1.730 -0.4571 -0.0297  0.1418
   77MOL   C29726289   4.437   4.322   1.865  0.0012 -0.1421  0.6047
   77MOL   O29826290   4.331   4.270   1.902 -0.5901 -0.3581 -0.4589
   77MOL   H29926291   4.503   4.226   2.139  3.4287 -1.5388  0.4234
   77MOL   H30026292   4.649   4.310   2.153 -0.3145 -1.3321 -0.3196
   77MOL   H30126293   4.568   4.523   2.096 -0.6173  1.6877  0.1460
   77MOL   H30226294   4.663   4.530   1.890  1.6641 -0.7203  2.9156
   77MOL   H30326295   4.729   4.361   1.919  0.0417  0.7485  0.4796
   77MOL   H30426296   4.628   4.461   1.669  1.3747 -0.4069 -0.8068
   77MOL   H30526297   4.712   4.312   1.698 -0.4402  1.1853 -0.5474
   77MOL   H30626298   4.412   4.343   1.670  1.0727  1.9915 -0.4212
   77MOL   H30726299   4.504   4.194   1.702  1.2126 -0.8506  3.7841
   77MOL   C30826300   4.351   4.492   2.115 -0.6242 -0.0700  0.5929
   77MOL   C30926301   4.285   4.584   2.011 -0.2423 -0.2164 -0.7849
   77MOL   N31026302   4.163   4.642   2.074  0.4495  0.2253 -0.4970
   77MOL   C31126303   4.034   4.571   2.041  0.4471 -0.6079  0.0613
   77MOL   C31226304   3.934   4.646   2.119 -0.2651 -0.1400 -0.2344
   77MOL   C31326305   4.013   4.726   2.230 -0.4007  0.1323  0.2412
   77MOL   C31426306   4.148   4.731   2.171 -0.3582  0.2193 -0.4767
   77MOL   O31526307   4.232   4.808   2.217  0.1949 -0.3380  0.0376
   77MOL   H31626308   4.362   4.533   2.215 -2.7090 -1.5012  1.4701
   77MOL   H31726309   4.291   4.401   2.129  0.6581 -0.7515  1.7853
   77MOL   H31826310   4.261   4.536   1.916  1.0314  0.9159 -1.7161
   77MOL   H31926311   4.006   4.585   1.937 -0.0301  1.8213  0.4743
   77MOL   H32026312   4.028   4.468   2.077 -1.7927 -1.1268 -1.6712
   77MOL   H32126313   3.868   4.711   2.062  1.7732  2.4708  0.2160
   77MOL   H32226314   3.866   4.580   2.172 -0.3910 -1.3320 -1.8528
   77MOL   H32326315   3.978   4.825   2.260  0.3678  0.8911 -1.3404
   77MOL   H32426316   4.038   4.665   2.317  2.0722  0.8818  0.0887
   77MOL   C32526317   4.385   4.687   1.964 -0.1666  0.0717  0.3771
   77MOL   C32626318   4.334   4.756   1.833 -0.4216 -0.3367 -0.4184
   77MOL   N32726319   4.426   4.862   1.793  0.0374  0.2107 -0.8141
   77MOL   C32826320   4.394   5.000   1.791  1.0039 -0.4899 -0.0714
   77MOL   C32926321   4.511   5.078   1.735 -0.4684  0.2538 -0.1498
   77MOL   C33026322   4.613   4.972   1.696  0.0353 -0.4947  0.3011
   77MOL   C33126323   4.552   4.843   1.744  0.6958 -0.1488  0.1813
   77MOL   O33226324   4.612   4.735   1.733 -0.3589 -0.0339  1.1160
   77MOL   H33326325   4.476   4.633   1.940  0.7188  2.1380 -1.0050
   77MOL   H33426326   4.410   4.756   2.044 -0.9725 -2.3868  2.8310
   77MOL   H33526327   4.228   4.779   1.822 -1.0691 -0.8759  3.6877
   77MOL   H33626328   4.308   5.021   1.728 -0.6316 -2.1326  1.5595
   77MOL   H33726329   4.378   5.025   1.896  0.8107 -1.7531  0.2056
   77MOL   H33826330   4.475   5.133   1.648  0.2891  1.1475  0.0931
   77MOL   H33926331   4.552   5.150   1.805  0.1820 -1.1625  0.9563
   77MOL   H34026332   4.627   4.957   1.589  0.5727 -1.5876  0.5246
   77MOL   H34126333   4.704   5.005   1.746 -1.3444  0.0254  2.5660
   77MOL   H34226334   4.349   4.693   1.746 -0.6478 -1.3203  0.2421
   78MOL     C126335   5.214   3.914   0.373  0.5099 -1.4508  0.1086
   78MOL     C226336   5.183   3.779   0.435  0.2788  1.0743 -0.2750
   78MOL     N326337   5.043   3.769   0.464 -0.0955 -0.3474  0.6897
   78MOL     C426338   4.996   3.782   0.598 -0.2131 -0.8146  0.1450
   78MOL     C526339   4.843   3.775   0.599  0.3823 -0.5292 -1.1798
   78MOL     C626340   4.807   3.769   0.456  0.0450  0.0872  0.3342
   78MOL     C726341   4.938   3.753   0.382  0.6593 -0.2046 -0.2317
   78MOL     O826342   4.939   3.744   0.257  0.5855  0.1303 -1.0022
   78MOL     H926343   5.177   3.995   0.435 -0.5735 -0.5877 -1.6163
   78MOL    H1026344   5.322   3.931   0.369 -0.0702  2.3831 -0.4859
   78MOL    H1126345   5.237   3.770   0.529  2.4648 -2.3577 -1.7408
   78MOL    H1226346   5.047   3.727   0.677 -1.3818  0.6914  2.0082
   78MOL    H1326347   5.021   3.883   0.630  0.8287 -1.3619  1.0768
   78MOL    H1426348   4.819   3.685   0.655 -3.3543  0.9892 -0.1894
   78MOL    H1526349   4.807   3.866   0.648  1.8196 -0.6691  0.1758
   78MOL    H1626350   4.741   3.687   0.428  1.0301 -0.4144 -0.5472
   78MOL    H1726351   4.751   3.859   0.431  0.1257 -0.6557 -2.6643
   78MOL    H1826352   5.174   3.923   0.272  0.4648 -2.3529  0.0346
   78MOL    C1926353   5.230   3.650   0.362 -0.0585  0.4566  0.3293
   78MOL    C2026354   5.211   3.522   0.440  0.2875  0.5584  0.3184
   78MOL    N2126355   5.185   3.407   0.346  0.2145 -0.7124 -0.1576
   78MOL    C2226356   5.048   3.368   0.336 -0.4444 -0.0264  0.3433
   78MOL    C2326357   5.037   3.254   0.239 -0.5112  0.1459  0.2056
   78MOL    C2426358   5.173   3.255   0.174  0.0971 -0.0258 -0.1094
   78MOL    C2526359   5.257   3.354   0.247  0.4419 -0.0860  0.5926
   78MOL    O2626360   5.376   3.370   0.226  0.4103 -0.4555  0.3079
   78MOL    H2726361   5.334   3.660   0.333 -0.2314  0.0635 -0.4327
   78MOL    H2826362   5.184   3.640   0.264 -0.0780 -0.9953  0.4660
   78MOL    H2926363   5.119   3.541   0.495 -0.1361 -1.2858  0.2820
   78MOL    H3026364   5.005   3.341   0.432 -0.9220  0.6648  0.3337
   78MOL    H3126365   4.982   3.449   0.303  2.1229  2.7662  1.8560
   78MOL    H3226366   5.023   3.154   0.281  0.9935  0.0553  0.5033
   78MOL    H3326367   4.962   3.268   0.161 -1.2896 -0.3737  0.8371
   78MOL    H3426368   5.223   3.158   0.165 -1.3742 -0.8167 -0.0105
   78MOL    H3526369   5.166   3.294   0.072 -0.8490 -0.3303 -0.1665
   78MOL    C3626370   5.320   3.482   0.546 -0.2603 -0.2068 -0.4692
   78MOL    C3726371   5.287   3.371   0.643  0.0653 -0.5090  0.3579
   78MOL    N3826372   5.407   3.325   0.707 -0.1519 -0.1534 -0.3565
   78MOL    C3926373   5.455   3.190   0.656  0.4592  0.3578 -0.4139
   78MOL    C4026374   5.599   3.178   0.696  0.4993  0.7523  0.3824
   78MOL    C4126375   5.617   3.293   0.796  0.0510 -0.5157  0.1226
   78MOL    C4226376   5.493   3.378   0.795  0.6421 -0.0094  0.2354
   78MOL    O4326377   5.468   3.466   0.877  0.1234  0.6229 -0.0126
   78MOL    H4426378   5.334   3.571   0.607  1.2223 -0.4241 -0.4680
   78MOL    H4526379   5.416   3.465   0.498  0.2617 -3.0952  1.4918
   78MOL    H4626380   5.245   3.284   0.592  0.6242  0.0679 -1.1178
   78MOL    H4726381   5.389   3.115   0.700  1.4056  0.5106  1.3225
   78MOL    H4826382   5.445   3.188   0.547 -0.2389 -0.9324 -0.3387
   78MOL    H4926383   5.621   3.085   0.747 -2.4916  0.1542  0.6656
   78MOL    H5026384   5.662   3.185   0.607 -2.1057  0.5894 -1.5062
   78MOL    H5126385   5.645   3.243   0.889 -0.8151  1.0239  1.2396
   78MOL    H5226386   5.701   3.356   0.766  2.0991 -2.1625  2.2154
   78MOL    C5326387   5.180   3.421   0.742 -0.2694 -0.3597 -0.1169
   78MOL    C5426388   5.132   3.316   0.848  0.3985 -0.1797  0.3783
   78MOL    N5526389   5.060   3.384   0.960 -0.1819  0.7615  0.5394
   78MOL    C5626390   5.101   3.371   1.095 -0.2785 -0.1581 -0.4894
   78MOL    C5726391   4.982   3.423   1.189  0.2882 -0.0606  0.0374
   78MOL    C5826392   4.898   3.512   1.081 -0.1567  0.0794 -0.6654
   78MOL    C5926393   4.955   3.465   0.945 -0.1333 -0.1826  0.0187
   78MOL    O6026394   4.900   3.511   0.843 -0.6130  0.0271 -0.0042
   78MOL    H6126395   5.090   3.455   0.691 -0.0519  0.7879  0.2433
   78MOL    H6226396   5.230   3.498   0.802  1.2262 -1.4469  0.0633
   78MOL    H6326397   5.221   3.269   0.890  1.7771  0.3295 -1.9123
   78MOL    H6426398   5.129   3.270   1.126  0.8613 -0.3258 -2.0465
   78MOL    H6526399   5.191   3.430   1.112 -2.0671  2.6252 -0.4674
   78MOL    H6626400   4.928   3.341   1.237  2.8421 -1.5478  0.4650
   78MOL    H6726401   5.024   3.479   1.272 -5.2022  1.1522  2.1931
   78MOL    H6826402   4.791   3.495   1.071 -0.0316 -1.8272  0.7704
   78MOL    H6926403   4.915   3.618   1.097  0.0595 -0.0669  0.0945
   78MOL    C7026404   5.038   3.202   0.788  0.6669 -0.2242 -0.2220
   78MOL    C7126405   5.071   3.064   0.841 -0.4877  0.7889  0.5861
   78MOL    N7226406   5.068   3.048   0.984  0.4033  0.6656 -0.2542
   78MOL    C7326407   5.185   3.007   1.061  0.5896  0.3062 -0.0863
   78MOL    C7426408   5.139   2.995   1.208  0.2274 -0.3990  0.1697
   78MOL    C7526409   4.993   3.043   1.207 -0.0714 -0.2287 -0.2103
   78MOL    C7626410   4.959   3.060   1.064 -0.0876 -0.5061 -0.5452
   78MOL    O7726411   4.852   3.100   1.027  0.0521  0.0916 -0.2098
   78MOL    H7826412   5.062   3.191   0.682  1.6393  0.0589 -0.0390
   78MOL    H7926413   4.931   3.222   0.795  0.3826 -1.4642 -0.9468
   78MOL    H8026414   5.175   3.044   0.813 -0.1362  1.5519  1.3159
   78MOL    H8126415   5.216   2.915   1.011  2.0999  0.5580  0.3640
   78MOL    H8226416   5.250   3.093   1.048  0.6879  0.0929 -1.0646
   78MOL    H8326417   5.147   2.887   1.219 -0.4057 -0.5744 -0.9837
   78MOL    H8426418   5.207   3.036   1.283  1.0075  1.1726 -1.3597
   78MOL    H8526419   4.933   2.973   1.265 -1.9302  0.5893 -1.1181
   78MOL    H8626420   4.983   3.138   1.260  1.3942  0.8203 -1.7750
   78MOL    C8726421   4.988   2.954   0.771  0.2655 -0.1001 -0.2030
   78MOL    C8826422   4.990   2.949   0.610  0.1249 -0.5622  0.2074
   78MOL    N8926423   5.112   2.885   0.553  0.5305 -0.1265 -0.7013
   78MOL    C9026424   5.186   2.943   0.445 -0.8865  0.3295 -0.5414
   78MOL    C9126425   5.229   2.822   0.359 -0.1277 -0.7525 -0.7730
   78MOL    C9226426   5.236   2.709   0.460 -0.1732  0.8901 -0.4607
   78MOL    C9326427   5.152   2.757   0.574 -0.2132  0.3813  0.0672
   78MOL    O9426428   5.118   2.683   0.665  0.4639  0.4680 -0.0963
   78MOL    H9526429   4.888   2.977   0.807  0.0947 -2.4998  1.0003
   78MOL    H9626430   5.011   2.852   0.803  2.2842 -0.1021 -1.5821
   78MOL    H9726431   4.973   3.046   0.564 -0.7179 -2.4179 -3.6182
   78MOL    H9826432   5.116   3.007   0.391 -1.9157  0.6552  1.1568
   78MOL    H9926433   5.277   2.987   0.486 -1.1314  0.7431 -0.4344
   78MOL   H10026434   5.154   2.803   0.282 -0.1615 -1.0575 -0.6667
   78MOL   H10126435   5.324   2.841   0.310 -0.8431  1.0385 -1.5116
   78MOL   H10226436   5.188   2.622   0.416  1.1922 -0.8336  1.3445
   78MOL   H10326437   5.337   2.684   0.492  0.0514  1.6542 -0.5611
   78MOL   C10426438   4.866   2.873   0.563 -0.2669 -0.0061 -0.4530
   78MOL   C10526439   4.725   2.929   0.606  0.4876 -0.3659 -0.3305
   78MOL   N10626440   4.713   3.073   0.618 -0.2420 -0.1239  0.5715
   78MOL   C10726441   4.638   3.121   0.738 -0.5362 -0.2701  1.2228
   78MOL   C10826442   4.621   3.270   0.726  0.2833 -0.3382 -0.0270
   78MOL   C10926443   4.713   3.309   0.609  0.2518 -0.0304 -0.7120
   78MOL   C11026444   4.751   3.181   0.542  0.0444 -0.4958  0.3104
   78MOL   O11126445   4.804   3.170   0.435 -0.3897  0.5205 -0.4218
   78MOL   H11226446   4.870   2.767   0.586 -0.8935  0.1315  0.3203
   78MOL   H11326447   4.865   2.869   0.454 -2.7768 -0.2941 -0.4462
   78MOL   H11426448   4.704   2.893   0.706  2.5127 -1.3782 -0.2551
   78MOL   H11526449   4.542   3.070   0.749 -0.8380 -0.1208 -0.5787
   78MOL   H11626450   4.700   3.088   0.822 -1.0202 -1.3307  1.1704
   78MOL   H11726451   4.515   3.286   0.708  0.2372 -1.0034 -0.3548
   78MOL   H11826452   4.657   3.315   0.819 -1.8739 -0.2537  0.7812
   78MOL   H11926453   4.803   3.362   0.642  0.4528  0.4786 -2.0081
   78MOL   H12026454   4.652   3.363   0.536  1.6807 -1.4963 -3.0704
   78MOL   C12126455   4.610   2.866   0.523 -0.3183  0.1682 -0.7256
   78MOL   C12226456   4.482   2.819   0.587 -0.4852  0.7222 -0.4381
   78MOL   N12326457   4.377   2.792   0.487 -0.1118 -0.1696  0.0762
   78MOL   C12426458   4.261   2.877   0.485  0.5076  0.3417  0.6503
   78MOL   C12526459   4.164   2.825   0.375 -0.5719 -0.4043 -0.3119
   78MOL   C12626460   4.243   2.721   0.291  0.1492 -0.4001  0.3099
   78MOL   C12726461   4.366   2.701   0.382 -1.0322  0.2690  0.3857
   78MOL   O12826462   4.453   2.627   0.342 -0.0766  0.4749 -0.6119
   78MOL   H12926463   4.656   2.789   0.461  1.7608  1.0184 -0.3173
   78MOL   H13026464   4.592   2.938   0.443  1.5201  1.6740  0.1780
   78MOL   H13126465   4.447   2.903   0.647  2.6788 -0.3542  3.1457
   78MOL   H13226466   4.290   2.982   0.475 -1.8074  0.8412 -1.3736
   78MOL   H13326467   4.210   2.862   0.580 -0.4840 -0.0837  0.0619
   78MOL   H13426468   4.064   2.821   0.416 -0.0384 -0.3173  1.0184
   78MOL   H13526469   4.147   2.907   0.305  2.0121 -2.1709 -3.1826
   78MOL   H13626470   4.179   2.633   0.281 -1.9836  1.3852 -2.3903
   78MOL   H13726471   4.270   2.757   0.192  0.5292  0.4715  0.7265
   78MOL   C13826472   4.505   2.687   0.671  0.1891 -0.3705  0.7442
   78MOL   C13926473   4.388   2.636   0.755 -0.3799 -0.0578  0.4618
   78MOL   N14026474   4.277   2.561   0.692 -0.1587  0.3298  0.2619
   78MOL   C14126475   4.136   2.586   0.738 -0.0314  0.1829 -0.1332
   78MOL   C14226476   4.052   2.479   0.671  0.2439 -0.0382  0.0377
   78MOL   C14326477   4.142   2.380   0.598  0.6449  0.1066 -0.1497
   78MOL   C14426478   4.284   2.443   0.616  0.1881 -0.3239 -0.2882
   78MOL   O14526479   4.384   2.388   0.578  0.1899  0.2642 -0.6477
   78MOL   H14626480   4.586   2.713   0.739 -0.1931  0.1643  0.9995
   78MOL   H14726481   4.551   2.603   0.620  0.7822 -1.0211  2.3433
   78MOL   H14826482   4.345   2.726   0.800  2.1463  0.7467  1.3321
   78MOL   H14926483   4.123   2.580   0.846  0.9687 -0.2852 -0.0309
   78MOL   H15026484   4.118   2.687   0.701 -2.5617  0.3442  1.4350
   78MOL   H15126485   3.984   2.428   0.741  1.5112 -0.9534  0.6224
   78MOL   H15226486   3.990   2.520   0.591 -2.3782 -2.6391  0.6187
   78MOL   H15326487   4.110   2.375   0.494  0.1999 -1.7419  0.0556
   78MOL   H15426488   4.143   2.284   0.649 -1.3859 -0.8232 -1.7419
   78MOL   C15526489   4.430   2.549   0.878 -0.5470 -0.3373  0.1034
   78MOL   C15626490   4.511   2.622   0.991  1.6776  0.1768 -0.1039
   78MOL   N15726491   4.437   2.740   1.039 -0.3756  0.8335  0.9858
   78MOL   C15826492   4.498   2.871   1.024 -0.4941 -0.5467 -0.2930
   78MOL   C15926493   4.421   2.956   1.123  0.1514  0.2194 -0.1677
   78MOL   C16026494   4.288   2.881   1.154 -0.1374 -0.1657  0.6334
   78MOL   C16126495   4.322   2.739   1.110 -0.7976  0.2757 -0.5183
   78MOL   O16226496   4.264   2.641   1.148 -0.1540 -0.0428  0.2867
   78MOL   H16326497   4.496   2.468   0.846  0.3203  1.0450 -1.6708
   78MOL   H16426498   4.350   2.489   0.920  0.9571 -1.8320  0.9148
   78MOL   H16526499   4.605   2.651   0.945  0.3270  1.9757 -1.7787
   78MOL   H16626500   4.606   2.883   1.036 -0.8499  0.4257  2.1321
   78MOL   H16726501   4.475   2.896   0.920  0.2309 -1.7755 -0.7588
   78MOL   H16826502   4.481   2.972   1.213  0.9855 -2.2667 -0.2270
   78MOL   H16926503   4.401   3.052   1.077  0.4746  0.1793 -0.3907
   78MOL   H17026504   4.252   2.888   1.256  2.4634  2.1283  1.4467
   78MOL   H17126505   4.208   2.914   1.088 -1.7239  0.4014  2.7814
   78MOL   C17226506   4.532   2.521   1.109  0.3020 -0.1871 -0.2005
   78MOL   C17326507   4.653   2.432   1.107  0.1935  0.0157 -0.0493
   78MOL   N17426508   4.777   2.501   1.073  0.4561 -0.0191 -0.0880
   78MOL   C17526509   4.841   2.599   1.157  0.2556 -0.5541  0.4505
   78MOL   C17626510   4.971   2.640   1.085  0.1919 -0.0704  1.1589
   78MOL   C17726511   4.958   2.583   0.944  0.2207  0.1449 -0.2020
   78MOL   C17826512   4.836   2.492   0.950 -0.2090  0.2398  0.0033
   78MOL   O17926513   4.796   2.417   0.861 -0.0467 -0.5356  0.2842
   78MOL   H18026514   4.447   2.457   1.134 -1.1431  0.7431 -2.5649
   78MOL   H18126515   4.554   2.580   1.198  0.5282  0.1087 -0.4518
   78MOL   H18226516   4.628   2.362   1.027 -1.4148  1.3438 -0.7442
   78MOL   H18326517   4.775   2.685   1.151  0.6858 -0.2356  0.2364
   78MOL   H18426518   4.861   2.575   1.261  0.6029  2.1811  1.0592
   78MOL   H18526519   5.053   2.600   1.145  1.4044  0.3028 -0.2512
   78MOL   H18626520   4.987   2.747   1.077 -0.5238 -0.0085  0.4909
   78MOL   H18726521   4.943   2.662   0.870 -0.3039 -0.0410 -0.2985
   78MOL   H18826522   5.043   2.524   0.908 -0.4795 -1.2922  0.4530
   78MOL   C18926523   4.670   2.365   1.244  0.0251  0.9602  0.1511
   78MOL   C19026524   4.772   2.251   1.250  0.8124 -1.2452 -0.0451
   78MOL   N19126525   4.849   2.265   1.372 -0.1798  0.1952 -0.0251
   78MOL   C19226526   4.996   2.280   1.371  0.1781  0.2232 -0.0644
   78MOL   C19326527   5.034   2.262   1.517  0.0043 -0.5397  0.0752
   78MOL   C19426528   4.904   2.264   1.599  0.5377 -0.4848 -0.0123
   78MOL   C19526529   4.797   2.240   1.497 -0.2778 -0.0280  0.2273
   78MOL   O19626530   4.682   2.197   1.516  0.3078 -0.2423 -0.2468
   78MOL   H19726531   4.579   2.319   1.283 -0.1332 -0.5306 -1.9339
   78MOL   H19826532   4.691   2.448   1.312  2.5983  1.6599 -1.4563
   78MOL   H19926533   4.850   2.271   1.177 -1.2380  0.7009 -1.7633
   78MOL   H20026534   5.036   2.205   1.303 -2.6470  1.0717 -2.7876
   78MOL   H20126535   5.021   2.378   1.329 -2.2140  1.4699  1.3072
   78MOL   H20226536   5.070   2.160   1.529  0.0757 -0.6532 -1.0206
   78MOL   H20326537   5.117   2.327   1.546  0.3146  0.9108 -3.7165
   78MOL   H20426538   4.907   2.190   1.679 -1.5497  2.3359  2.7795
   78MOL   H20526539   4.879   2.363   1.638  0.3345 -0.1288 -1.0382
   78MOL   C20626540   4.709   2.107   1.235 -0.5429  0.1784 -0.6506
   78MOL   C20726541   4.653   2.052   1.098  0.2610  0.5344  0.0546
   78MOL   N20826542   4.752   2.049   0.985  0.0531 -0.2568  1.0842
   78MOL   C20926543   4.709   2.113   0.861  0.3505 -0.4651 -0.3709
   78MOL   C21026544   4.848   2.104   0.782 -0.5807 -0.0033  0.5244
   78MOL   C21126545   4.935   2.004   0.853  0.0607  0.1034  0.2644
   78MOL   C21226546   4.873   1.997   0.990  0.8235 -0.0909  0.2529
   78MOL   O21326547   4.938   1.946   1.084 -0.2420 -0.3341 -0.0027
   78MOL   H21426548   4.623   2.090   1.300 -1.3891  1.5267 -1.4015
   78MOL   H21526549   4.794   2.052   1.277 -1.6641 -0.3499  0.9901
   78MOL   H21626550   4.572   2.119   1.068  0.9732  2.1341  1.6291
   78MOL   H21726551   4.625   2.055   0.825  0.9280 -0.8925 -1.0342
   78MOL   H21826552   4.679   2.216   0.882  1.4680 -0.3700  0.8231
   78MOL   H21926553   4.840   2.100   0.673  2.2881  2.9179  0.1327
   78MOL   H22026554   4.896   2.201   0.799 -1.0112 -0.1651  2.7379
   78MOL   H22126555   4.932   1.906   0.805  1.3970 -1.5717  3.4319
   78MOL   H22226556   5.031   2.051   0.873 -0.6220  2.4920 -1.7886
   78MOL   C22326557   4.598   1.906   1.125  0.7463 -0.0328  0.7382
   78MOL   C22426558   4.444   1.896   1.153 -0.1120  0.3278  0.2904
   78MOL   N22526559   4.366   1.958   1.043 -0.0089 -0.1833  0.4411
   78MOL   C22626560   4.267   2.063   1.075 -0.2375  0.4407 -0.4805
   78MOL   C22726561   4.197   2.106   0.945  0.0504 -0.6815 -0.4589
   78MOL   C22826562   4.245   2.006   0.840  0.2036 -0.2364 -0.0450
   78MOL   C22926563   4.353   1.924   0.911  0.2432 -0.3690 -0.1035
   78MOL   O23026564   4.423   1.843   0.852  0.6726  0.2113 -0.2004
   78MOL   H23126565   4.654   1.866   1.210 -0.5802 -2.1485  0.6358
   78MOL   H23226566   4.617   1.829   1.050  0.6377 -0.6495  1.3442
   78MOL   H23326567   4.424   1.957   1.242 -2.4226 -1.1942  0.8729
   78MOL   H23426568   4.189   2.016   1.134  0.1348  1.1422  0.5837
   78MOL   H23526569   4.319   2.136   1.137  1.8229 -1.5265  0.1697
   78MOL   H23626570   4.090   2.089   0.956  0.4462 -2.2913  1.2594
   78MOL   H23726571   4.195   2.213   0.924  2.5887  0.0005  2.3892
   78MOL   H23826572   4.155   1.955   0.805 -2.4334  4.3567 -0.3833
   78MOL   H23926573   4.293   2.056   0.755  0.5157 -0.9707 -0.3050
   78MOL   C24026574   4.389   1.758   1.183 -0.3469  0.1667 -0.4594
   78MOL   C24126575   4.459   1.690   1.308  0.1600  0.6090  0.1584
   78MOL   N24226576   4.470   1.782   1.431  0.3525 -0.4705  0.1020
   78MOL   C24326577   4.596   1.775   1.504 -0.1316 -0.1511 -0.0150
   78MOL   C24426578   4.568   1.865   1.624  1.1148 -0.2338 -0.1333
   78MOL   C24526579   4.435   1.937   1.602  0.4218  0.0728  0.8192
   78MOL   C24626580   4.373   1.865   1.483  0.0496 -0.6294 -0.3419
   78MOL   O24726581   4.262   1.888   1.438 -0.0055 -0.0663 -0.2526
   78MOL   H24826582   4.382   1.704   1.089  0.3774  1.9145 -1.5395
   78MOL   H24926583   4.281   1.761   1.191 -0.4278  0.8252 -1.7792
   78MOL   H25026584   4.559   1.656   1.281 -0.4137 -0.4278 -0.6943
   78MOL   H25126585   4.626   1.673   1.526 -0.2617 -0.3424 -0.7458
   78MOL   H25226586   4.673   1.814   1.438  1.7580 -2.3447  0.8410
   78MOL   H25326587   4.567   1.798   1.711  3.7234 -0.7839 -0.4922
   78MOL   H25426588   4.650   1.928   1.659  0.0130  1.3218 -0.2993
   78MOL   H25526589   4.368   1.933   1.688 -0.4329 -0.0776  0.1541
   78MOL   H25626590   4.456   2.043   1.589  0.3224 -0.0560 -0.5335
   78MOL   C25726591   4.370   1.579   1.358  0.2075  0.7510  0.2214
   78MOL   C25826592   4.366   1.452   1.276 -0.1562 -0.0341  1.0203
   78MOL   N25926593   4.502   1.385   1.250 -0.0125  0.8952  0.1798
   78MOL   C26026594   4.544   1.355   1.116  0.1361 -0.0478 -0.6800
   78MOL   C26126595   4.677   1.271   1.124 -0.5678 -0.6435 -0.0187
   78MOL   C26226596   4.703   1.274   1.271  0.0577 -0.4098  0.3492
   78MOL   C26326597   4.593   1.346   1.338  0.4598 -0.2919  0.7286
   78MOL   O26426598   4.586   1.364   1.459 -0.3029  0.1533  0.6177
   78MOL   H26526599   4.272   1.621   1.379  0.4807  1.3409  0.3466
   78MOL   H26626600   4.402   1.555   1.459  0.5026  1.9941  0.4355
   78MOL   H26726601   4.322   1.476   1.179 -0.3227  0.8695  1.3163
   78MOL   H26826602   4.466   1.305   1.057 -0.2143 -1.0090  0.5738
   78MOL   H26926603   4.564   1.453   1.075  0.5192 -0.4328 -1.4208
   78MOL   H27026604   4.645   1.173   1.089  0.0113 -0.5613 -0.7991
   78MOL   H27126605   4.755   1.319   1.065 -0.3061  2.4101  2.6604
   78MOL   H27226606   4.730   1.182   1.322  1.2888  0.1431  0.7335
   78MOL   H27326607   4.791   1.336   1.289 -0.2337  0.6232 -1.6739
   78MOL   C27426608   4.273   1.341   1.330  0.2340  0.3961 -0.1557
   78MOL   C27526609   4.230   1.225   1.235 -0.5904  0.6525 -0.5064
   78MOL   N27626610   4.203   1.104   1.310  0.1276  0.1516  0.3761
   78MOL   C27726611   4.292   0.989   1.301 -0.1605 -0.3596 -0.2435
   78MOL   C27826612   4.222   0.888   1.394 -0.7549 -0.3854  0.0852
   78MOL   C27926613   4.094   0.946   1.435  0.2091 -0.2124 -0.0222
   78MOL   C28026614   4.102   1.089   1.392  0.0233  0.1114 -0.0996
   78MOL   O28126615   4.012   1.168   1.413 -0.1746 -0.0550 -0.6908
   78MOL   H28226616   4.183   1.378   1.378  0.7364  1.1501  0.2164
   78MOL   H28326617   4.326   1.290   1.410  1.3930 -0.2689 -1.3169
   78MOL   H28426618   4.320   1.205   1.177 -0.2295 -0.1594  0.3082
   78MOL   H28526619   4.304   0.958   1.197  2.5460  2.3941 -0.8488
   78MOL   H28626620   4.393   1.008   1.337  0.0714 -1.9778 -0.0135
   78MOL   H28726621   4.217   0.793   1.341  0.4056  0.3034 -1.2976
   78MOL   H28826622   4.288   0.889   1.481 -2.0121 -2.8699  1.1174
   78MOL   H28926623   4.013   0.890   1.389  1.1411 -1.1565 -0.5419
   78MOL   H29026624   4.077   0.934   1.542  0.8092  0.6655  0.1801
   78MOL   C29126625   4.119   1.254   1.135  0.8212 -0.1813 -0.3559
   78MOL   C29226626   4.049   1.143   1.045 -0.0777  0.7784  0.3380
   78MOL   N29326627   3.907   1.163   1.052  0.2692 -0.0472  0.0470
   78MOL   C29426628   3.829   1.067   1.126  0.0998 -0.0040 -0.0471
   78MOL   C29526629   3.697   1.131   1.167  0.1933  0.1829  0.5347
   78MOL   C29626630   3.689   1.263   1.084  0.0791 -0.2047  0.2211
   78MOL   C29726631   3.836   1.278   1.039  0.9718 -0.0262 -0.6786
   78MOL   O29826632   3.881   1.376   0.989  0.1357 -0.1132 -0.3514
   78MOL   H29926633   4.153   1.342   1.081  2.4210  0.1116  1.0979
   78MOL   H30026634   4.037   1.297   1.193  1.5955  0.2767  0.4109
   78MOL   H30126635   4.076   1.046   1.086 -0.7348  0.2165 -0.5538
   78MOL   H30226636   3.817   0.974   1.070  0.7764  0.0176 -0.2347
   78MOL   H30326637   3.885   1.036   1.214  0.0252 -2.9207 -0.9705
   78MOL   H30426638   3.621   1.060   1.134  2.2728 -0.2095 -3.5839
   78MOL   H30526639   3.695   1.151   1.275 -1.9050  0.1992  0.5245
   78MOL   H30626640   3.625   1.244   0.997  0.6943  0.4512 -0.3846
   78MOL   H30726641   3.656   1.354   1.134 -1.0245 -0.3450 -0.2215
   78MOL   C30826642   4.095   1.125   0.897 -0.1845  0.1310 -0.1415
   78MOL   C30926643   4.238   1.095   0.861 -0.7867 -0.3491 -0.4439
   78MOL   N31026644   4.276   0.952   0.873  0.0245 -0.2029  0.5683
   78MOL   C31126645   4.222   0.854   0.782 -0.5278 -0.2311  0.1566
   78MOL   C31226646   4.295   0.722   0.809 -0.1088 -0.4591  0.1596
   78MOL   C31326647   4.385   0.756   0.917 -0.2334 -0.0579 -0.5723
   78MOL   C31426648   4.377   0.907   0.941 -0.3277 -0.5264 -0.1402
   78MOL   O31526649   4.462   0.973   0.992 -0.1564 -0.3245  0.0872
   78MOL   H31626650   4.086   1.225   0.856  0.3750  0.1382 -0.2409
   78MOL   H31726651   4.026   1.063   0.839 -0.0985  0.1180 -0.2291
   78MOL   H31826652   4.289   1.144   0.944 -0.3877 -1.4782 -0.0150
   78MOL   H31926653   4.116   0.832   0.796 -0.6550 -0.0394 -0.5061
   78MOL   H32026654   4.232   0.881   0.677  0.7747 -3.3354 -0.5576
   78MOL   H32126655   4.217   0.647   0.821 -2.4353  1.6338 -1.3890
   78MOL   H32226656   4.357   0.698   0.723 -0.0969 -0.1967  0.0949
   78MOL   H32326657   4.338   0.714   1.006 -0.8225  2.1155  0.1719
   78MOL   H32426658   4.486   0.715   0.913 -0.5437 -0.9927  0.9519
   78MOL   C32526659   4.287   1.165   0.730 -0.5421 -0.6020  0.1710
   78MOL   C32626660   4.337   1.306   0.768  0.0921  0.1493  0.1234
   78MOL   N32726661   4.360   1.398   0.654 -0.2705  0.5215  0.5448
   78MOL   C32826662   4.365   1.539   0.694 -0.2747  0.1677 -0.4565
   78MOL   C32926663   4.403   1.613   0.568 -0.0955 -0.0277  0.3179
   78MOL   C33026664   4.431   1.505   0.459 -0.0750 -0.0783  0.5032
   78MOL   C33126665   4.386   1.373   0.526  0.8982 -0.4000 -0.0508
   78MOL   O33226666   4.386   1.264   0.462  0.8277 -0.4856  0.0679
   78MOL   H33326667   4.207   1.170   0.656 -0.5339  1.8194  0.3028
   78MOL   H33426668   4.367   1.103   0.690 -1.0953 -2.2012  1.4625
   78MOL   H33526669   4.425   1.302   0.832 -0.9918  1.3590  1.7281
   78MOL   H33626670   4.271   1.573   0.738  0.6938  1.1223  0.9007
   78MOL   H33726671   4.443   1.556   0.768 -0.8522 -0.0782  0.2163
   78MOL   H33826672   4.318   1.674   0.539 -0.5436 -0.3898  0.8485
   78MOL   H33926673   4.491   1.673   0.589 -0.3850  0.8341 -0.8826
   78MOL   H34026674   4.388   1.518   0.359  2.9228 -2.4787 -1.1526
   78MOL   H34126675   4.538   1.501   0.439  0.0986 -0.0967  1.4307
   78MOL   H34226676   4.259   1.354   0.827  1.7550  0.8022  1.8371
   79MOL     C126677   3.043   4.827   4.502  0.0926 -0.2253 -0.3356
   79MOL     C226678   3.011   4.749   4.637 -0.1906  0.5120  0.5396
   79MOL     N326679   3.127   4.679   4.682  0.3983 -0.1523  0.1802
   79MOL     C426680   3.264   4.704   4.641 -0.7247  0.3617  0.5081
   79MOL     C526681   3.361   4.650   4.742 -0.5148 -0.3071  0.0034
   79MOL     C626682   3.270   4.560   4.833  0.3998  0.2613  0.1655
   79MOL     C726683   3.130   4.590   4.782  0.6317  1.1394  0.5708
   79MOL     O826684   3.028   4.540   4.835  0.5210  0.3140  0.7886
   79MOL     H926685   3.098   4.758   4.438  0.7377  0.5474 -0.6244
   79MOL    H1026686   2.950   4.873   4.467 -1.4223 -0.7089  2.8230
   79MOL    H1126687   2.946   4.671   4.599  1.2417  0.8920 -2.8884
   79MOL    H1226688   3.281   4.647   4.550  2.0698 -2.2890  2.5715
   79MOL    H1326689   3.270   4.811   4.622  1.5301 -0.6419 -5.3865
   79MOL    H1426690   3.447   4.594   4.708  0.4197 -1.2049  3.6407
   79MOL    H1526691   3.406   4.736   4.793 -0.8600 -0.6832  0.9467
   79MOL    H1626692   3.300   4.456   4.823  0.1889 -0.1034  2.9207
   79MOL    H1726693   3.276   4.572   4.941 -0.7843  0.3910  0.2194
   79MOL    H1826694   3.114   4.909   4.518  1.0665 -0.9219 -1.0927
   79MOL    C1926695   2.949   4.833   4.750 -0.1261  0.0365  0.2062
   79MOL    C2026696   2.838   4.938   4.715  0.7788 -0.6766 -0.1517
   79MOL    N2126697   2.705   4.889   4.680 -0.4848 -0.6717  0.9626
   79MOL    C2226698   2.647   4.929   4.554  0.4067  0.7762  0.5746
   79MOL    C2326699   2.508   4.856   4.554 -0.0903 -0.0802 -0.1101
   79MOL    C2426700   2.507   4.759   4.669  0.3574 -0.0197  0.9788
   79MOL    C2526701   2.628   4.798   4.740 -0.6119 -0.2978 -0.0812
   79MOL    O2626702   2.658   4.747   4.845  0.5287 -0.6720 -0.1110
   79MOL    H2726703   3.034   4.889   4.789  0.8350 -0.7853 -0.6691
   79MOL    H2826704   2.913   4.773   4.833 -1.6067  1.2441  0.4548
   79MOL    H2926705   2.865   4.994   4.626  1.7280 -0.8151  0.0500
   79MOL    H3026706   2.640   5.037   4.544 -0.9564  0.7108  0.7708
   79MOL    H3126707   2.709   4.892   4.472  0.5168  0.6877  0.6976
   79MOL    H3226708   2.442   4.942   4.566  0.0145  0.0449 -0.4069
   79MOL    H3326709   2.502   4.792   4.466  0.6004  1.3040 -1.1702
   79MOL    H3426710   2.422   4.765   4.736  1.1813  0.2046  2.0251
   79MOL    H3526711   2.505   4.657   4.632  2.0745 -0.2007  1.3456
   79MOL    C3626712   2.818   5.037   4.835 -0.4127  0.0653 -0.5524
   79MOL    C3726713   2.934   5.138   4.864  0.2141 -0.0569  0.0247
   79MOL    N3826714   2.993   5.202   4.748 -0.3456  0.2842  0.0522
   79MOL    C3926715   3.133   5.177   4.728 -0.0440  0.0543  0.4190
   79MOL    C4026716   3.183   5.248   4.604  0.5345 -0.0643  0.0569
   79MOL    C4126717   3.061   5.328   4.560 -0.6607  0.2956 -0.7900
   79MOL    C4226718   2.943   5.276   4.647 -0.2573  0.8994  0.2976
   79MOL    O4326719   2.828   5.291   4.607  0.4613  0.3826  0.1883
   79MOL    H4426720   2.793   4.994   4.932  1.4893  0.0796 -0.0246
   79MOL    H4526721   2.735   5.094   4.793 -0.7246  2.1190  2.6912
   79MOL    H4626722   3.006   5.083   4.924  0.8632 -1.1972 -1.7618
   79MOL    H4726723   3.186   5.222   4.812  1.1924 -0.5490 -0.0145
   79MOL    H4826724   3.155   5.070   4.725  0.8116  0.2175  0.6790
   79MOL    H4926725   3.272   5.310   4.612  0.9335 -0.6224 -0.0571
   79MOL    H5026726   3.199   5.179   4.520 -3.2383  2.1127 -2.6064
   79MOL    H5126727   3.077   5.430   4.595 -1.7708  1.0595 -2.4639
   79MOL    H5226728   3.030   5.334   4.456 -0.0336  0.2305 -0.9819
   79MOL    C5326729   2.904   5.254   4.962 -0.3284  0.4671  0.0933
   79MOL    C5426730   2.830   5.229   5.094 -0.4461 -0.1553 -0.0018
   79MOL    N5526731   2.899   5.147   5.190 -0.0419 -0.6735 -0.0483
   79MOL    C5626732   2.823   5.058   5.282  0.3183  0.1647  0.6960
   79MOL    C5726733   2.928   5.020   5.392 -0.2061 -0.2527 -0.1779
   79MOL    C5826734   3.063   5.082   5.348  0.0430 -0.5633  0.5693
   79MOL    C5926735   3.026   5.167   5.228  0.1934 -0.3237 -0.1092
   79MOL    O6026736   3.106   5.249   5.177  0.5412 -0.0737  0.4221
   79MOL    H6126737   2.849   5.329   4.905  1.9331  1.6292 -0.5851
   79MOL    H6226738   2.984   5.326   4.981 -1.1353  1.4874 -0.2859
   79MOL    H6326739   2.740   5.175   5.066 -0.9613  0.5717  0.2284
   79MOL    H6426740   2.729   5.095   5.323  0.9129 -0.0163  2.2328
   79MOL    H6526741   2.796   4.974   5.217  0.3285  1.2067 -0.6715
   79MOL    H6626742   2.898   5.055   5.491 -1.0082  1.2176 -0.9320
   79MOL    H6726743   2.942   4.912   5.394  0.5589 -0.1349  1.2463
   79MOL    H6826744   3.103   5.148   5.425 -0.4469  1.5723 -0.9411
   79MOL    H6926745   3.137   5.008   5.319 -0.4719 -1.1808  0.7957
   79MOL    C7026746   2.786   5.362   5.156 -1.0005  0.0354 -0.4551
   79MOL    C7126747   2.659   5.423   5.094 -0.2125 -0.0512  0.1245
   79MOL    N7226748   2.555   5.318   5.087  0.5527  0.7474  0.2835
   79MOL    C7326749   2.503   5.283   4.950  0.2648 -0.4624  0.9546
   79MOL    C7426750   2.417   5.161   4.972  0.2161 -0.4565 -0.3323
   79MOL    C7526751   2.396   5.143   5.131 -0.6829  0.3294 -0.0835
   79MOL    C7626752   2.498   5.246   5.186 -0.1878  0.0349  0.4194
   79MOL    O7726753   2.525   5.255   5.304  0.4425 -0.3697 -0.1701
   79MOL    H7826754   2.869   5.433   5.149  0.0555 -1.0922  0.3684
   79MOL    H7926755   2.776   5.348   5.263 -1.3810  1.1201 -0.3459
   79MOL    H8026756   2.694   5.449   4.994  0.1770  0.6669  0.4455
   79MOL    H8126757   2.455   5.366   4.898  0.4448 -0.6042  0.5594
   79MOL    H8226758   2.585   5.254   4.884  0.3989 -0.8973  1.3112
   79MOL    H8326759   2.319   5.182   4.929  1.4820 -1.3998 -3.8834
   79MOL    H8426760   2.459   5.072   4.925 -0.7586 -1.3183  0.4131
   79MOL    H8526761   2.297   5.171   5.166 -0.3869  0.0508  1.0061
   79MOL    H8626762   2.408   5.040   5.165  0.0658  0.7289  0.8838
   79MOL    C8726763   2.606   5.550   5.176 -0.1929  0.1519 -0.1807
   79MOL    C8826764   2.710   5.667   5.161  1.0153  0.4220  0.5667
   79MOL    N8926765   2.698   5.732   5.026  0.2325  0.4176  0.5706
   79MOL    C9026766   2.813   5.719   4.933 -0.7133  0.0558  0.5301
   79MOL    C9126767   2.774   5.807   4.807 -0.2791 -0.9029  0.1085
   79MOL    C9226768   2.625   5.819   4.821  0.1274  0.0469 -0.3270
   79MOL    C9326769   2.602   5.803   4.969  0.2562 -0.1407  0.0880
   79MOL    O9426770   2.503   5.846   5.028  0.2632  0.0933 -0.0181
   79MOL    H9526771   2.580   5.529   5.279 -0.5918  0.5252 -0.2076
   79MOL    H9626772   2.513   5.578   5.127  1.1496  1.7957 -1.8576
   79MOL    H9726773   2.812   5.630   5.167  1.1606  0.0058 -3.4473
   79MOL    H9826774   2.905   5.751   4.981 -0.7968  1.1892 -0.0490
   79MOL    H9926775   2.822   5.616   4.898  4.5505  0.8570 -0.8606
   79MOL   H10026776   2.825   5.903   4.809  0.0493 -1.0058 -2.3505
   79MOL   H10126777   2.791   5.749   4.716 -1.6540 -0.1343 -0.6442
   79MOL   H10226778   2.600   5.922   4.796  2.7372  0.7407 -0.2002
   79MOL   H10326779   2.567   5.745   4.765  1.6389 -1.3118 -0.1356
   79MOL   C10426780   2.695   5.778   5.268 -0.0585  0.6895 -0.5824
   79MOL   C10526781   2.799   5.896   5.264  0.0162  0.2061 -0.8595
   79MOL   N10626782   2.739   6.002   5.346 -0.0560  0.0192 -0.3404
   79MOL   C10726783   2.719   6.134   5.296 -0.1612 -0.8807  0.1541
   79MOL   C10826784   2.705   6.231   5.418  1.0500  0.2226  0.1654
   79MOL   C10926785   2.689   6.136   5.540  0.3130  0.1133 -0.1659
   79MOL   C11026786   2.710   5.994   5.482 -0.1789 -0.1863  0.5545
   79MOL   O11126787   2.724   5.898   5.555 -0.4465 -0.0933 -0.0812
   79MOL   H11226788   2.694   5.728   5.365 -1.7578  0.6585 -0.5991
   79MOL   H11326789   2.592   5.812   5.262 -0.2525  0.5449  1.4887
   79MOL   H11426790   2.798   5.925   5.159 -3.1504  3.3361 -0.0864
   79MOL   H11526791   2.800   6.163   5.228 -0.4067 -0.1873  0.1535
   79MOL   H11626792   2.628   6.130   5.237  0.0675  0.4749 -0.2917
   79MOL   H11726793   2.799   6.286   5.422  1.1755 -0.0023  0.2585
   79MOL   H11826794   2.621   6.296   5.391  0.8209  0.7555  2.0522
   79MOL   H11926795   2.588   6.144   5.579  0.8004 -0.4251  1.2657
   79MOL   H12026796   2.765   6.162   5.614 -2.1863  4.2967  1.1383
   79MOL   C12126797   2.941   5.850   5.306 -0.7114 -0.3578  0.1363
   79MOL   C12226798   3.033   5.971   5.323  0.2539 -0.5169 -0.0207
   79MOL   N12326799   3.129   5.954   5.430  0.6164  1.3756 -0.2256
   79MOL   C12426800   3.126   6.037   5.546 -0.0934  0.0565 -0.1227
   79MOL   C12526801   3.259   6.015   5.625 -0.1402  0.0431 -1.1406
   79MOL   C12626802   3.325   5.900   5.549 -0.0274 -0.1687 -0.1846
   79MOL   C12726803   3.235   5.869   5.432  0.1135 -0.3746 -0.3789
   79MOL   O12826804   3.266   5.778   5.357  0.1123  0.2899 -0.0404
   79MOL   H12926805   2.984   5.773   5.241 -2.7443 -0.9996 -0.4987
   79MOL   H13026806   2.938   5.798   5.401 -1.0582  0.4830  0.5898
   79MOL   H13126807   2.972   6.058   5.347  2.8078  2.2686 -3.1027
   79MOL   H13226808   3.039   6.003   5.603  0.1701 -1.6491 -0.7254
   79MOL   H13326809   3.098   6.142   5.536 -0.1163  0.1203  0.5653
   79MOL   H13426810   3.315   6.109   5.623  1.9229 -1.0645  1.3238
   79MOL   H13526811   3.246   5.983   5.728  1.8803 -0.7961 -1.1203
   79MOL   H13626812   3.425   5.915   5.508 -0.4455  2.2683 -0.3812
   79MOL   H13726813   3.326   5.808   5.608  0.1102  0.2408  0.4543
   79MOL   C13826814   3.103   6.013   5.187  0.3087  0.6008 -0.0515
   79MOL   C13926815   3.191   6.136   5.193 -0.6669  0.3460 -0.1716
   79MOL   N14026816   3.277   6.141   5.077  0.2025  0.4354  0.1942
   79MOL   C14126817   3.414   6.099   5.088 -0.0878  0.4816 -0.4749
   79MOL   C14226818   3.478   6.095   4.947  0.1087 -0.5346 -0.6047
   79MOL   C14326819   3.364   6.147   4.855 -0.5214  0.5172 -0.3563
   79MOL   C14426820   3.252   6.182   4.953  0.4457 -0.7873 -0.5538
   79MOL   O14526821   3.156   6.250   4.921 -0.4623  0.2958 -0.0032
   79MOL   H14626822   3.028   6.016   5.108  0.1742 -0.4522  0.0316
   79MOL   H14726823   3.167   5.936   5.144 -0.9637 -0.2003 -0.5156
   79MOL   H14826824   3.254   6.130   5.282 -2.2378 -0.6610  0.8969
   79MOL   H14926825   3.472   6.165   5.153 -0.6900  1.4664 -0.9259
   79MOL   H15026826   3.418   5.998   5.129 -3.7610  0.5171  0.0905
   79MOL   H15126827   3.551   6.177   4.950 -0.8102  0.3158 -1.2343
   79MOL   H15226828   3.532   6.007   4.912  0.2474 -0.6637 -0.0821
   79MOL   H15326829   3.328   6.072   4.785  1.9429  1.8363 -3.1171
   79MOL   H15426830   3.398   6.232   4.796  4.0666 -1.0979 -0.2386
   79MOL   C15526831   3.103   6.262   5.216 -0.4549 -0.5186  0.1424
   79MOL   C15626832   3.176   6.399   5.217 -0.2898  0.1167 -0.6157
   79MOL   N15726833   3.086   6.508   5.249 -0.0595 -0.1857 -0.4379
   79MOL   C15826834   3.045   6.602   5.149  0.1274  0.4400  0.2120
   79MOL   C15926835   2.960   6.708   5.216 -0.2215  0.5921 -0.3390
   79MOL   C16026836   2.963   6.672   5.365 -0.0507 -0.3099  0.5466
   79MOL   C16126837   3.020   6.526   5.366  0.1893 -0.2027 -0.0219
   79MOL   O16226838   3.032   6.460   5.472  0.6062 -0.1792  0.1047
   79MOL   H16326839   3.056   6.247   5.313  0.1957 -1.4566  0.3171
   79MOL   H16426840   3.011   6.266   5.158 -1.7768  1.5293  2.3169
   79MOL   H16526841   3.223   6.414   5.120 -0.4874 -0.1343 -0.7508
   79MOL   H16626842   3.136   6.641   5.104 -1.2324 -0.2781 -3.3982
   79MOL   H16726843   2.993   6.550   5.068  3.4393  0.9448 -2.3506
   79MOL   H16826844   3.012   6.803   5.208  0.9303  0.0282  0.4327
   79MOL   H16926845   2.859   6.718   5.176 -1.0170  1.3902  1.8412
   79MOL   H17026846   3.021   6.741   5.426  2.1195 -0.9355 -0.7792
   79MOL   H17126847   2.862   6.662   5.406 -0.6735 -4.0640 -1.7636
   79MOL   C17226848   3.302   6.391   5.308 -1.1216 -0.1783 -0.3035
   79MOL   C17326849   3.397   6.515   5.303  0.6189  0.1099 -0.1744
   79MOL   N17426850   3.507   6.509   5.404 -0.1887 -0.7103  0.2852
   79MOL   C17526851   3.518   6.627   5.489 -0.7471 -0.3234  0.4059
   79MOL   C17626852   3.635   6.605   5.582  0.3852 -0.4714 -0.4393
   79MOL   C17726853   3.694   6.473   5.543  0.1954 -0.0876 -0.2929
   79MOL   C17826854   3.610   6.426   5.424 -0.0299  0.3707 -0.1994
   79MOL   O17926855   3.638   6.323   5.363  0.5881 -0.2413  0.1097
   79MOL   H18026856   3.359   6.299   5.291 -1.0451 -0.8207  3.0902
   79MOL   H18126857   3.282   6.379   5.414  0.2317 -0.8465 -0.1108
   79MOL   H18226858   3.335   6.605   5.308  0.6654  0.2127 -1.1956
   79MOL   H18326859   3.538   6.717   5.431 -0.9074  0.1884  1.1348
   79MOL   H18426860   3.427   6.651   5.544 -0.7810 -1.4676  0.8674
   79MOL   H18526861   3.617   6.598   5.689  0.4800  2.3780 -0.1844
   79MOL   H18626862   3.708   6.684   5.560 -0.6287  0.3385 -0.9209
   79MOL   H18726863   3.801   6.490   5.533  0.8612 -3.1803  0.7850
   79MOL   H18826864   3.690   6.387   5.611 -0.0806 -0.1438 -0.3835
   79MOL   C18926865   3.473   6.506   5.169  0.3116 -0.3127 -0.0921
   79MOL   C19026866   3.555   6.623   5.121  0.1007  0.1615 -0.4758
   79MOL   N19126867   3.673   6.582   5.044 -0.2993 -0.1066 -0.8973
   79MOL   C19226868   3.802   6.655   5.066 -1.1581  0.3042 -0.5179
   79MOL   C19326869   3.904   6.574   4.998 -0.3438 -0.2398 -0.9509
   79MOL   C19426870   3.824   6.488   4.901 -0.2490  0.5067 -0.4710
   79MOL   C19526871   3.683   6.505   4.936  0.1719  0.4478 -0.0917
   79MOL   O19626872   3.593   6.434   4.885 -0.0099 -0.3248  0.0951
   79MOL   H19726873   3.401   6.498   5.088  2.2320  0.0594 -1.8574
   79MOL   H19826874   3.528   6.412   5.163  0.7773 -0.0776  0.4370
   79MOL   H19926875   3.589   6.669   5.214 -1.1005 -0.1335  0.1268
   79MOL   H20026876   3.794   6.757   5.028  2.4737  0.3197 -1.4175
   79MOL   H20126877   3.814   6.659   5.174  0.6109  0.2625 -0.7042
   79MOL   H20226878   3.974   6.644   4.953 -0.3945 -0.1559 -0.8990
   79MOL   H20326879   3.955   6.503   5.063 -1.5873 -1.3839 -1.1954
   79MOL   H20426880   3.833   6.509   4.794  2.5318 -0.6693 -0.5277
   79MOL   H20526881   3.851   6.383   4.910  1.0881  0.9503  0.9306
   79MOL   C20626882   3.470   6.727   5.046  0.4483 -0.9249  0.0434
   79MOL   C20726883   3.519   6.871   5.045 -0.4637  0.0680  0.2663
   79MOL   N20826884   3.415   6.968   4.980 -1.0142  0.3161  0.2538
   79MOL   C20926885   3.458   7.033   4.854 -0.0296  0.0834  0.1404
   79MOL   C21026886   3.321   7.098   4.812  0.3818  0.8475  0.5959
   79MOL   C21126887   3.219   7.079   4.923 -0.7193 -0.6385  0.3484
   79MOL   C21226888   3.287   6.983   5.021  0.1973  0.2686 -0.5378
   79MOL   O21326889   3.230   6.941   5.119 -0.5482  0.3162 -0.2602
   79MOL   H21426890   3.369   6.727   5.085  0.8488 -1.2667  1.1027
   79MOL   H21526891   3.460   6.689   4.944 -0.9587  1.6482 -0.8017
   79MOL   H21626892   3.609   6.871   4.984 -0.4893  0.2225  0.2278
   79MOL   H21726893   3.538   7.101   4.883 -0.4947 -0.2526  2.2859
   79MOL   H21826894   3.489   6.957   4.782 -3.0886 -1.3930  0.2836
   79MOL   H21926895   3.342   7.204   4.804  1.8231  0.5231  0.0217
   79MOL   H22026896   3.292   7.054   4.717  1.8084 -0.5035  0.7752
   79MOL   H22126897   3.214   7.176   4.973  2.7172 -0.5490  0.6420
   79MOL   H22226898   3.124   7.051   4.877  1.0538 -5.8370 -0.3982
   79MOL   C22326899   3.554   6.903   5.194 -0.3154  0.0416  0.5518
   79MOL   C22426900   3.542   7.049   5.254  0.0959 -0.7047 -0.0154
   79MOL   N22526901   3.515   7.045   5.402 -0.2687  0.1058  0.3032
   79MOL   C22626902   3.376   7.058   5.437  0.4028 -0.6133  0.5469
   79MOL   C22726903   3.370   7.019   5.581  0.1536 -0.4735 -0.1919
   79MOL   C22826904   3.515   7.004   5.626  0.6513  0.2493 -0.4167
   79MOL   C22926905   3.593   6.995   5.497 -0.0914 -0.8094  0.4357
   79MOL   O23026906   3.709   6.960   5.492 -0.0835 -0.3873  0.4787
   79MOL   H23126907   3.655   6.866   5.210 -0.0736  0.9184  1.0516
   79MOL   H23226908   3.479   6.846   5.250 -0.5617 -1.0176 -0.8397
   79MOL   H23326909   3.453   7.095   5.211  1.6527  1.3170 -1.2019
   79MOL   H23426910   3.337   7.159   5.428 -0.8214 -1.3041 -3.0530
   79MOL   H23526911   3.308   7.001   5.373  0.6104 -2.1467  1.6805
   79MOL   H23626912   3.314   7.091   5.640 -0.3746 -2.7461  2.1392
   79MOL   H23726913   3.319   6.924   5.591 -2.2740  0.9078  0.9495
   79MOL   H23826914   3.543   7.097   5.675 -0.3324  0.1175  0.3961
   79MOL   H23926915   3.543   6.916   5.684  0.9451  0.2448 -0.5643
   79MOL   C24026916   3.659   7.148   5.221  0.1965  0.4228  0.2579
   79MOL   C24126917   3.622   7.289   5.166  0.2767 -0.4119  0.2985
   79MOL   N24226918   3.500   7.348   5.221  0.4522 -0.4283  0.0679
   79MOL   C24326919   3.481   7.393   5.362 -0.3683  0.4682  0.7702
   79MOL   C24426920   3.354   7.468   5.373  0.9167  0.2069  0.1142
   79MOL   C24526921   3.310   7.485   5.224 -0.3388  0.6941  0.0246
   79MOL   C24626922   3.396   7.390   5.144  0.1186 -0.1177 -0.3699
   79MOL   O24726923   3.373   7.359   5.028  0.1819  0.0720 -0.4809
   79MOL   H24826924   3.728   7.094   5.155  1.9638  0.6675  1.8812
   79MOL   H24926925   3.725   7.152   5.307  1.7359  1.9239 -0.9520
   79MOL   H25026926   3.611   7.274   5.058  0.9673  0.7634  0.0518
   79MOL   H25126927   3.497   7.310   5.431  3.6541 -0.1492 -0.7930
   79MOL   H25226928   3.561   7.463   5.386  1.8796 -1.4633 -0.9560
   79MOL   H25326929   3.284   7.416   5.437 -0.9511  1.1185 -1.1295
   79MOL   H25426930   3.353   7.567   5.418 -1.0267  0.3619 -0.2022
   79MOL   H25526931   3.202   7.467   5.221 -0.9575  3.7363  1.0091
   79MOL   H25626932   3.321   7.584   5.180 -2.9389  1.7409  1.5968
   79MOL   C25726933   3.734   7.394   5.169 -0.5509 -0.5820  0.4803
   79MOL   C25826934   3.866   7.359   5.099 -0.4956 -0.8613 -0.6985
   79MOL   N25926935   3.840   7.342   4.957  0.6370  0.5065  0.4869
   79MOL   C26026936   3.854   7.208   4.896  0.6545 -0.8361  0.2482
   79MOL   C26126937   3.808   7.217   4.750  0.0245 -0.6326 -0.1864
   79MOL   C26226938   3.766   7.363   4.736  0.4103  0.4056 -0.1895
   79MOL   C26326939   3.797   7.432   4.867  0.2135  0.4685  0.3525
   79MOL   O26426940   3.772   7.551   4.886 -0.3705  0.8439  0.6573
   79MOL   H26526941   3.753   7.410   5.275  0.4928  0.2406  0.1704
   79MOL   H26626942   3.691   7.487   5.132 -2.2992 -1.0789  1.2162
   79MOL   H26726943   3.897   7.264   5.143 -1.0287 -0.5023  0.4733
   79MOL   H26826944   3.957   7.174   4.911  0.7982  0.4907  2.4363
   79MOL   H26926945   3.795   7.131   4.946 -1.7938 -0.8256 -2.4512
   79MOL   H27026946   3.886   7.187   4.681  0.8617 -2.3497  1.4378
   79MOL   H27126947   3.722   7.150   4.741 -1.8808  1.7889 -0.3260
   79MOL   H27226948   3.814   7.407   4.648  0.2639  1.6525  0.3453
   79MOL   H27326949   3.661   7.367   4.707  0.6823  2.0703 -0.9758
   79MOL   C27426950   3.983   7.455   5.149 -0.2367  0.0090 -0.9217
   79MOL   C27526951   4.049   7.406   5.279 -0.3651  0.4857  0.5523
   79MOL   N27626952   4.138   7.295   5.248  0.6911 -0.3339  0.5117
   79MOL   C27726953   4.105   7.162   5.303 -0.7067  0.4199 -0.0842
   79MOL   C27826954   4.232   7.077   5.276 -0.5320  0.3185  0.5058
   79MOL   C27926955   4.317   7.160   5.186 -0.1142 -0.4555  0.0308
   79MOL   C28026956   4.251   7.299   5.181 -0.5015 -0.1381 -0.4665
   79MOL   O28126957   4.293   7.396   5.117 -0.3450  0.3028  1.1903
   79MOL   H28226958   3.945   7.554   5.174  1.4963  0.5443 -0.3539
   79MOL   H28326959   4.051   7.463   5.065 -0.5143  0.5960 -1.0918
   79MOL   H28426960   3.970   7.372   5.346 -0.2344 -2.2008 -0.5792
   79MOL   H28526961   4.079   7.154   5.408 -0.2442 -1.6204 -0.1179
   79MOL   H28626962   4.027   7.113   5.244 -2.7560  1.2348  1.8758
   79MOL   H28726963   4.293   7.062   5.365  0.9939  0.5093 -0.4919
   79MOL   H28826964   4.196   6.983   5.235  1.3710 -0.7306  1.2183
   79MOL   H28926965   4.420   7.176   5.220 -0.8308 -0.7947  2.4360
   79MOL   H29026966   4.310   7.112   5.088 -0.2280 -0.4160  0.0193
   79MOL   C29126967   4.111   7.530   5.335 -0.1194  0.1042 -0.6297
   79MOL   C29226968   4.186   7.496   5.466  0.9053 -0.5275  0.3846
   79MOL   N29326969   4.335   7.484   5.439  0.1633  0.4110 -0.2689
   79MOL   C29426970   4.401   7.593   5.360 -0.3524  0.5541  0.1661
   79MOL   C29526971   4.549   7.553   5.374  0.4716 -0.0509 -0.5712
   79MOL   C29626972   4.551   7.407   5.422  0.0216 -0.1281  0.5944
   79MOL   C29726973   4.414   7.381   5.470 -0.0634  0.2939  0.1620
   79MOL   O29826974   4.395   7.282   5.535  0.4684 -0.2272 -0.0291
   79MOL   H29926975   4.039   7.610   5.353  1.0848  0.6024  2.2693
   79MOL   H30026976   4.172   7.570   5.253  1.7145 -0.6240  0.3494
   79MOL   H30126977   4.153   7.402   5.509 -2.6128  0.1909 -0.5625
   79MOL   H30226978   4.374   7.590   5.254  0.8086  0.5336 -0.1385
   79MOL   H30326979   4.383   7.693   5.401  0.2246  1.3617 -1.4868
   79MOL   H30426980   4.593   7.557   5.275  0.0419 -0.4168 -0.7796
   79MOL   H30526981   4.617   7.604   5.443 -2.2070  1.6516  0.9085
   79MOL   H30626982   4.557   7.340   5.336 -0.4514  1.3213 -0.5945
   79MOL   H30726983   4.635   7.373   5.483  0.0377 -2.7966 -0.8350
   79MOL   C30826984   4.173   7.603   5.582  0.1274  0.7665 -1.1098
   79MOL   C30926985   4.027   7.644   5.618 -0.9033  0.8131  0.6759
   79MOL   N31026986   3.930   7.525   5.632  0.8418  0.7806 -0.2785
   79MOL   C31126987   3.801   7.506   5.558 -0.7109 -0.5527 -0.3200
   79MOL   C31226988   3.766   7.365   5.579 -0.3049 -0.0475  0.1567
   79MOL   C31326989   3.852   7.305   5.683 -0.3204  0.1400  0.9660
   79MOL   C31426990   3.952   7.420   5.714 -0.0099  0.8928 -0.0625
   79MOL   O31526991   4.035   7.410   5.806  0.1946  0.5798 -0.7384
   79MOL   H31626992   4.230   7.690   5.550 -2.3084  2.1866 -1.7165
   79MOL   H31726993   4.230   7.554   5.661 -0.6009 -1.5777 -2.0001
   79MOL   H31826994   3.988   7.723   5.554 -1.1081 -0.9911 -1.5022
   79MOL   H31926995   3.736   7.580   5.605  0.6598  0.9528 -0.7471
   79MOL   H32026996   3.807   7.545   5.456  2.7744  0.6536  0.2872
   79MOL   H32126997   3.663   7.364   5.615 -0.8187  2.2808 -1.1303
   79MOL   H32226998   3.783   7.299   5.494 -0.6269  1.9113 -1.4718
   79MOL   H32326999   3.788   7.283   5.768  0.4708  1.3714  1.8992
   79MOL   H32427000   3.909   7.222   5.641 -2.3087 -0.9766  0.3987
   79MOL   C32527001   4.038   7.722   5.749  0.0819  0.0287 -0.1626
   79MOL   C32627002   3.908   7.781   5.814 -0.0752  0.5031 -0.0900
   79MOL   N32727003   3.846   7.886   5.732  0.3636  0.2119  0.0807
   79MOL   C32827004   3.716   7.884   5.662 -0.5929  0.2985  0.2315
   79MOL   C32927005   3.688   0.125   5.620 -0.3424  0.3917  0.9137
   79MOL   C33027006   3.801   0.209   5.658 -0.4004 -0.0745 -0.8503
   79MOL   C33127007   3.887   0.109   5.736 -0.3158  0.1817  0.4470
   79MOL   O33227008   3.995   0.149   5.790  0.2857  0.1182 -0.7323
   79MOL   H33327009   4.097   7.808   5.718  0.5651  0.0848  0.9132
   79MOL   H33427010   4.089   7.661   5.823  0.8849  2.0448  0.9871
   79MOL   H33527011   3.940   7.813   5.913 -0.3481  2.3257 -0.5610
   79MOL   H33627012   3.721   7.806   5.585  0.9952 -0.5527  1.1758
   79MOL   H33727013   3.632   7.853   5.725 -1.7074  0.6559 -1.0525
   79MOL   H33827014   3.677   0.140   5.512  2.5229  1.0803  0.6656
   79MOL   H33927015   3.595   0.165   5.660 -2.0999 -1.7664 -0.8683
   79MOL   H34027016   3.856   0.254   5.576  0.7838  2.0881  1.0687
   79MOL   H34127017   3.775   0.283   5.734  2.2766  1.6586 -1.5696
   79MOL   H34227018   3.840   7.698   5.835 -0.5842  1.4559  2.2139
   80MOL     C127019   5.709   2.859   0.286 -0.2645  0.1885 -0.2292
   80MOL     C227020   5.732   2.955   0.165  0.1347 -0.0347 -0.6915
   80MOL     N327021   5.652   2.912   0.048  0.2499 -0.2307  0.0761
   80MOL     C427022   5.707   2.845   7.841 -0.5701  0.5295  0.0994
   80MOL     C527023   5.595   2.826   7.742  0.3812  0.2793 -0.4809
   80MOL     C627024   5.470   2.879   7.809 -0.2817  0.1240 -0.7433
   80MOL     C727025   5.521   2.934   0.036 -0.4093  0.0703 -0.5012
   80MOL     O827026   5.444   2.979   0.116  0.2840 -0.6352 -0.2003
   80MOL     H927027   5.766   2.885   0.374  1.2054 -2.4174 -0.3666
   80MOL    H1027028   5.608   2.848   0.326  0.5248  1.4176  2.1875
   80MOL    H1127029   5.835   2.938   0.134 -0.4173 -1.0073 -2.0477
   80MOL    H1227030   5.791   2.895   7.793 -1.0696  0.3403 -1.0033
   80MOL    H1327031   5.757   2.756   7.881  0.1984  0.8254 -0.1971
   80MOL    H1427032   5.610   2.882   7.649  1.5590  0.7061 -0.0390
   80MOL    H1527033   5.580   2.719   7.731 -3.0025  0.4107  1.9153
   80MOL    H1627034   5.421   2.968   7.768 -1.2564 -0.2046 -0.2964
   80MOL    H1727035   5.391   2.809   7.834  0.8248 -0.8712  0.0410
   80MOL    H1827036   5.748   2.762   0.254 -2.9293 -0.4281 -1.9013
   80MOL    C1927037   5.708   3.101   0.208 -0.0149  0.7727 -0.9113
   80MOL    C2027038   5.785   3.201   0.113  0.3193 -0.5036 -0.3060
   80MOL    N2127039   5.707   3.328   0.102 -0.3141 -0.7363  0.4127
   80MOL    C2227040   5.646   3.364   7.882  0.5410 -0.4425 -0.6683
   80MOL    C2327041   5.594   3.501   7.903  0.5450  0.1794  0.1856
   80MOL    C2427042   5.641   3.555   0.129  0.0912 -0.2759  0.1404
   80MOL    C2527043   5.693   3.426   0.194  0.0675  0.7438  0.1833
   80MOL    O2627044   5.725   3.422   0.309 -0.0168  0.3956  0.9205
   80MOL    H2727045   5.747   3.115   0.309 -2.0865  0.6684 -0.0650
   80MOL    H2827046   5.602   3.121   0.228  0.3673  0.4013  1.7468
   80MOL    H2927047   5.791   3.154   0.015  1.1236 -2.0128  0.4551
   80MOL    H3027048   5.724   3.367   7.806  1.1311  0.9257 -0.0148
   80MOL    H3127049   5.571   3.291   7.850 -1.4034  0.8663  0.7618
   80MOL    H3227050   5.642   3.573   7.836  0.0120 -2.0310 -2.6500
   80MOL    H3327051   5.485   3.501   0.001  0.5575  1.2594  1.0151
   80MOL    H3427052   5.726   3.623   0.118  0.4208 -0.7619 -0.3646
   80MOL    H3527053   5.563   3.592   0.195  0.6313  2.3933 -0.6442
   80MOL    C3627054   5.932   3.231   0.149  0.5261  0.0556  0.8821
   80MOL    C3727055   6.040   3.154   0.082 -0.0866  1.0208 -0.8873
   80MOL    N3827056   6.037   3.149   7.837  0.0077 -0.3268  0.0834
   80MOL    C3927057   6.060   3.019   7.760 -0.4410  0.3506 -0.6778
   80MOL    C4027058   6.018   3.045   7.619  0.5882  0.8563  0.0944
   80MOL    C4127059   6.038   3.200   7.604 -0.1679 -0.0914  0.1185
   80MOL    C4227060   6.019   3.248   7.750  0.6006 -0.1959 -0.3803
   80MOL    O4327061   5.992   3.369   7.774  0.0912  0.1063 -0.3829
   80MOL    H4427062   5.939   3.245   0.257  2.2678 -3.0095  1.2180
   80MOL    H4527063   5.946   3.333   0.113 -0.4559 -1.1724 -3.1638
   80MOL    H4627064   6.018   3.051   0.109  0.3978  1.0391 -0.4137
   80MOL    H4727065   6.165   2.988   7.755 -0.7666 -1.3496  1.8772
   80MOL    H4827066   6.000   2.936   7.796  0.2612  0.7366  1.4643
   80MOL    H4927067   6.078   2.998   7.541  0.7892  0.8240  0.2680
   80MOL    H5027068   5.911   3.032   7.603  0.5339  1.8574 -0.3733
   80MOL    H5127069   6.140   3.212   7.565  0.0168  0.4075  0.7538
   80MOL    H5227070   5.965   3.245   7.537 -0.3866  1.4612  1.3777
   80MOL    C5327071   6.181   3.192   0.130 -0.0793  0.3770  0.4232
   80MOL    C5427072   6.220   3.145   0.267  0.4948  0.6636 -0.0204
   80MOL    N5527073   6.232   2.998   0.272  0.1240  0.5137 -0.0856
   80MOL    C5627074   6.138   2.928   0.360 -0.2302 -0.1955  0.6394
   80MOL    C5727075   6.177   2.778   0.337  0.3437  0.3813 -0.9047
   80MOL    C5827076   6.298   2.772   0.254  0.2051  0.4358  0.0935
   80MOL    C5927077   6.324   2.915   0.218 -0.4770 -0.2704 -0.9006
   80MOL    O6027078   6.418   2.941   0.148 -0.5180 -0.6026  0.3230
   80MOL    H6127079   6.192   3.299   0.119  0.3201  0.3381  0.4184
   80MOL    H6227080   6.257   3.162   0.058 -1.6765 -1.0704 -0.6993
   80MOL    H6327081   6.139   3.178   0.332 -0.4634  1.4828 -1.5851
   80MOL    H6427082   6.156   2.960   0.463 -2.4873  1.4286  0.5599
   80MOL    H6527083   6.034   2.949   0.334  0.5871  2.0647 -0.9542
   80MOL    H6627084   6.184   2.720   0.430 -2.2385 -0.3715 -1.1462
   80MOL    H6727085   6.087   2.743   0.287  0.2012  1.0232 -1.0981
   80MOL    H6827086   6.380   2.715   0.296  1.3769  0.5323 -1.9967
   80MOL    H6927087   6.275   2.715   0.164  3.1933 -0.8191  0.0768
   80MOL    C7027088   6.345   3.215   0.308  0.1858  0.2756  0.1646
   80MOL    C7127089   6.331   3.364   0.359 -0.1509 -0.4987 -0.2291
   80MOL    N7227090   6.230   3.375   0.469 -0.1061  0.2817 -0.5172
   80MOL    C7327091   6.118   3.461   0.461 -0.3752  0.5270 -0.5139
   80MOL    C7427092   6.089   3.512   0.601  0.4901 -0.5136  0.3087
   80MOL    C7527093   6.157   3.405   0.686 -0.5394  0.2957 -0.6736
   80MOL    C7627094   6.255   3.338   0.595  0.2020  0.1173  0.1991
   80MOL    O7727095   6.351   3.277   0.642  0.1274 -0.1550  0.5767
   80MOL    H7827096   6.419   3.205   0.228 -1.3433 -2.8284 -0.9312
   80MOL    H7927097   6.378   3.168   0.401 -1.7419  0.5816  1.0161
   80MOL    H8027098   6.290   3.423   0.277 -1.0216  1.5872  1.6755
   80MOL    H8127099   6.145   3.538   0.389 -1.0158 -0.1731 -1.5077
   80MOL    H8227100   6.028   3.411   0.425 -0.2655  0.4269 -0.6541
   80MOL    H8327101   6.142   3.603   0.632  0.2434 -0.1275 -0.3822
   80MOL    H8427102   5.982   3.517   0.618  0.6660  2.1982  1.0314
   80MOL    H8527103   6.192   3.446   0.781  1.1238  2.1745 -2.0608
   80MOL    H8627104   6.078   3.333   0.707 -0.0519  0.1997  0.8886
   80MOL    C8727105   6.474   3.416   0.393  0.8137 -1.0229 -0.0122
   80MOL    C8827106   6.482   3.568   0.419 -1.1151  0.0902  0.1214
   80MOL    N8927107   6.566   3.604   0.532 -0.2241  0.0722 -0.1988
   80MOL    C9027108   6.715   3.611   0.522 -0.4313  0.5525 -0.6237
   80MOL    C9127109   6.749   3.668   0.664  0.2111  0.4236  0.9922
   80MOL    C9227110   6.617   3.697   0.734 -0.2524  0.5128 -0.6361
   80MOL    C9327111   6.506   3.637   0.644  0.2940 -0.4711 -0.5564
   80MOL    O9427112   6.385   3.622   0.676 -0.0142  0.1346  0.6913
   80MOL    H9527113   6.549   3.389   0.318  1.6345  0.4587  0.2707
   80MOL    H9627114   6.515   3.363   0.479 -3.7093  0.1860  3.0305
   80MOL    H9727115   6.378   3.595   0.435 -0.7466  0.6162  1.7256
   80MOL    H9827116   6.756   3.511   0.510 -0.6429 -0.1488  3.7291
   80MOL    H9927117   6.745   3.660   0.429 -1.8126 -0.1406 -1.4470
   80MOL   H10027118   6.791   3.583   0.717  0.2182 -0.4531 -0.3978
   80MOL   H10127119   6.813   3.756   0.657 -1.7978  1.9220  0.9825
   80MOL   H10227120   6.627   3.655   0.834  0.3359 -1.4387 -1.4899
   80MOL   H10327121   6.599   3.803   0.750 -1.0894 -0.0402  2.2746
   80MOL   C10427122   6.512   3.656   0.291 -0.4688 -0.2632  0.0996
   80MOL   C10527123   6.425   3.786   0.285  0.4268  0.4419  0.6147
   80MOL   N10627124   6.441   3.874   0.409 -0.7591  0.1127  0.0221
   80MOL   C10727125   6.327   3.925   0.480 -0.0846  0.1457  0.3069
   80MOL   C10827126   6.379   3.999   0.597  0.2456  0.4873 -0.1828
   80MOL   C10927127   6.524   4.041   0.548 -0.7700 -0.3732 -0.6068
   80MOL   C11027128   6.551   3.941   0.440  0.2812 -0.4973 -0.3053
   80MOL   O11127129   6.660   3.928   0.384 -0.2168 -0.6250  0.6328
   80MOL   H11227130   6.483   3.600   0.202  0.5841 -0.2667 -0.2480
   80MOL   H11327131   6.614   3.679   0.263  0.3286 -1.8436  1.6242
   80MOL   H11427132   6.321   3.754   0.284  0.1052  1.4880  0.1472
   80MOL   H11527133   6.264   3.984   0.413  0.0074  2.5264  2.2499
   80MOL   H11627134   6.263   3.848   0.522  0.1000 -0.1346  0.0780
   80MOL   H11727135   6.323   4.090   0.622 -1.5510 -0.8926  0.9355
   80MOL   H11827136   6.370   3.941   0.688 -0.9441 -1.8495 -1.7533
   80MOL   H11927137   6.595   4.035   0.631 -2.5632 -1.5690  0.8942
   80MOL   H12027138   6.528   4.140   0.503  1.5903  0.0458  0.4594
   80MOL   C12127139   6.465   3.865   0.157  1.0419  0.3032  0.0380
   80MOL   C12227140   6.403   3.795   0.032  0.4137  0.3657  0.1675
   80MOL   N12327141   6.257   3.768   0.048 -0.3742  0.1479 -0.0290
   80MOL   C12427142   6.203   3.639   0.019  0.1976 -0.0450  0.0005
   80MOL   C12527143   6.068   3.645   0.083  0.6876 -0.7887 -0.4551
   80MOL   C12627144   6.031   3.794   0.108 -0.0853 -0.5411  0.0893
   80MOL   C12727145   6.160   3.857   0.070 -0.0664  0.4945  0.1790
   80MOL   O12827146   6.171   3.978   0.066 -0.9301  0.0303  0.4476
   80MOL   H12927147   6.570   3.890   0.143  0.5684  1.8593 -0.7830
   80MOL   H13027148   6.426   3.967   0.160 -2.5782 -0.9731 -0.6474
   80MOL   H13127149   6.451   3.701   0.008 -3.3792 -1.8785  0.9698
   80MOL   H13227150   6.262   3.558   0.062  0.9105  0.8827  0.7903
   80MOL   H13327151   6.201   3.618   7.818  1.1220 -0.1878  0.0057
   80MOL   H13427152   6.005   3.595   0.010  0.0029  1.2721 -1.3175
   80MOL   H13527153   6.060   3.589   0.176  3.1433 -0.5277 -0.0450
   80MOL   H13627154   5.949   3.832   0.047 -0.1554 -0.8687 -0.0222
   80MOL   H13727155   6.003   3.801   0.213 -0.9788  0.4387 -0.1982
   80MOL   C13827156   6.438   3.866   7.802 -0.1491  0.0169  0.0766
   80MOL   C13927157   6.460   3.773   7.683 -0.1828 -0.1903 -0.4383
   80MOL   N14027158   6.402   3.826   7.560 -1.0836 -0.1156  0.4894
   80MOL   C14127159   6.297   3.762   7.491 -0.1624 -0.6702 -0.0540
   80MOL   C14227160   6.241   3.854   7.386  0.3936 -0.0834 -0.0095
   80MOL   C14327161   6.350   3.969   7.378 -0.4155  0.0765 -0.3528
   80MOL   C14427162   6.428   3.946   7.505  0.1517 -0.3059 -0.2199
   80MOL   O14527163   6.504   4.031   7.543  0.1353  0.2130 -0.4226
   80MOL   H14627164   6.531   3.921   7.822 -1.0158  1.2848  0.6828
   80MOL   H14727165   6.367   3.946   7.783 -0.4750 -0.2067  0.3344
   80MOL   H14827166   6.400   3.684   7.701 -0.1027 -0.1478  0.0623
   80MOL   H14927167   6.344   3.667   7.464  0.6517 -0.4148  0.4301
   80MOL   H15027168   6.221   3.745   7.567 -0.8513 -1.7291 -0.9599
   80MOL   H15127169   6.248   3.812   7.286  2.6694  1.2138 -0.4409
   80MOL   H15227170   6.145   3.904   7.398  0.8182  0.8322 -0.3902
   80MOL   H15327171   6.302   4.066   7.369 -2.0094 -0.7850 -1.4940
   80MOL   H15427172   6.412   3.960   7.289  2.1359  0.2502  1.3458
   80MOL   C15527173   6.615   3.756   7.675  0.7011  0.4572 -0.1779
   80MOL   C15627174   6.677   3.640   7.593 -0.1265 -0.1039 -0.2905
   80MOL   N15727175   6.706   3.668   7.454 -0.2954 -0.0060 -0.6408
   80MOL   C15827176   6.649   3.576   7.355 -0.5196 -0.3825 -0.4557
   80MOL   C15927177   6.687   3.642   7.219  0.3416  0.0204 -0.6729
   80MOL   C16027178   6.764   3.769   7.247  0.3063  0.3969 -0.1451
   80MOL   C16127179   6.772   3.773   7.399  0.2281 -0.4595  0.1337
   80MOL   O16227180   6.827   3.870   7.458 -0.4008 -0.0238 -0.1638
   80MOL   H16327181   6.658   3.741   7.774  1.1784  0.5515 -0.3641
   80MOL   H16427182   6.655   3.851   7.640 -1.6702  0.4920 -3.0210
   80MOL   H16527183   6.593   3.571   7.583  0.2511 -0.6399  0.1509
   80MOL   H16627184   6.669   3.470   7.369  0.3706 -0.0251  1.0452
   80MOL   H16727185   6.541   3.580   7.361 -0.3869 -0.7018  2.6811
   80MOL   H16827186   6.747   3.567   7.166  0.5167 -0.0378 -0.3947
   80MOL   H16927187   6.595   3.670   7.167 -0.1574  0.2893  0.3330
   80MOL   H17027188   6.865   3.775   7.206  0.6347  1.1052  0.7791
   80MOL   H17127189   6.701   3.844   7.199 -1.3987 -1.3125 -0.6813
   80MOL   C17227190   6.795   3.556   7.649  0.2603 -0.2625  0.1338
   80MOL   C17327191   6.747   3.462   7.765 -0.1644  0.2977  0.6370
   80MOL   N17427192   6.636   3.378   7.727  0.1986  0.1930  0.2374
   80MOL   C17527193   6.520   3.376   7.817 -0.1240  0.2788 -0.0535
   80MOL   C17627194   6.427   3.271   7.752 -0.1247  0.2968 -0.0304
   80MOL   C17727195   6.496   3.217   7.629 -0.4844 -0.3440 -0.3378
   80MOL   C17827196   6.625   3.299   7.624  0.8101  0.1468  0.4450
   80MOL   O17927197   6.712   3.272   7.541  0.2492 -0.0981 -0.0033
   80MOL   H18027198   6.888   3.605   7.678  0.3109 -0.4329  0.2592
   80MOL   H18127199   6.839   3.497   7.568 -1.2897  0.8807 -1.5860
   80MOL   H18227200   6.712   3.526   7.846 -0.3747 -2.0258  2.4090
   80MOL   H18327201   6.557   3.337   0.006 -1.2364 -2.6099 -0.7595
   80MOL   H18427202   6.459   3.466   7.818 -0.0216  0.4316 -3.2230
   80MOL   H18527203   6.325   3.303   7.731 -0.5734 -2.2339 -1.9222
   80MOL   H18627204   6.418   3.191   7.825  0.6118  1.0705  0.9198
   80MOL   H18727205   6.510   3.110   7.640 -2.2328 -0.6594 -1.1233
   80MOL   H18827206   6.430   3.241   7.545 -0.6566 -0.2043 -0.1626
   80MOL   C18927207   6.860   3.379   7.832 -0.6103 -0.1757 -0.3552
   80MOL   C19027208   6.985   3.436   7.904  0.2183 -0.4605  0.6928
   80MOL   N19127209   6.971   3.569   0.057  0.0003  0.1211 -0.9990
   80MOL   C19227210   7.055   3.681   0.017  0.4350 -0.1229 -0.3412
   80MOL   C19327211   6.991   3.811   0.073  0.4483 -0.2886  0.4525
   80MOL   C19427212   6.886   3.754   0.170  0.1178 -0.2334 -0.0133
   80MOL   C19527213   6.882   3.603   0.150 -0.1005 -0.4592  0.4093
   80MOL   O19627214   6.804   3.530   0.209  0.2094 -0.2067  0.1352
   80MOL   H19727215   6.891   3.310   7.754 -1.7677 -1.2457  0.1097
   80MOL   H19827216   6.807   3.314   7.902 -0.0495  1.1281  1.3246
   80MOL   H19927217   7.065   3.441   7.829 -0.0639 -2.4353  0.2220
   80MOL   H20027218   7.161   3.666   0.040 -0.3139  0.4899  3.9690
   80MOL   H20127219   7.037   3.684   7.816  1.5840  1.4221 -0.5104
   80MOL   H20227220   7.065   3.878   0.117 -0.0858 -0.7841  2.1518
   80MOL   H20327221   6.931   3.862   7.905  0.7472 -1.4447 -0.6009
   80MOL   H20427222   6.911   3.782   0.272  0.9521  1.3323 -0.6257
   80MOL   H20527223   6.786   3.790   0.146 -0.1625 -1.9281 -1.4639
   80MOL   C20627224   7.037   3.324   0.104  0.7520  0.2286  0.3250
   80MOL   C20727225   7.086   3.194   0.032  0.1750 -0.5003  0.7727
   80MOL   N20827226   7.203   3.220   7.853  0.1360 -0.1501 -0.3777
   80MOL   C20927227   7.191   3.203   7.709 -0.3044  0.1555  0.1182
   80MOL   C21027228   7.326   3.232   7.652 -0.3555 -0.3182  0.1563
   80MOL   C21127229   7.395   3.312   7.763 -0.6052  0.6252  0.6941
   80MOL   C21227230   7.322   3.275   7.884  0.4394  0.4983  0.5735
   80MOL   O21327231   7.368   3.284   0.094 -0.0793 -0.0765  0.2731
   80MOL   H21427232   6.957   3.286   0.167  1.5045  1.6806  2.1927
   80MOL   H21527233   7.109   3.366   0.174 -1.2806  2.0769  1.3796
   80MOL   H21627234   7.004   3.169   7.870 -0.6977  2.9643  0.4184
   80MOL   H21727235   7.150   3.107   7.679 -0.6935  0.1666  0.6241
   80MOL   H21827236   7.107   3.269   7.688 -0.0847 -0.0403 -1.4421
   80MOL   H21927237   7.378   3.138   7.636 -0.4813 -0.2290 -0.7867
   80MOL   H22027238   7.336   3.275   7.552  1.0451 -1.6609 -0.3058
   80MOL   H22127239   7.502   3.293   7.756 -0.8051 -0.0141 -0.6972
   80MOL   H22227240   7.390   3.419   7.741  2.7294  0.7502  0.3169
   80MOL   C22327241   7.108   3.082   0.137 -0.0818  0.8782  0.0237
   80MOL   C22427242   6.980   3.005   0.185  0.1699  0.3949  0.5213
   80MOL   N22527243   6.909   2.949   0.066  0.0929 -0.6772  0.4306
   80MOL   C22627244   6.775   2.998   0.035 -0.0610 -0.2564  0.3471
   80MOL   C22727245   6.750   2.966   7.796 -0.6295 -0.1898  0.5848
   80MOL   C22827246   6.869   2.872   7.760  0.4385  0.2309 -0.4383
   80MOL   C22927247   6.955   2.863   7.884 -0.1735 -0.0812  1.0209
   80MOL   O23027248   7.059   2.795   7.902 -0.0285  0.3825 -0.0540
   80MOL   H23127249   7.170   3.117   0.219  0.6042 -0.1754 -0.0384
   80MOL   H23227250   7.178   3.011   0.093 -0.1453  1.5619 -1.2218
   80MOL   H23327251   6.909   3.075   0.228  0.3632  0.4713  0.7197
   80MOL   H23427252   6.696   2.971   0.106  0.2978  0.3173  0.9662
   80MOL   H23527253   6.779   3.106   0.033 -0.7918 -0.1945  1.6229
   80MOL   H23627254   6.650   2.924   7.785 -1.4590  1.6235  0.9747
   80MOL   H23727255   6.748   3.053   7.730 -0.8801 -1.2920 -0.8833
   80MOL   H23827256   6.840   2.776   7.717 -0.1610  0.8525 -1.4639
   80MOL   H23927257   6.931   2.913   7.680  0.1396  3.3094  0.8393
   80MOL   C24027258   7.015   2.892   0.289 -0.6460  0.1936 -0.2209
   80MOL   C24127259   7.045   2.942   0.432  0.1285 -0.1460  0.0663
   80MOL   N24227260   6.940   3.029   0.478  0.4330  0.3265 -0.4921
   80MOL   C24327261   6.806   2.976   0.491  0.1034  0.4473 -0.0768
   80MOL   C24427262   6.741   3.076   0.582 -0.0582  0.4083  0.0377
   80MOL   C24527263   6.818   3.206   0.562  0.1387  0.1928  0.7163
   80MOL   C24627264   6.953   3.151   0.523  0.5204  0.9821 -0.5908
   80MOL   O24727265   7.066   3.202   0.537 -0.0044  0.1536  0.4168
   80MOL   H24827266   7.088   2.819   0.254 -1.7514 -1.2253  0.3776
   80MOL   H24927267   6.927   2.827   0.294 -0.3763 -0.1479  0.1072
   80MOL   H25027268   7.140   2.995   0.428  0.8504 -1.3356  1.0158
   80MOL   H25127269   6.760   2.972   0.391 -2.2742 -2.5246  1.0575
   80MOL   H25227270   6.785   2.878   0.534  0.3645  0.1128 -0.6927
   80MOL   H25327271   6.632   3.079   0.570  0.0571  0.1105 -1.1956
   80MOL   H25427272   6.764   3.033   0.679 -2.4361  0.2200  0.5445
   80MOL   H25527273   6.777   3.260   0.476 -1.2993 -0.3323  1.0651
   80MOL   H25627274   6.830   3.266   0.652 -0.1985  0.0203  0.8755
   80MOL   C25727275   7.077   2.840   0.539  0.2586  0.0267  0.0286
   80MOL   C25827276   7.215   2.768   0.519  0.5581 -0.4443  0.8278
   80MOL   N25927277   7.325   2.855   0.553 -1.2205 -0.1754 -0.2186
   80MOL   C26027278   7.430   2.878   0.454  0.0997  0.6332  0.0622
   80MOL   C26127279   7.545   2.951   0.520 -0.4737  0.6023 -0.5355
   80MOL   C26227280   7.494   2.971   0.666  0.0458 -0.4443  0.4782
   80MOL   C26327281   7.362   2.904   0.676  0.4246 -0.1676  0.2190
   80MOL   O26427282   7.304   2.898   0.785 -0.3131 -0.0341 -0.3539
   80MOL   H26527283   6.990   2.775   0.544  0.8391 -0.8854 -1.4362
   80MOL   H26627284   7.074   2.891   0.636  2.2020 -3.2079  1.8616
   80MOL   H26727285   7.220   2.731   0.416  1.4861  0.3289  0.5883
   80MOL   H26827286   7.469   2.782   0.420  0.9636  0.5055  1.3707
   80MOL   H26927287   7.387   2.940   0.375  1.6599  0.7145 -0.7417
   80MOL   H27027288   7.637   2.893   0.531 -0.2784  1.0733  0.3779
   80MOL   H27127289   7.567   3.042   0.464 -0.0598  1.0375  0.3162
   80MOL   H27227290   7.560   2.927   0.742 -1.5326 -3.4347  0.2007
   80MOL   H27327291   7.486   3.077   0.690 -0.2896  0.0952 -1.9405
   80MOL   C27427292   7.229   2.634   0.601 -0.0517  0.1012  0.3161
   80MOL   C27527293   7.156   2.513   0.535 -0.3218  1.0480 -0.5483
   80MOL   N27627294   7.229   2.471   0.414 -0.2457 -0.3024  0.1038
   80MOL   C27727295   7.160   2.454   0.286 -0.0881 -0.3474  0.3931
   80MOL   C27827296   7.263   2.402   0.187  0.3178 -0.3743  0.0948
   80MOL   C27927297   7.377   2.358   0.272  0.1239 -0.3799 -0.7201
   80MOL   C28027298   7.354   2.421   0.407  0.5413 -0.3612  0.0232
   80MOL   O28127299   7.436   2.422   0.499 -0.0546 -0.1496  0.0276
   80MOL   H28227300   7.184   2.652   0.699 -0.2202  0.1781  0.2257
   80MOL   H28327301   7.332   2.617   0.631  0.7034  0.0172 -2.2373
   80MOL   H28427302   7.056   2.533   0.496 -0.8984  2.2062  1.4909
   80MOL   H28527303   7.079   2.382   0.296 -0.0743 -0.4937 -0.5342
   80MOL   H28627304   7.122   2.548   0.247 -0.3352 -0.3057  0.7230
   80MOL   H28727305   7.232   2.314   0.132 -1.5021 -0.1070  0.6670
   80MOL   H28827306   7.299   2.475   0.114 -0.0362 -1.2178 -0.9466
   80MOL   H28927307   7.391   2.250   0.281  0.9179 -0.1070  1.5048
   80MOL   H29027308   7.474   2.383   0.230 -0.1467 -1.6495 -2.1580
   80MOL   C29127309   7.138   2.394   0.640  0.6852  0.0474  0.6487
   80MOL   C29227310   7.008   2.393   0.726  0.0445 -0.2831  0.0818
   80MOL   N29327311   6.994   2.518   0.808  0.4150  0.2895  0.0825
   80MOL   C29427312   7.081   2.534   0.930 -0.0505 -0.0583 -0.1861
   80MOL   C29527313   7.044   2.669   0.997  0.0385  0.4676  0.2130
   80MOL   C29627314   6.933   2.727   0.896  0.3137  0.2243 -0.6273
   80MOL   C29727315   6.917   2.622   0.786 -0.6872  0.4753 -0.3103
   80MOL   O29827316   6.851   2.652   0.690 -0.3837 -0.4954 -0.1838
   80MOL   H29927317   7.223   2.383   0.707 -0.2276 -0.4908  1.7290
   80MOL   H30027318   7.135   2.297   0.590 -0.6857 -0.3870  1.5250
   80MOL   H30127319   7.031   2.316   0.800 -0.6009  0.6399  1.2703
   80MOL   H30227320   7.063   2.446   0.992  0.1894 -2.1425 -2.9426
   80MOL   H30327321   7.189   2.526   0.912  0.1259  0.5606  0.6161
   80MOL   H30427322   7.003   2.655   1.097  3.2613  0.3930  1.5638
   80MOL   H30527323   7.128   2.736   1.010 -0.4591  1.0520  0.4205
   80MOL   H30627324   6.844   2.725   0.959  0.3153  0.3044 -0.6219
   80MOL   H30727325   6.955   2.830   0.866 -1.4820  1.3607  1.8217
   80MOL   C30827326   6.877   2.348   0.656  1.0065  0.0743 -0.2370
   80MOL   C30927327   6.883   2.205   0.580  0.0080 -0.1048  0.4038
   80MOL   N31027328   6.895   2.092   0.665 -0.0205 -0.2276 -0.1363
   80MOL   C31127329   6.973   1.980   0.611 -0.8390 -0.3742  0.2996
   80MOL   C31227330   6.981   1.887   0.737  0.3090  0.5303  0.9866
   80MOL   C31327331   6.886   1.944   0.844 -0.0339 -0.4720  0.5427
   80MOL   C31427332   6.834   2.071   0.784  0.1092 -0.1086 -0.1839
   80MOL   O31527333   6.747   2.141   0.835  0.3055 -0.1132  0.4530
   80MOL   H31627334   6.855   2.422   0.578 -2.4012  0.9986  1.4797
   80MOL   H31727335   6.795   2.355   0.728  1.1661 -0.3776 -0.0120
   80MOL   H31827336   6.963   2.197   0.506  0.0898  1.9867  0.2382
   80MOL   H31927337   6.929   1.924   0.528 -1.6198  1.8796 -0.8515
   80MOL   H32027338   7.071   2.014   0.581 -0.4387 -0.8345  1.0563
   80MOL   H32127339   6.960   1.782   0.713  2.3214  0.2208  0.4973
   80MOL   H32227340   7.086   1.880   0.765  0.2210 -0.7147  1.0494
   80MOL   H32327341   6.804   1.873   0.856 -0.1835 -0.6514 -1.4704
   80MOL   H32427342   6.931   1.960   0.942 -0.2297 -2.4295  0.9741
   80MOL   C32527343   6.753   2.175   0.494  0.1786 -0.5786 -0.7630
   80MOL   C32627344   6.707   2.290   0.399 -0.1389  0.1634  0.4674
   80MOL   N32727345   6.601   2.235   0.309 -0.5001 -0.2020  0.1032
   80MOL   C32827346   6.463   2.245   0.367  0.1784 -0.0519 -0.5807
   80MOL   C32927347   6.373   2.182   0.255  0.4891  0.0468 -0.5563
   80MOL   C33027348   6.468   2.171   0.132  1.1112  0.3233  0.1106
   80MOL   C33127349   6.607   2.197   0.184  0.1422 -0.3600 -0.7772
   80MOL   O33227350   6.712   2.189   0.118 -0.1644 -0.5440 -0.7941
   80MOL   H33327351   6.671   2.152   0.562  1.6205 -0.1181  1.1654
   80MOL   H33427352   6.773   2.083   0.438  0.5542  0.6638 -2.7115
   80MOL   H33527353   6.795   2.325   0.345  0.7732 -1.7341  0.6562
   80MOL   H33627354   6.444   2.216   0.470  0.3208  2.2633  0.1235
   80MOL   H33727355   6.432   2.349   0.358 -1.8162 -0.6317 -0.7792
   80MOL   H33827356   6.337   2.084   0.285  0.5712  0.8923  2.4629
   80MOL   H33927357   6.279   2.231   0.230  0.0088 -0.5646  0.0578
   80MOL   H34027358   6.467   2.086   0.062  2.7803 -0.9379  1.5768
   80MOL   H34127359   6.453   2.256   0.066 -0.7310  0.3832  0.5901
   80MOL   H34227360   6.675   2.377   0.456  0.1264  2.0908 -2.2227
   81MOL     C127361   1.105   7.392   0.821  0.2407 -0.7231 -0.1284
   81MOL     C227362   1.013   7.308   0.727 -0.1444  0.2929  0.3834
   81MOL     N327363   1.046   7.331   0.588  0.1941  0.6624 -0.2537
   81MOL     C427364   0.938   7.340   0.494 -0.0003 -0.1546 -0.0826
   81MOL     C527365   1.009   7.356   0.352  0.0798  0.8060  0.3275
   81MOL     C627366   1.161   7.316   0.374  0.4568  0.2713 -0.2378
   81MOL     C727367   1.169   7.314   0.529  0.6596  0.8288  0.0147
   81MOL     O827368   1.281   7.310   0.581  0.2247  0.3635 -0.1467
   81MOL     H927369   1.123   7.495   0.789 -0.6676 -0.6358 -0.3671
   81MOL    H1027370   1.068   7.388   0.923  0.2862 -0.1964 -0.0905
   81MOL    H1127371   0.910   7.341   0.739  0.3235  1.5633  1.0910
   81MOL    H1227372   0.886   7.244   0.485  0.0256 -0.1548 -0.2392
   81MOL    H1327373   0.852   7.401   0.518 -0.5878 -0.7298 -0.6974
   81MOL    H1427374   0.964   7.297   0.272 -3.1700 -0.2137  2.7457
   81MOL    H1527375   0.989   7.458   0.321  0.3697  1.2332  1.5327
   81MOL    H1627376   1.182   7.217   0.335 -0.5001 -0.3104  0.6965
   81MOL    H1727377   1.227   7.385   0.321 -0.1749  0.2625 -1.0475
   81MOL    H1827378   1.206   7.353   0.832  1.2347  2.0811  1.1558
   81MOL    C1927379   1.014   7.158   0.754 -0.0039  0.1202 -1.3059
   81MOL    C2027380   1.003   7.104   0.905 -0.3695  0.3346 -0.4195
   81MOL    N2127381   0.876   7.160   0.961 -0.6489  0.4706 -0.3344
   81MOL    C2227382   0.871   7.236   1.080 -0.2166  0.1518  0.1129
   81MOL    C2327383   0.725   7.236   1.134 -0.1206 -0.2523  0.6415
   81MOL    C2427384   0.656   7.195   1.007  0.3855  0.0247 -0.3192
   81MOL    C2527385   0.752   7.139   0.916  0.0396  0.5382  0.5777
   81MOL    O2627386   0.714   7.089   0.806  0.0158 -0.2888 -0.7055
   81MOL    H2727387   1.107   7.115   0.717 -0.7186 -2.0314 -0.6930
   81MOL    H2827388   0.935   7.114   0.694 -1.2600 -1.0579  1.1227
   81MOL    H2927389   1.087   7.142   0.962  0.2683 -2.6738  0.7220
   81MOL    H3027390   0.936   7.198   1.159 -1.3111  0.1842  1.0434
   81MOL    H3127391   0.903   7.337   1.054 -0.5704  0.3701  0.5218
   81MOL    H3227392   0.708   7.154   1.204  0.8144  2.3799  4.0668
   81MOL    H3327393   0.703   7.335   1.174  0.2127 -0.1745  0.6354
   81MOL    H3427394   0.575   7.124   1.017  1.4186 -0.9180  1.7338
   81MOL    H3527395   0.617   7.289   0.968  0.5306  0.4332  0.5162
   81MOL    C3627396   1.002   6.951   0.916 -0.5763  0.0840 -0.7220
   81MOL    C3727397   0.990   6.886   1.053  0.0227 -0.1065 -0.1663
   81MOL    N3827398   0.952   6.748   1.049 -0.0186  0.0143  0.2982
   81MOL    C3927399   0.815   6.714   1.075  0.5093  0.2539 -0.3524
   81MOL    C4027400   0.816   6.570   1.115  0.1708 -0.6014 -0.0050
   81MOL    C4127401   0.941   6.511   1.045  1.2913 -0.3836 -0.7582
   81MOL    C4227402   1.013   6.635   1.006  0.4135 -0.1201  0.2719
   81MOL    O4327403   1.126   6.622   0.952 -0.1718  0.2247 -0.5189
   81MOL    H4427404   1.089   6.910   0.865  0.9538 -1.2068  2.7825
   81MOL    H4527405   0.918   6.906   0.863 -1.9745  0.4379  1.1614
   81MOL    H4627406   0.919   6.953   1.102 -0.1303  0.0740 -0.6385
   81MOL    H4727407   0.776   6.778   1.154 -1.6629 -1.2105 -0.1705
   81MOL    H4827408   0.752   6.715   0.986 -0.8485 -4.2436  0.4505
   81MOL    H4927409   0.829   6.562   1.223 -2.5522  0.4605  0.4542
   81MOL    H5027410   0.725   6.516   1.092 -0.3018  0.6111 -1.0688
   81MOL    H5127411   1.006   6.451   1.110 -1.2894 -0.9863  1.3535
   81MOL    H5227412   0.916   6.451   0.958 -2.6464  0.4252 -0.2659
   81MOL    C5327413   1.124   6.904   1.140  0.5446  0.8704  0.7032
   81MOL    C5427414   1.103   6.913   1.291  0.1197  0.1505  0.1000
   81MOL    N5527415   1.060   6.779   1.343 -0.4193 -0.4572  0.3336
   81MOL    C5627416   1.146   6.657   1.337 -0.6906 -0.1522 -0.1520
   81MOL    C5727417   1.072   6.537   1.394  0.0886 -0.0770  0.4255
   81MOL    C5827418   0.962   6.608   1.469  0.4853 -0.2582  0.2722
   81MOL    C5927419   0.951   6.751   1.409  0.3272  0.2920  0.1696
   81MOL    O6027420   0.850   6.816   1.434 -0.4170 -0.0199  0.2745
   81MOL    H6127421   1.178   6.994   1.112  1.7238  0.3268  1.2287
   81MOL    H6227422   1.203   6.835   1.112 -1.1291 -0.7062 -0.2444
   81MOL    H6327423   1.018   6.979   1.299  0.4604  0.8862 -2.0138
   81MOL    H6427424   1.181   6.646   1.234  2.0169  0.1176  0.6919
   81MOL    H6527425   1.233   6.676   1.401 -1.0438  1.4784 -0.1503
   81MOL    H6627426   1.038   6.465   1.319 -0.4090 -0.5663  1.1176
   81MOL    H6727427   1.134   6.477   1.461  2.6803 -1.0407 -2.6891
   81MOL    H6827428   0.864   6.561   1.461  0.1137  0.3761  1.0215
   81MOL    H6927429   0.989   6.623   1.574 -1.7225  0.5686  0.7444
   81MOL    C7027430   1.223   6.977   1.369 -0.2452 -0.4461  0.2225
   81MOL    C7127431   1.224   7.128   1.384  0.1891 -0.2537  0.1604
   81MOL    N7227432   1.290   7.171   1.509  0.1986 -0.5638  0.2610
   81MOL    C7327433   1.212   7.257   1.594 -0.4918 -0.0163  0.2970
   81MOL    C7427434   1.310   7.303   1.713 -0.1314  0.1219 -0.4269
   81MOL    C7527435   1.441   7.230   1.684 -0.1537 -0.0316 -0.4386
   81MOL    C7627436   1.420   7.160   1.550  0.2629  0.5291  0.7029
   81MOL    O7727437   1.511   7.098   1.497 -0.0015 -0.2234 -0.2517
   81MOL    H7827438   1.319   6.937   1.336 -0.1417  1.2795 -1.6527
   81MOL    H7927439   1.222   6.931   1.468  1.8082  0.4690  0.6922
   81MOL    H8027440   1.121   7.163   1.394  0.8182  1.3243  1.2527
   81MOL    H8127441   1.177   7.343   1.537 -1.2971  1.9004  3.5346
   81MOL    H8227442   1.130   7.204   1.642 -0.5278 -1.0421 -0.8699
   81MOL    H8327443   1.324   7.411   1.709  3.3160 -0.1856  1.3264
   81MOL    H8427444   1.276   7.282   1.814  0.2042 -0.4133 -0.4240
   81MOL    H8527445   1.526   7.298   1.669 -0.3959 -0.4011 -3.9589
   81MOL    H8627446   1.463   7.153   1.758  0.5883 -1.2173 -1.8713
   81MOL    C8727447   1.273   7.196   1.255 -0.3951  0.9836  0.2659
   81MOL    C8827448   1.291   7.353   1.264 -0.0504  0.6032 -0.4048
   81MOL    N8927449   1.416   7.398   1.207 -0.0277  0.1049 -0.7828
   81MOL    C9027450   1.449   7.378   1.065 -0.5083  0.6532 -0.7378
   81MOL    C9127451   1.578   7.460   1.039  0.1390 -0.1397 -0.4380
   81MOL    C9227452   1.643   7.469   1.184 -0.0994  0.2808 -0.1764
   81MOL    C9327453   1.529   7.425   1.276  0.3025 -0.1260 -0.0213
   81MOL    O9427454   1.541   7.425   1.401  0.1522  0.0298 -0.1104
   81MOL    H9527455   1.196   7.184   1.178  0.4350  3.8973 -1.0800
   81MOL    H9627456   1.368   7.147   1.230 -1.6295 -0.0889 -2.6653
   81MOL    H9727457   1.302   7.369   1.371  0.5729  0.3502 -0.4299
   81MOL    H9827458   1.469   7.274   1.037  0.5602  0.6037  0.1676
   81MOL    H9927459   1.361   7.404   1.007 -0.7920 -1.2674 -1.2147
   81MOL   H10027460   1.639   7.412   0.963  0.1632  2.2091 -1.9361
   81MOL   H10127461   1.558   7.560   1.001 -0.3593 -0.0203  0.1317
   81MOL   H10227462   1.719   7.392   1.193 -1.0633 -0.7421 -0.6511
   81MOL   H10327463   1.669   7.572   1.208 -0.5726  0.1038  1.1470
   81MOL   C10427464   1.166   7.430   1.219  0.1108 -0.5083  0.4522
   81MOL   C10527465   1.176   7.582   1.206  0.1017 -0.3068  0.2401
   81MOL   N10627466   1.057   7.633   1.133 -0.1048  0.4815  0.2813
   81MOL   C10727467   1.086   7.713   1.021 -0.1622 -0.2408 -0.2106
   81MOL   C10827468   0.950   7.729   0.946 -0.1215 -0.2639  0.3112
   81MOL   C10927469   0.844   7.648   1.024  0.6009 -0.4678  0.3489
   81MOL   C11027470   0.927   7.602   1.151 -0.1204 -0.4885 -0.7165
   81MOL   O11127471   0.867   7.554   1.248 -0.0171  0.1160  0.2784
   81MOL   H11227472   1.096   7.408   1.300  0.6115  0.0296  1.0319
   81MOL   H11327473   1.131   7.380   1.129  1.0766 -3.8833  1.8789
   81MOL   H11427474   1.255   7.612   1.138 -0.4603  3.5457  1.1513
   81MOL   H11527475   1.135   7.808   1.043  0.0446 -0.4047  0.0377
   81MOL   H11627476   1.158   7.655   0.963 -1.4395 -1.1698 -0.8849
   81MOL   H11727477   0.918   7.832   0.929 -1.2771 -0.7863 -0.8146
   81MOL   H11827478   0.950   7.687   0.845 -1.9454  0.9201 -0.2137
   81MOL   H11927479   0.827   7.561   0.960 -0.6421  0.8044 -1.0858
   81MOL   H12027480   0.750   7.698   1.043  0.9633  1.2554 -2.0925
   81MOL   C12127481   1.214   7.653   1.343 -0.4629 -0.3444  0.2952
   81MOL   C12227482   1.302   7.776   1.324 -0.0491  0.0236 -0.0885
   81MOL   N12327483   1.244   7.903   1.284  0.0672 -0.7280 -0.8848
   81MOL   C12427484   1.317   0.083   1.192 -0.6941 -0.1813  1.2866
   81MOL   C12527485   1.222   0.208   1.161 -0.7454  0.1852 -0.6758
   81MOL   C12627486   1.111   0.195   1.262 -0.2574  0.7354 -0.0392
   81MOL   C12727487   1.124   0.053   1.317  0.2843  0.1151 -0.5228
   81MOL   O12827488   1.034   0.007   1.390 -0.1391  0.1763  0.2588
   81MOL   H12927489   1.270   7.585   1.407 -0.0170 -0.5440 -0.2996
   81MOL   H13027490   1.123   7.678   1.397 -1.0483 -0.5497 -0.5834
   81MOL   H13127491   1.375   7.749   1.247 -1.2261 -0.8782 -0.9216
   81MOL   H13227492   1.355   0.038   1.100 -0.7597 -1.5102  1.8964
   81MOL   H13327493   1.408   0.124   1.238  0.9656 -1.8486 -0.4096
   81MOL   H13427494   1.269   0.306   1.156 -1.3723  0.4580 -1.3277
   81MOL   H13527495   1.188   0.200   1.058 -1.0395  2.4261 -0.7735
   81MOL   H13627496   1.122   0.264   1.345 -1.7928 -2.0577  2.6019
   81MOL   H13727497   1.018   0.206   1.207 -0.2583  0.8316 -0.0184
   81MOL   C13827498   1.405   7.800   1.436  0.0111  0.8187  0.0367
   81MOL   C13927499   1.353   7.872   1.561  0.5217 -0.3054 -0.3147
   81MOL   N14027500   1.399   7.809   1.688  0.6325 -0.0573  0.1487
   81MOL   C14127501   1.298   7.721   1.753  0.7376 -0.3549 -0.9955
   81MOL   C14227502   1.347   7.700   1.896  0.2247 -0.0581 -0.2408
   81MOL   C14327503   1.489   7.770   1.901 -0.7855 -0.0209 -0.3798
   81MOL   C14427504   1.515   7.814   1.755  0.2565  0.2982 -1.2814
   81MOL   O14527505   1.622   7.862   1.723 -0.4090  0.3614 -0.0403
   81MOL   H14627506   1.487   7.855   1.388 -0.9655  1.0744 -1.3767
   81MOL   H14727507   1.456   7.706   1.460 -1.8409 -0.0404  0.7012
   81MOL   H14827508   1.245   7.867   1.547  0.2642  0.1071  1.4274
   81MOL   H14927509   1.199   7.765   1.744  1.5010  1.6312  0.0959
   81MOL   H15027510   1.306   7.628   1.696 -2.3101 -1.7454  0.7328
   81MOL   H15127511   1.277   7.736   1.971  0.7686  0.0622  0.2148
   81MOL   H15227512   1.356   7.592   1.908 -5.1402 -0.7596 -1.2203
   81MOL   H15327513   1.569   7.701   1.927  1.0201  2.0031 -0.4856
   81MOL   H15427514   1.502   7.855   1.967  0.9930  0.0561 -0.8191
   81MOL   C15527515   1.390   0.116   1.569  0.4746 -0.2437  0.5095
   81MOL   C15627516   1.335   0.216   1.679  0.2347 -0.1440 -0.3967
   81MOL   N15727517   1.402   0.346   1.653 -0.5224  0.6769  0.2082
   81MOL   C15827518   1.518   0.380   1.735 -0.5083 -0.1780  0.2706
   81MOL   C15927519   1.582   0.500   1.668 -0.2291  0.2780 -0.2031
   81MOL   C16027520   1.499   0.538   1.554  0.0544 -0.7341 -0.4370
   81MOL   C16127521   1.397   0.427   1.547 -0.4892 -0.2696 -0.3291
   81MOL   O16227522   1.310   0.426   1.455  0.1128  0.7058  0.1302
   81MOL   H16327523   1.351   0.173   1.485  0.1534 -0.5808  0.4286
   81MOL   H16427524   1.497   0.135   1.560 -0.0120  3.0103  1.0801
   81MOL   H16527525   1.377   0.177   1.772  1.8822 -0.9293 -1.4529
   81MOL   H16627526   1.480   0.407   1.833 -2.4459 -0.2332 -0.4412
   81MOL   H16727527   1.583   0.293   1.728 -0.4745 -0.0905 -0.5211
   81MOL   H16827528   1.579   0.573   1.749 -1.8051 -0.3413  0.3132
   81MOL   H16927529   1.685   0.473   1.644 -0.7040 -1.1424 -0.6806
   81MOL   H17027530   1.446   0.630   1.579 -0.4049 -1.4880  1.4477
   81MOL   H17127531   1.560   0.547   1.464  1.1500  0.5798  0.4239
   81MOL   C17227532   1.177   0.213   1.683  0.4803 -0.0419  0.0532
   81MOL   C17327533   1.109   0.155   1.808 -0.0620  0.7133 -0.5304
   81MOL   N17427534   1.151   0.224   1.934  0.3495 -0.2144  0.1949
   81MOL   C17527535   1.175   0.137   2.053  0.1674  0.2809  0.5791
   81MOL   C17627536   1.224   0.228   2.164  0.0512  0.1482  0.6557
   81MOL   C17727537   1.257   0.373   2.096  0.1855 -0.0377  0.1012
   81MOL   C17827538   1.190   0.354   1.958  0.5597  0.5952  0.5995
   81MOL   O17927539   1.180   0.443   1.876 -0.0619  0.4155  0.2198
   81MOL   H18027540   1.144   0.167   1.590 -1.6197  1.0260  0.2516
   81MOL   H18127541   1.136   0.311   1.661  0.0839 -0.2784 -0.2720
   81MOL   H18227542   1.135   0.049   1.811  0.9816  0.9967  1.1088
   81MOL   H18327543   1.089   0.074   2.072 -0.0946 -0.2771 -2.1939
   81MOL   H18427544   1.254   0.068   2.022 -0.6066  0.3463 -1.6335
   81MOL   H18527545   1.313   0.185   2.210  0.8587  1.0218 -0.0644
   81MOL   H18627546   1.140   0.228   2.234 -1.7398 -0.5420 -1.4601
   81MOL   H18727547   1.214   0.452   2.157 -0.7289 -1.5746  1.5115
   81MOL   H18827548   1.364   0.394   2.093  0.4720 -1.4747 -0.2861
   81MOL   C18927549   0.956   0.181   1.796 -0.0619 -0.1741 -0.1328
   81MOL   C19027550   0.867   0.082   1.718 -0.5150 -0.0362  0.0295
   81MOL   N19127551   0.892   7.845   1.752  0.2406 -0.9337  0.0140
   81MOL   C19227552   0.943   7.764   1.642  0.3988 -0.6488 -0.2549
   81MOL   C19327553   0.948   7.619   1.696  0.9770  0.0020  0.4632
   81MOL   C19427554   0.922   7.630   1.845  0.1259 -0.2340 -0.3397
   81MOL   C19527555   0.887   7.779   1.866  1.2296  0.4051  1.0256
   81MOL   O19627556   0.848   7.819   1.974 -0.2142 -0.5651 -0.1579
   81MOL   H19727557   0.945   0.282   1.755  2.5014 -0.4666 -1.6604
   81MOL   H19827558   0.904   0.177   1.892 -0.5066  0.6063 -0.3368
   81MOL   H19927559   0.889   0.093   1.612  0.1421  0.1311  0.1776
   81MOL   H20027560   0.881   7.783   1.555  2.9304  0.6274 -1.8381
   81MOL   H20127561   1.040   7.812   1.625 -1.7885  3.5951 -1.6234
   81MOL   H20227562   0.863   7.569   1.649  2.1590 -0.2087 -1.4973
   81MOL   H20327563   1.043   7.566   1.687  0.4212 -0.9909  0.3531
   81MOL   H20427564   0.842   7.562   1.876 -0.6226 -0.6435 -3.0328
   81MOL   H20527565   1.009   7.601   1.904 -0.0037 -0.1385 -0.0969
   81MOL   C20627566   0.719   0.114   1.745  0.4028  0.2070  0.7483
   81MOL   C20727567   0.618   0.052   1.651  0.0925 -0.2079 -0.7988
   81MOL   N20827568   0.649   0.067   1.505 -0.1291 -0.4977 -0.1852
   81MOL   C20927569   0.596   7.879   1.402  0.0485  0.2439 -0.8222
   81MOL   C21027570   0.641   0.024   1.272 -0.3835  1.0213  0.2979
   81MOL   C21127571   0.693   0.167   1.302  0.1495  0.0337  0.3942
   81MOL   C21227572   0.684   0.182   1.452 -0.0124 -0.3311 -0.5921
   81MOL   O21327573   0.697   0.289   1.508  0.5158  0.3858  0.1832
   81MOL   H21427574   0.712   0.222   1.733  1.2316  0.2510  0.6312
   81MOL   H21527575   0.697   0.099   1.851 -1.1495 -0.0578  0.3993
   81MOL   H21627576   0.535   0.122   1.661  0.4457  0.1593 -0.3580
   81MOL   H21727577   0.629   7.779   1.429  0.0732  0.8976  1.6188
   81MOL   H21827578   0.488   7.881   1.415  0.1344  0.6705 -0.1681
   81MOL   H21927579   0.721   7.863   1.241 -0.0272  1.3218  0.5641
   81MOL   H22027580   0.557   0.015   1.203  0.5658  1.7849 -0.9927
   81MOL   H22127581   0.798   0.172   1.274  0.0258 -0.8097 -0.2259
   81MOL   H22227582   0.639   0.244   1.247  1.9688  0.7224 -0.4652
   81MOL   C22327583   0.556   7.815   1.691  0.3781  0.0399  0.3327
   81MOL   C22427584   0.507   7.803   1.841  0.2826 -0.2579  0.9777
   81MOL   N22527585   0.373   7.870   1.852  0.0181 -0.0177  0.3961
   81MOL   C22627586   0.361   0.083   1.937 -0.4008 -0.3007 -0.4872
   81MOL   C22727587   0.220   0.126   1.935  0.4376  0.5190 -0.1243
   81MOL   C22827588   0.148   0.035   1.831  1.1869 -0.0540  0.0229
   81MOL   C22927589   0.256   7.838   1.798  0.1556 -0.7662 -0.8035
   81MOL   O23027590   0.236   7.754   1.708 -0.0032  0.4276  0.7631
   81MOL   H23127591   0.627   7.736   1.666 -0.8727 -1.6206  1.8661
   81MOL   H23227592   0.475   7.790   1.622  1.6103  0.5679 -1.3321
   81MOL   H23327593   0.591   7.836   1.902  0.0991 -1.6338  2.0011
   81MOL   H23427594   0.391   0.069   2.041 -1.4781 -0.8213 -0.2310
   81MOL   H23527595   0.426   0.151   1.881 -1.9896  1.7231  0.0623
   81MOL   H23627596   0.169   0.123   2.031  0.0970 -1.5395 -0.3418
   81MOL   H23727597   0.214   0.227   1.894  0.7260 -0.2990 -2.2052
   81MOL   H23827598   0.060   7.900   1.882  1.3389  0.4076  0.6512
   81MOL   H23927599   0.116   0.083   1.738 -0.2243  1.0747  1.0650
   81MOL   C24027600   0.499   7.653   1.872 -0.0750 -0.5639 -0.4741
   81MOL   C24127601   0.517   7.591   2.011 -0.5096  0.2872 -0.1035
   81MOL   N24227602   0.405   7.637   2.099 -0.6532  0.2154 -0.4301
   81MOL   C24327603   0.272   7.573   2.090  0.4658 -0.2919 -0.2106
   81MOL   C24427604   0.188   7.632   2.199 -0.4636 -1.1851 -1.0203
   81MOL   C24527605   0.275   7.734   2.269 -0.3061  0.1288  0.2031
   81MOL   C24627606   0.414   7.714   2.206  0.1439 -0.1606  0.1902
   81MOL   O24727607   0.514   7.765   2.244  0.5051 -0.5746 -0.2400
   81MOL   H24827608   0.582   7.612   1.814  0.6912  0.6430 -0.2438
   81MOL   H24927609   0.424   7.600   1.812  1.3533 -1.5594 -1.4457
   81MOL   H25027610   0.605   7.636   2.056 -1.0153 -0.5810  1.7901
   81MOL   H25127611   0.220   7.592   1.996 -0.0861  0.4412  0.2325
   81MOL   H25227612   0.275   7.465   2.099 -1.2476 -0.3091  0.2974
   81MOL   H25327613   0.096   7.676   2.159 -0.7664  1.7331  2.6604
   81MOL   H25427614   0.163   7.555   2.272  2.2137 -0.0729  1.1386
   81MOL   H25527615   0.234   7.834   2.251  2.1270  0.8019 -1.9653
   81MOL   H25627616   0.293   7.712   2.374  0.4604  1.4614  0.3628
   81MOL   C25727617   0.528   7.437   1.997  0.1229 -0.1966 -0.0794
   81MOL   C25827618   0.599   7.355   2.107  0.1777 -0.7878  0.0748
   81MOL   N25927619   0.525   7.362   2.244 -0.0270 -0.0241  0.1075
   81MOL   C26027620   0.603   7.423   2.356 -0.0197  0.0523 -0.1408
   81MOL   C26127621   0.501   7.411   2.469  0.9293 -0.3329  0.6432
   81MOL   C26227622   0.373   7.321   2.422 -0.2811  0.4853  0.4799
   81MOL   C26327623   0.407   7.296   2.277  0.2402  0.1991  0.4883
   81MOL   O26427624   0.332   7.232   2.201 -0.6399 -0.9144  0.0787
   81MOL   H26527625   0.581   7.429   1.901  3.7260 -0.9509  1.8923
   81MOL   H26627626   0.432   7.390   1.976 -1.5222  2.4688  1.2690
   81MOL   H26727627   0.698   7.399   2.123  0.4424 -1.1609 -0.5196
   81MOL   H26827628   0.694   7.365   2.372  1.6487  2.6837  0.1362
   81MOL   H26927629   0.634   7.524   2.330 -0.2555  0.6351  1.7761
   81MOL   H27027630   0.547   7.356   2.551  1.7076  0.1703  0.5389
   81MOL   H27127631   0.478   7.504   2.522 -3.2985 -0.1752 -1.2280
   81MOL   H27227632   0.353   7.222   2.463  2.2362 -0.4902 -0.5650
   81MOL   H27327633   0.281   7.379   2.430 -1.0363 -0.9770  3.4050
   81MOL   C27427634   0.612   7.211   2.064  0.0719 -0.4185 -0.6045
   81MOL   C27527635   0.729   7.175   1.970 -0.6982  0.5792  0.4115
   81MOL   N27627636   0.863   7.177   2.031 -0.1486  0.1239 -0.1237
   81MOL   C27727637   0.977   7.249   1.965  0.3920  0.0671  0.1193
   81MOL   C27827638   1.100   7.187   2.022 -0.4517 -0.5760 -0.2681
   81MOL   C27927639   1.054   7.102   2.145  1.1515 -1.2207 -0.0340
   81MOL   C28027640   0.904   7.103   2.134  0.3636 -0.4457 -0.1606
   81MOL   O28127641   0.839   7.027   2.200 -0.5654  0.4701 -0.4967
   81MOL   H28227642   0.515   7.177   2.029 -1.6512  0.6722  2.8752
   81MOL   H28327643   0.626   7.138   2.144  1.4260 -0.9677 -1.3319
   81MOL   H28427644   0.723   7.254   1.895 -1.2078 -0.1525 -0.3428
   81MOL   H28527645   0.986   7.247   1.856 -1.1353  2.1465 -0.0772
   81MOL   H28627646   0.970   7.355   1.987 -0.5081 -0.0243  0.3213
   81MOL   H28727647   1.152   7.124   1.950 -0.8667  0.1326 -1.1918
   81MOL   H28827648   1.163   7.272   2.048  1.0478 -1.2941 -1.5183
   81MOL   H28927649   1.103   7.005   2.156  2.3134 -0.7770 -1.1267
   81MOL   H29027650   1.087   7.145   2.239 -1.4560 -1.1977  0.9062
   81MOL   C29127651   0.707   7.034   1.906 -0.2442 -0.0620  1.0509
   81MOL   C29227652   0.619   7.035   1.778  0.1368  0.3840 -0.4620
   81MOL   N29327653   0.666   7.127   1.681 -0.0161  0.0973  0.0393
   81MOL   C29427654   0.569   7.210   1.616  0.0951 -0.2571 -0.2931
   81MOL   C29527655   0.636   7.293   1.508  0.2121  0.4026 -0.1592
   81MOL   C29627656   0.782   7.231   1.501 -0.5609  0.3411  0.2167
   81MOL   C29727657   0.791   7.136   1.623 -0.0239 -0.6676  0.1784
   81MOL   O29827658   0.897   7.086   1.663 -0.5323 -0.6046  0.2709
   81MOL   H29927659   0.668   6.965   1.980 -0.6636 -1.5834 -0.5584
   81MOL   H30027660   0.806   7.004   1.872  0.1657 -0.3860  2.5237
   81MOL   H30127661   0.521   7.069   1.810  0.4805  0.1064  0.9140
   81MOL   H30227662   0.493   7.153   1.563 -1.0805  0.6347  0.4071
   81MOL   H30327663   0.514   7.268   1.691  0.2908  0.7649 -0.9293
   81MOL   H30427664   0.591   7.296   1.409  0.5576  0.9519 -0.2974
   81MOL   H30527665   0.647   7.396   1.541  1.9981  0.4077 -0.6977
   81MOL   H30627666   0.801   7.186   1.403 -2.1367  0.9490 -0.3818
   81MOL   H30727667   0.855   7.312   1.507  0.0101 -0.0843 -0.8761
   81MOL   C30827668   0.615   6.895   1.710  0.2466  0.3270 -0.1716
   81MOL   C30927669   0.534   6.778   1.776 -0.3118 -0.3425  0.2124
   81MOL   N31027670   0.416   6.822   1.857  0.0372 -0.2512 -0.1162
   81MOL   C31127671   0.415   6.802   2.001  0.6670  0.1743 -0.3629
   81MOL   C31227672   0.279   6.856   2.047 -0.0633  0.0491  0.1392
   81MOL   C31327673   0.214   6.917   1.925 -0.0898  0.5085 -0.2694
   81MOL   C31427674   0.309   6.883   1.811  0.2501  0.1188  0.5002
   81MOL   O31527675   0.280   6.920   1.695  0.1758  0.9122  0.3091
   81MOL   H31627676   0.717   6.863   1.692  0.2380 -0.7842  1.6831
   81MOL   H31727677   0.577   6.904   1.608  0.0021 -0.9977 -0.2060
   81MOL   H31827678   0.606   6.737   1.847 -0.2652  0.3486  0.5600
   81MOL   H31927679   0.420   6.699   2.038 -1.4125 -0.1756 -1.0233
   81MOL   H32027680   0.499   6.845   2.055  1.4435  1.3148 -2.4250
   81MOL   H32127681   0.215   6.782   2.094 -0.0902 -0.5068 -0.7446
   81MOL   H32227682   0.283   6.947   2.106  0.5359 -0.7803  1.3993
   81MOL   H32327683   0.112   6.883   1.910  0.2101 -0.5412 -0.0152
   81MOL   H32427684   0.212   7.025   1.938  2.2597  0.5496 -0.0866
   81MOL   C32527685   0.495   6.668   1.676  0.0027 -0.0824 -0.3575
   81MOL   C32627686   0.616   6.594   1.610 -0.0989  0.9971  0.1876
   81MOL   N32727687   0.690   6.498   1.692 -0.5620  0.0981 -0.1760
   81MOL   C32827688   0.668   6.355   1.682  0.1516 -0.2877 -0.3110
   81MOL   C32927689   0.792   6.291   1.758  0.0716  1.0286 -0.1026
   81MOL   C33027690   0.846   6.409   1.836  0.5660  0.2708  0.3907
   81MOL   C33127691   0.791   6.535   1.770 -0.2459 -0.1948  0.8789
   81MOL   O33227692   0.833   6.649   1.789  0.0643  0.0512  0.2187
   81MOL   H33327693   0.428   6.702   1.598  2.1958  0.8905 -1.8442
   81MOL   H33427694   0.446   6.594   1.739  1.8219 -0.2600  0.9115
   81MOL   H33527695   0.690   6.653   1.554  0.4731  1.5966  1.5471
   81MOL   H33627696   0.574   6.322   1.726 -0.4287  0.8426 -0.7041
   81MOL   H33727697   0.672   6.327   1.576 -1.7868  0.1821 -0.5313
   81MOL   H33827698   0.755   6.219   1.831 -0.4036  2.0071  0.6516
   81MOL   H33927699   0.863   6.242   1.692 -0.4854 -0.1217  0.1397
   81MOL   H34027700   0.807   6.409   1.937  0.4753 -1.2806  0.3597
   81MOL   H34127701   0.954   6.402   1.852  0.7382 -1.0136 -1.1971
   81MOL   H34227702   0.569   6.542   1.527 -1.6256 -0.7876  2.1200
   82MOL     C127703   5.095   6.015   1.371  0.2460 -0.7572 -0.4590
   82MOL     C227704   4.954   5.960   1.382  0.0226  0.4573 -0.0108
   82MOL     N327705   4.866   6.031   1.285 -0.0156 -0.4554 -0.2311
   82MOL     C427706   4.899   6.044   1.138 -0.7673 -0.1609  0.1850
   82MOL     C527707   4.792   6.137   1.080  0.2385  0.0489 -0.2010
   82MOL     C627708   4.727   6.208   1.199 -0.3780 -0.2365  0.2628
   82MOL     C727709   4.772   6.122   1.316 -0.2397 -0.5072 -0.4626
   82MOL     O827710   4.733   6.134   1.433 -0.1056 -0.2688  0.7651
   82MOL     H927711   5.148   5.985   1.281 -0.5686 -0.9148 -0.8866
   82MOL    H1027712   5.104   6.123   1.370 -1.9527 -0.5406  1.1571
   82MOL    H1127713   4.932   6.004   1.480  3.7526  0.6020  0.8468
   82MOL    H1227714   4.999   6.070   1.103 -0.3900 -0.2144  1.2094
   82MOL    H1327715   4.873   5.944   1.103 -0.2562  0.0277 -0.7649
   82MOL    H1427716   4.835   6.218   1.020 -2.2570  0.2940 -1.7167
   82MOL    H1527717   4.715   6.098   1.014 -0.5628  1.5969 -0.2208
   82MOL    H1627718   4.771   6.307   1.217 -0.3935 -0.1691 -0.0605
   82MOL    H1727719   4.619   6.197   1.198 -0.5117  0.9348  0.1645
   82MOL    H1827720   5.151   5.972   1.454 -0.5835 -1.4699 -0.2682
   82MOL    C1927721   4.922   5.810   1.392 -0.3181  0.0832 -0.4240
   82MOL    C2027722   4.785   5.767   1.435 -0.1774 -0.0287 -0.1279
   82MOL    N2127723   4.755   5.629   1.400 -0.8138 -0.3299  0.3690
   82MOL    C2227724   4.695   5.599   1.269 -0.3852  0.2078  0.8690
   82MOL    C2327725   4.694   5.450   1.242 -0.6997  0.2952 -0.3507
   82MOL    C2427726   4.776   5.389   1.360  0.5339  0.4334  0.7075
   82MOL    C2527727   4.809   5.511   1.444  0.3795  0.1862 -0.0256
   82MOL    O2627728   4.884   5.499   1.538  0.1768  0.3281 -0.1123
   82MOL    H2727729   4.990   5.766   1.464  0.3868  1.1228 -0.4384
   82MOL    H2827730   4.945   5.766   1.294 -1.5256  1.5987 -1.4077
   82MOL    H2927731   4.714   5.817   1.368 -1.5181 -1.6948 -0.0005
   82MOL    H3027732   4.594   5.636   1.251 -0.3981 -1.1389 -2.1420
   82MOL    H3127733   4.760   5.648   1.196  2.7870 -0.9325  2.7976
   82MOL    H3227734   4.593   5.407   1.237  0.4038 -2.5696  0.7912
   82MOL    H3327735   4.747   5.427   1.149  1.1376  2.1670  0.2093
   82MOL    H3427736   4.722   5.309   1.411 -1.4362  0.8038 -0.6977
   82MOL    H3527737   4.860   5.330   1.326  1.4752  1.3159  1.4908
   82MOL    C3627738   4.754   5.790   1.583  0.1822 -0.1528 -0.7049
   82MOL    C3727739   4.600   5.785   1.609  0.1462 -0.6522 -0.5973
   82MOL    N3827740   4.571   5.748   1.746  0.4193 -0.6306  0.1139
   82MOL    C3927741   4.493   5.631   1.770 -0.7174  0.1488  0.6147
   82MOL    C4027742   4.453   5.635   1.917 -0.4141 -0.2565  0.3775
   82MOL    C4127743   4.534   5.746   1.984  0.7533 -0.6273  0.7523
   82MOL    C4227744   4.600   5.807   1.860  0.1217  0.3574  0.4872
   82MOL    O4327745   4.657   5.913   1.868  0.3342  0.7802 -0.1974
   82MOL    H4427746   4.786   5.889   1.613  1.9261 -1.0841  0.6355
   82MOL    H4527747   4.809   5.725   1.652  0.1652  2.0583  1.4208
   82MOL    H4627748   4.573   5.692   1.559  2.8557 -1.7458 -0.1436
   82MOL    H4727749   4.406   5.634   1.705  2.8665 -0.7778 -4.5060
   82MOL    H4827750   4.542   5.536   1.748  0.5276  0.5990  1.3847
   82MOL    H4927751   4.345   5.652   1.923 -0.3264  0.4045  0.1681
   82MOL    H5027752   4.478   5.536   1.954 -1.5571 -0.0553  1.7765
   82MOL    H5127753   4.474   5.817   2.041 -1.2109 -0.6983 -1.1673
   82MOL    H5227754   4.614   5.719   2.054 -0.9454 -1.6779  2.3370
   82MOL    C5327755   4.527   5.910   1.547  0.3187  0.0111  0.2386
   82MOL    C5427756   4.382   5.884   1.494  0.1193 -0.4933  0.6560
   82MOL    N5527757   4.310   6.011   1.498 -0.0356  0.2764 -0.0827
   82MOL    C5627758   4.225   6.035   1.616 -0.1414  0.1221  0.2652
   82MOL    C5727759   4.202   6.184   1.616 -0.3219  0.1247 -0.2917
   82MOL    C5827760   4.227   6.227   1.470 -0.7184  0.2709  0.2533
   82MOL    C5927761   4.318   6.114   1.418  0.0589 -0.5748  0.4282
   82MOL    O6027762   4.385   6.115   1.313  0.0799  0.0529 -0.2667
   82MOL    H6127763   4.593   5.954   1.472  1.3406 -1.2910  0.3391
   82MOL    H6227764   4.519   5.990   1.621 -0.3679  0.2643 -0.1123
   82MOL    H6327765   4.331   5.822   1.567  0.4573 -0.2881  1.0662
   82MOL    H6427766   4.129   5.985   1.603 -2.0397  3.7464 -0.3039
   82MOL    H6527767   4.272   6.000   1.708  0.6230  1.0436  0.2342
   82MOL    H6627768   4.098   6.204   1.643 -0.1466  0.3749  0.2234
   82MOL    H6727769   4.266   6.249   1.677  1.5845 -1.0352 -1.0125
   82MOL    H6827770   4.133   6.220   1.415  0.4380  1.6795 -1.9700
   82MOL    H6927771   4.269   6.325   1.452 -1.4436  0.3141 -1.2534
   82MOL    C7027772   4.374   5.817   1.356  0.1293  0.2115  0.6529
   82MOL    C7127773   4.243   5.816   1.284 -0.0632 -0.0744 -0.1632
   82MOL    N7227774   4.255   5.743   1.151  0.0431  0.2030  0.1011
   82MOL    C7327775   4.263   5.819   1.026 -0.2778 -0.1465 -0.0655
   82MOL    C7427776   4.298   5.716   0.925  0.0643 -1.5329  0.0556
   82MOL    C7527777   4.299   5.577   0.995 -0.8107 -0.2970  0.5760
   82MOL    C7627778   4.252   5.612   1.133  0.3766 -0.0563 -0.4941
   82MOL    O7727779   4.227   5.530   1.218  0.0818  0.2161 -0.3898
   82MOL    H7827780   4.404   5.713   1.369 -1.1727 -0.2083  0.4030
   82MOL    H7927781   4.441   5.864   1.285  0.6357  0.5806  1.3628
   82MOL    H8027782   4.211   5.915   1.251  0.6356  0.1610 -0.1338
   82MOL    H8127783   4.169   5.872   1.010  1.3259  2.6605 -0.5990
   82MOL    H8227784   4.349   5.884   1.042 -1.0042  0.3120  2.0531
   82MOL    H8327785   4.225   5.713   0.845  0.4468 -0.5448 -0.3393
   82MOL    H8427786   4.400   5.735   0.892 -0.2300  0.0138  0.0093
   82MOL    H8527787   4.236   5.503   0.944 -0.7711 -0.7940  1.2448
   82MOL    H8627788   4.403   5.545   1.005 -1.0972 -0.2073  4.5277
   82MOL    C8727789   4.126   5.768   1.374  0.3137  0.2774  0.4708
   82MOL    C8827790   3.990   5.782   1.307 -0.4433 -0.3774  0.8111
   82MOL    N8927791   3.903   5.710   1.398 -0.5772 -0.7903  0.5348
   82MOL    C9027792   3.855   5.579   1.365 -0.6101  0.3069 -1.0321
   82MOL    C9127793   3.789   5.520   1.487 -0.4670  0.1056  0.2938
   82MOL    C9227794   3.829   5.619   1.598 -0.4763 -0.4187 -0.5402
   82MOL    C9327795   3.873   5.745   1.521 -0.2756  0.2305 -0.0723
   82MOL    O9427796   3.893   5.855   1.571 -0.0772  0.3073 -0.0341
   82MOL    H9527797   4.120   5.833   1.461 -1.8729  1.6597 -0.6598
   82MOL    H9627798   4.144   5.664   1.401  1.4277  0.6104  1.0331
   82MOL    H9727799   3.993   5.732   1.211  0.0786  1.8555 -0.3785
   82MOL    H9827800   3.775   5.578   1.290  0.1572  0.1417 -1.8562
   82MOL    H9927801   3.936   5.519   1.324 -1.1863 -0.2681 -1.3613
   82MOL   H10027802   3.681   5.520   1.471 -0.1968 -2.3876 -1.8432
   82MOL   H10127803   3.822   5.417   1.498  1.3281  0.7405  0.9961
   82MOL   H10227804   3.747   5.633   1.668 -1.4607 -1.2013 -1.5210
   82MOL   H10327805   3.920   5.592   1.652  0.2803 -0.5414 -1.8546
   82MOL   C10427806   3.939   5.927   1.280 -0.1014 -0.0944  0.1835
   82MOL   C10527807   3.789   5.969   1.294  0.4219 -0.1356 -0.1548
   82MOL   N10627808   3.777   6.119   1.283  0.4209  0.1681 -0.6293
   82MOL   C10727809   3.760   6.201   1.404 -0.5645 -0.1552  0.4264
   82MOL   C10827810   3.786   6.345   1.363 -0.1349 -0.8785  0.4419
   82MOL   C10927811   3.795   6.339   1.207  0.0895  0.5961 -0.1240
   82MOL   C11027812   3.794   6.194   1.171 -0.6750  0.5212 -0.8992
   82MOL   O11127813   3.819   6.158   1.056  0.1366 -0.5241 -0.7884
   82MOL   H11227814   3.987   5.961   1.188  2.0539  1.2752  1.7502
   82MOL   H11327815   3.990   5.993   1.350 -0.0770  0.9109 -0.7809
   82MOL   H11427816   3.759   5.951   1.398  1.0010  2.1709  0.4456
   82MOL   H11527817   3.656   6.185   1.435 -0.6337  0.5076  0.5625
   82MOL   H11627818   3.816   6.168   1.492 -1.8391 -0.9171  0.9605
   82MOL   H11727819   3.707   6.416   1.389 -0.1891 -1.2677  1.3766
   82MOL   H11827820   3.881   6.389   1.394 -0.9396  0.2952  1.2819
   82MOL   H11927821   3.893   6.354   1.162  0.6702 -1.6167  0.3133
   82MOL   H12027822   3.710   6.389   1.161 -0.2496 -0.1795 -0.3641
   82MOL   C12127823   3.690   5.888   1.206  0.3451 -0.0178  0.8635
   82MOL   C12227824   3.548   5.939   1.183 -0.3075  0.0972 -0.2552
   82MOL   N12327825   3.496   5.899   1.052  0.1253 -0.4514 -0.0224
   82MOL   C12427826   3.487   5.991   0.944  0.4578 -0.5712 -0.4076
   82MOL   C12527827   3.422   5.923   0.824  0.1532 -0.1958  0.0265
   82MOL   C12627828   3.434   5.771   0.866  0.8218 -0.2009 -0.2215
   82MOL   C12727829   3.464   5.775   1.017  0.9312 -0.0088 -0.8837
   82MOL   O12827830   3.464   5.669   1.088  0.2705 -0.7080 -0.3046
   82MOL   H12927831   3.682   5.785   1.239  0.8848  0.2617  1.8693
   82MOL   H13027832   3.736   5.871   1.108  0.6016 -1.2225  1.1926
   82MOL   H13127833   3.551   6.048   1.186 -0.1026  0.0877 -0.1848
   82MOL   H13227834   3.586   6.030   0.918  0.8196  0.7574  2.6880
   82MOL   H13327835   3.425   6.077   0.969  2.3143  1.6944 -3.2355
   82MOL   H13427836   3.314   5.935   0.821  0.1265 -0.7014 -0.8733
   82MOL   H13527837   3.464   5.953   0.728  0.7294 -0.2138  0.2668
   82MOL   H13627838   3.336   5.727   0.847 -0.1584  2.0512 -0.5061
   82MOL   H13727839   3.519   5.726   0.815  1.0624 -1.6282  1.3937
   82MOL   C13827840   3.446   5.903   1.298  0.2405  0.4416 -0.2100
   82MOL   C13927841   3.308   5.971   1.297  0.5292 -0.1523  0.4905
   82MOL   N14027842   3.204   5.891   1.372  1.0891 -0.0840  0.1054
   82MOL   C14127843   3.140   5.781   1.298  0.4125  0.5442 -0.7144
   82MOL   C14227844   3.028   5.727   1.394 -0.7339 -0.1473 -0.1680
   82MOL   C14327845   3.025   5.825   1.511 -0.0975 -0.8347 -0.3195
   82MOL   C14427846   3.146   5.914   1.490  0.2452  0.4033  0.6304
   82MOL   O14527847   3.166   6.011   1.571  0.1400  0.1306 -0.2537
   82MOL   H14627848   3.496   5.935   1.389  1.9086 -1.9565 -0.2373
   82MOL   H14727849   3.431   5.797   1.317 -1.7334  1.1665  2.5345
   82MOL   H14827850   3.264   5.956   1.199 -0.3095  0.8947  0.7017
   82MOL   H14927851   3.112   5.803   1.195 -1.4805 -0.0579 -0.3409
   82MOL   H15027852   3.224   5.713   1.286  1.0651  1.2097 -0.0030
   82MOL   H15127853   2.932   5.743   1.345  0.9142  1.1130 -3.1153
   82MOL   H15227854   3.047   5.625   1.427  2.5526  1.0750  2.0138
   82MOL   H15327855   3.015   5.782   1.611  1.0123  0.9663  0.5838
   82MOL   H15427856   2.942   5.895   1.502  1.2432  0.5142 -2.6425
   82MOL   C15527857   3.332   6.126   1.327  0.1492 -0.3951  0.3927
   82MOL   C15627858   3.218   6.231   1.325  0.4083  0.7928  0.4768
   82MOL   N15727859   3.278   6.344   1.404 -0.4695  0.1448  0.5184
   82MOL   C15827860   3.211   6.399   1.517  0.3002  0.7987  0.6418
   82MOL   C15927861   3.312   6.495   1.579  0.6441  0.4403  0.0713
   82MOL   C16027862   3.414   6.523   1.470 -0.4879 -0.9250  0.5366
   82MOL   C16127863   3.386   6.416   1.366 -0.2074 -0.4894  0.1860
   82MOL   O16227864   3.455   6.408   1.263  0.2011  0.2641  0.3410
   82MOL   H16327865   3.399   6.155   1.246  0.0703  0.0841  0.4990
   82MOL   H16427866   3.392   6.134   1.417  1.9717 -0.6648 -0.7574
   82MOL   H16527867   3.133   6.198   1.385  0.4980  0.7511  0.5804
   82MOL   H16627868   3.121   6.451   1.485 -1.2668 -0.6919  2.5373
   82MOL   H16727869   3.195   6.320   1.590  0.1462 -0.3585 -0.6368
   82MOL   H16827870   3.253   6.581   1.610  0.7198 -0.3936  2.6681
   82MOL   H16927871   3.358   6.458   1.671 -1.7706 -0.1555  1.0594
   82MOL   H17027872   3.389   6.617   1.421  1.0753 -0.8841 -0.1843
   82MOL   H17127873   3.513   6.518   1.515 -0.7266  0.8637  1.3046
   82MOL   C17227874   3.175   6.279   1.184  1.1570 -0.2638  0.4724
   82MOL   C17327875   3.062   6.200   1.101  0.5312  0.0440 -0.0799
   82MOL   N17427876   2.946   6.174   1.186  0.2221  0.5110 -0.0867
   82MOL   C17527877   2.913   6.034   1.201 -0.8290  0.0728 -0.1217
   82MOL   C17627878   2.787   6.039   1.285  0.5595 -0.1824 -0.0204
   82MOL   C17727879   2.750   6.187   1.308  0.1930  1.3688 -0.4149
   82MOL   C17827880   2.860   6.257   1.243  0.8810  0.2861  0.4245
   82MOL   O17927881   2.871   6.380   1.241 -0.1488 -0.5891 -0.4436
   82MOL   H18027882   3.250   6.304   1.109 -0.0665 -2.0277 -1.3913
   82MOL   H18127883   3.142   6.382   1.201  0.6821 -0.1129 -1.2680
   82MOL   H18227884   3.102   6.103   1.072  1.5298  0.8072 -1.3381
   82MOL   H18327885   2.904   5.982   1.106 -0.7386  0.2204 -0.2125
   82MOL   H18427886   2.999   6.007   1.263 -0.9109  2.0940  0.9203
   82MOL   H18527887   2.796   5.986   1.380 -1.0309  3.1446  2.0679
   82MOL   H18627888   2.698   5.999   1.238  0.1886  2.1521 -1.3604
   82MOL   H18727889   2.654   6.220   1.269 -0.3395 -0.6188 -0.8343
   82MOL   H18827890   2.746   6.208   1.415 -1.1898  0.0159 -0.1730
   82MOL   C18927891   3.023   6.270   0.975  0.9717  0.4949  0.2086
   82MOL   C19027892   2.902   6.211   0.897  0.8633  0.7804 -0.6475
   82MOL   N19127893   2.820   6.311   0.834  0.2566  0.3230 -0.8231
   82MOL   C19227894   2.684   6.341   0.894  0.0734  0.2486 -0.0919
   82MOL   C19327895   2.620   6.434   0.798 -0.3674 -0.1147  0.4704
   82MOL   C19427896   2.742   6.486   0.715 -0.0206  0.2342 -0.2847
   82MOL   C19527897   2.852   6.391   0.734 -0.3026  0.6374 -0.5406
   82MOL   O19627898   2.956   6.382   0.668 -0.0040 -0.3716  0.2412
   82MOL   H19727899   3.108   6.268   0.907  0.7725  0.8692 -0.0548
   82MOL   H19827900   3.009   6.373   1.008 -1.8094 -0.3631  1.8514
   82MOL   H19927901   2.839   6.157   0.968  1.2891  1.7489  0.4788
   82MOL   H20027902   2.629   6.247   0.903 -0.0337  0.2808 -0.4211
   82MOL   H20127903   2.691   6.402   0.984  2.5089 -0.6808  0.3964
   82MOL   H20227904   2.540   6.388   0.740 -1.6100  2.3912  0.1234
   82MOL   H20327905   2.558   6.513   0.842 -1.6325 -0.0733 -1.3251
   82MOL   H20427906   2.707   6.507   0.614  1.5564  2.6978 -0.3563
   82MOL   H20527907   2.771   6.583   0.755 -0.4078  0.0944  0.3489
   82MOL   C20627908   2.950   6.104   0.802 -0.4087  0.2010 -0.0349
   82MOL   C20727909   2.866   5.978   0.776  0.3880  0.6886 -0.0166
   82MOL   N20827910   2.739   6.012   0.712  0.6394 -0.4994 -0.3352
   82MOL   C20927911   2.605   6.001   0.775  0.5287 -0.1590 -0.5343
   82MOL   C21027912   2.503   6.076   0.688  0.3114 -0.3076  0.0149
   82MOL   C21127913   2.577   6.083   0.553  0.3706 -0.4574 -0.3622
   82MOL   C21227914   2.724   6.064   0.586  0.2660 -0.4745 -0.5054
   82MOL   O21327915   2.813   6.098   0.506  0.0019 -0.1447 -0.1175
   82MOL   H21427916   3.041   6.065   0.849  0.0195  0.5561 -0.5709
   82MOL   H21527917   2.993   6.156   0.717 -2.4883  2.3906  0.1988
   82MOL   H21627918   2.842   5.927   0.869  0.9524 -0.8722 -0.6984
   82MOL   H21727919   2.580   5.896   0.790  0.1906  0.0184  0.1756
   82MOL   H21827920   2.618   6.037   0.877 -3.1853  0.3874 -0.1700
   82MOL   H21927921   2.405   6.027   0.679 -0.3341  0.8703  0.5119
   82MOL   H22027922   2.484   6.179   0.717 -0.1641  0.1667 -1.9219
   82MOL   H22127923   2.540   6.013   0.478  0.0407  1.0328 -1.6225
   82MOL   H22227924   2.575   6.180   0.504  1.0263 -0.4804 -0.4326
   82MOL   C22327925   2.947   5.873   0.692  0.3164 -0.3404 -0.2395
   82MOL   C22427926   2.912   5.719   0.721  0.4408  0.1767  0.1556
   82MOL   N22527927   2.950   5.633   0.605 -0.6388  0.0545  0.3729
   82MOL   C22627928   2.853   5.546   0.537 -0.7415  0.7576 -0.1511
   82MOL   C22727929   2.939   5.455   0.449  0.1700 -0.2278 -0.4454
   82MOL   C22827930   3.085   5.485   0.482 -0.6786  0.6945 -0.5954
   82MOL   C22927931   3.077   5.614   0.562  0.2065  0.5188  1.0935
   82MOL   O23027932   3.170   5.689   0.585 -0.5444  0.0550 -0.3182
   82MOL   H23127933   3.049   5.878   0.729 -0.7900 -1.0438  3.0182
   82MOL   H23227934   2.957   5.901   0.587 -1.1456  1.4322  0.0703
   82MOL   H23327935   2.804   5.709   0.731  0.4387 -1.1557 -0.9746
   82MOL   H23427936   2.797   5.492   0.614 -2.0710 -0.7538 -2.1083
   82MOL   H23527937   2.797   5.616   0.476 -0.7507  1.2966  0.4689
   82MOL   H23627938   2.911   5.350   0.464  1.3996 -0.5344 -0.2523
   82MOL   H23727939   2.918   5.477   0.344  2.1898  0.2933 -0.7536
   82MOL   H23827940   3.133   5.412   0.547 -1.2194 -0.8870 -1.9522
   82MOL   H23927941   3.151   5.498   0.396 -0.2685 -3.9714 -1.0749
   82MOL   C24027942   2.974   5.677   0.858  0.1196  0.2029  0.0058
   82MOL   C24127943   2.960   5.519   0.881 -0.0207 -0.0082  0.3484
   82MOL   N24227944   3.084   5.468   0.943 -0.0928  0.3612  0.2258
   82MOL   C24327945   3.189   5.406   0.865  0.6247  0.1455  0.0831
   82MOL   C24427946   3.306   5.394   0.961  0.0599  0.4366 -0.5655
   82MOL   C24527947   3.240   5.385   1.095 -0.2007  0.5226 -0.3885
   82MOL   C24627948   3.111   5.454   1.074  0.4298  0.1655 -0.2025
   82MOL   O24727949   3.037   5.499   1.163 -0.1983  0.1231  0.4204
   82MOL   H24827950   2.918   5.726   0.938  0.7475 -0.8304  1.0922
   82MOL   H24927951   3.079   5.701   0.874  0.0697  0.2971  0.1925
   82MOL   H25027952   2.954   5.467   0.785  1.4428 -0.3504  0.4361
   82MOL   H25127953   3.156   5.314   0.815 -0.6580  0.0557  1.0800
   82MOL   H25227954   3.219   5.473   0.784 -0.7912  0.0921 -0.5040
   82MOL   H25327955   3.358   5.304   0.925 -0.0993  0.4607 -0.8565
   82MOL   H25427956   3.356   5.491   0.961 -0.6542  0.8336  1.8018
   82MOL   H25527957   3.221   5.280   1.120 -0.2868  0.2344 -1.6433
   82MOL   H25627958   3.302   5.418   1.178  0.7231  0.1202 -0.9116
   82MOL   C25727959   2.824   5.480   0.951 -0.0847 -0.2215  0.0671
   82MOL   C25827960   2.801   5.323   0.959  0.6204  0.2762 -0.4164
   82MOL   N25927961   2.712   5.277   1.062  0.2083 -0.8016  0.1563
   82MOL   C26027962   2.772   5.219   1.187 -0.2181  0.8411  0.1804
   82MOL   C26127963   2.651   5.211   1.282 -0.1912  0.2375 -0.6660
   82MOL   C26227964   2.525   5.270   1.204  0.7328 -0.5830 -0.4545
   82MOL   C26327965   2.578   5.304   1.068 -0.0862 -0.5221  0.2683
   82MOL   O26427966   2.515   5.372   0.990  0.6060 -0.1927  0.0059
   82MOL   H26527967   2.742   5.523   0.892  0.3220  0.9974  0.3724
   82MOL   H26627968   2.811   5.523   1.050 -1.0714  0.6608 -0.4187
   82MOL   H26727969   2.902   5.291   0.987  0.0090  0.3126  2.0010
   82MOL   H26827970   2.816   5.124   1.156  1.1735  1.5307 -0.0149
   82MOL   H26927971   2.845   5.293   1.220  0.8884 -0.1759  0.0329
   82MOL   H27027972   2.638   5.105   1.300 -1.1834  0.4342 -0.2070
   82MOL   H27127973   2.660   5.262   1.378  0.3612 -0.6789 -0.2317
   82MOL   H27227974   2.441   5.202   1.196 -1.4150  1.9614 -0.4773
   82MOL   H27327975   2.471   5.349   1.256 -0.0974 -0.6143 -1.2607
   82MOL   C27427976   2.754   5.255   0.829  0.0768 -0.1926 -0.2566
   82MOL   C27527977   2.764   5.109   0.838  0.3822  0.3906  0.2878
   82MOL   N27627978   2.698   5.050   0.722 -0.0608  0.0487  0.5235
   82MOL   C27727979   2.596   4.952   0.752 -0.9606  0.1304  0.2995
   82MOL   C27827980   2.539   4.915   0.616 -0.1942 -0.2806  0.1233
   82MOL   C27927981   2.612   5.000   0.510  0.4471 -0.5421  0.4980
   82MOL   C28027982   2.717   5.065   0.596  0.4929 -0.1467 -0.1602
   82MOL   O28127983   2.815   5.113   0.540  0.1466  0.3155  0.3800
   82MOL   H28227984   2.832   5.276   0.755  0.7142 -0.9561  0.1919
   82MOL   H28327985   2.661   5.298   0.790  0.0446 -0.0813 -0.0585
   82MOL   H28427986   2.705   5.080   0.925 -0.5113 -0.9944 -0.7434
   82MOL   H28527987   2.637   4.861   0.794 -1.4833 -1.0630 -1.7022
   82MOL   H28627988   2.531   5.000   0.825 -2.7726 -1.4385 -0.2446
   82MOL   H28727989   2.556   4.810   0.592 -0.3606 -0.3261  0.2042
   82MOL   H28827990   2.432   4.937   0.619 -0.0943  0.5488 -1.8775
   82MOL   H28927991   2.639   4.948   0.418  0.4616 -0.2527  0.3394
   82MOL   H29027992   2.543   5.077   0.475 -0.4803 -1.5354  0.1177
   82MOL   C29127993   2.914   5.057   0.842 -1.1032 -0.5073 -0.0638
   82MOL   C29227994   2.924   4.901   0.867 -0.5888 -0.8741  0.6747
   82MOL   N29327995   3.056   4.850   0.826 -0.3609  0.3896 -0.6058
   82MOL   C29427996   3.063   4.730   0.736  0.1190  0.0616 -0.0137
   82MOL   C29527997   3.211   4.715   0.701 -1.2130  0.5947  0.0676
   82MOL   C29627998   3.283   4.794   0.808  0.3940 -0.5097  0.2680
   82MOL   C29727999   3.177   4.885   0.869  0.2733 -0.2384 -0.5892
   82MOL   O29828000   3.209   4.970   0.956  0.5148  0.4271 -0.1126
   82MOL   H29928001   2.978   5.105   0.916 -1.0998 -1.2268  0.4001
   82MOL   H30028002   2.963   5.087   0.749 -1.3931  0.8119  0.2036
   82MOL   H30128003   2.858   4.856   0.794 -2.2226  0.4677  1.2792
   82MOL   H30228004   3.015   4.641   0.777  1.1690 -1.2410 -1.5426
   82MOL   H30328005   3.014   4.769   0.647 -0.9438 -0.5481  0.3029
   82MOL   H30428006   3.246   4.612   0.701  1.9525  1.6002 -1.6087
   82MOL   H30528007   3.230   4.753   0.601 -0.1104 -1.8663 -0.7079
   82MOL   H30628008   3.311   4.723   0.886 -2.5119 -1.7126  0.2884
   82MOL   H30728009   3.369   4.846   0.765  0.5073 -1.0409 -0.1629
   82MOL   C30828010   2.889   4.870   1.014  0.4795 -0.2129 -0.6289
   82MOL   C30928011   2.869   4.720   1.053 -0.2618 -0.7487 -0.6608
   82MOL   N31028012   2.869   4.716   1.205  0.0797 -0.9352  0.2705
   82MOL   C31128013   2.981   4.639   1.259  0.5788  0.2916  0.0327
   82MOL   C31228014   2.951   4.640   1.405  0.2364  0.5426  0.0134
   82MOL   C31328015   2.821   4.705   1.437 -0.0774  0.4689  0.1349
   82MOL   C31428016   2.775   4.750   1.295 -0.1407 -0.3710 -0.3195
   82MOL   O31528017   2.675   4.820   1.272  0.2484  0.2957 -1.1919
   82MOL   H31628018   2.802   4.927   1.047  2.1146  1.0842  1.6400
   82MOL   H31728019   2.964   4.919   1.076 -0.3361 -0.7501  0.8279
   82MOL   H31828020   2.954   4.663   1.015  0.9979  1.1177 -0.7129
   82MOL   H31928021   2.983   4.536   1.223  0.5484  0.1920  0.3199
   82MOL   H32028022   3.077   4.688   1.239  0.8987 -0.7156 -0.9479
   82MOL   H32128023   2.958   4.534   1.430  0.4824  0.2340 -1.3225
   82MOL   H32228024   3.039   4.687   1.451  0.3890  1.1518 -0.8813
   82MOL   H32328025   2.753   4.626   1.466  2.0206 -1.5995 -0.3708
   82MOL   H32428026   2.830   4.787   1.509  0.8750  1.2974 -0.8922
   82MOL   C32528027   2.757   4.647   0.983  0.8365  0.7863  0.0368
   82MOL   C32628028   2.710   4.512   1.049  0.5908  0.5868 -0.1636
   82MOL   N32728029   2.594   4.451   0.992  0.5431  0.3597 -0.7363
   82MOL   C32828030   2.537   4.336   1.058 -0.0484  0.2432 -0.3242
   82MOL   C32928031   2.397   4.323   1.007 -0.8008  0.6956 -0.4544
   82MOL   C33028032   2.393   4.412   0.886 -0.2249  0.0528  0.2179
   82MOL   C33128033   2.526   4.482   0.883 -0.3168 -0.2863 -0.0025
   82MOL   O33228034   2.553   4.571   0.799 -0.2556  0.8323 -0.6334
   82MOL   H33328035   2.776   4.621   0.879 -1.1136 -1.8412  0.2998
   82MOL   H33428036   2.670   4.713   0.980  1.0716  1.1608  1.1682
   82MOL   H33528037   2.687   4.532   1.154  0.3064  0.2673 -0.1625
   82MOL   H33628038   2.598   4.252   1.023  0.6828  1.0717 -1.0731
   82MOL   H33728039   2.523   4.353   1.164 -1.8081  1.8067 -0.7869
   82MOL   H33828040   2.367   4.220   0.987 -1.1482  0.8555 -0.7559
   82MOL   H33928041   2.333   4.361   1.086 -1.6944  1.0737 -1.3508
   82MOL   H34028042   2.368   4.364   0.792  2.4415 -2.2288  0.6307
   82MOL   H34128043   2.320   4.492   0.899 -0.2117 -0.0050  0.6552
   82MOL   H34228044   2.791   4.439   1.044 -0.5950 -0.7791  0.1844
   83MOL     C128045   6.940   2.244   6.788 -0.1057  0.3100  0.2418
   83MOL     C228046   6.798   2.286   6.839 -0.7119 -0.8936  0.4534
   83MOL     N328047   6.780   2.247   6.982 -0.4791 -0.0548  0.2883
   83MOL     C428048   6.686   2.144   7.008 -0.2947  0.3101  0.1757
   83MOL     C528049   6.704   2.103   7.158 -0.5754 -0.2596 -0.3826
   83MOL     C628050   6.788   2.218   7.210 -0.7723 -0.0816  0.0381
   83MOL     C728051   6.841   2.291   7.091 -0.5102  0.1419  0.1769
   83MOL     O828052   6.928   2.378   7.105  0.4982  0.4208  0.1503
   83MOL     H928053   6.952   2.137   6.803  0.4187  0.3951  0.4424
   83MOL    H1028054   6.965   2.271   6.685 -2.3860 -1.2794 -0.7790
   83MOL    H1128055   6.730   2.228   6.776 -0.2131 -0.7041 -0.2671
   83MOL    H1228056   6.581   2.166   6.989  0.0093  0.6542 -1.1006
   83MOL    H1328057   6.708   2.048   6.960  0.6225  1.0581 -0.9144
   83MOL    H1428058   6.617   2.095   7.223  1.4272  2.8836  2.8202
   83MOL    H1528059   6.757   2.008   7.167 -0.6371 -0.3490 -0.9171
   83MOL    H1628060   6.724   2.292   7.258 -0.9682 -0.0711 -0.2394
   83MOL    H1728061   6.869   2.190   7.277  0.1036  1.7854 -0.2270
   83MOL    H1828062   7.010   2.284   6.860  1.5583  1.4264 -1.9297
   83MOL    C1928063   6.770   2.436   6.835  0.1798  0.3062 -0.0814
   83MOL    C2028064   6.783   2.498   6.692  0.5451 -0.4096  0.3419
   83MOL    N2128065   6.701   2.414   6.601  0.5314 -0.0583 -0.5730
   83MOL    C2228066   6.756   2.354   6.485  0.4384  0.0256  0.6234
   83MOL    C2328067   6.635   2.327   6.396 -0.2324 -0.1986 -0.5390
   83MOL    C2428068   6.511   2.342   6.488 -0.1338 -0.2106  0.6126
   83MOL    C2528069   6.568   2.417   6.610  0.3588  1.0689 -0.1125
   83MOL    O2628070   6.503   2.469   6.697  0.0077  0.4643 -0.6472
   83MOL    H2728071   6.839   2.487   6.903 -0.5669  1.6495 -0.3152
   83MOL    H2828072   6.668   2.454   6.866 -0.4384 -0.0524 -1.8415
   83MOL    H2928073   6.889   2.484   6.671  0.1093 -0.8458 -1.6446
   83MOL    H3028074   6.824   2.427   6.440  2.0257 -1.8795 -0.1325
   83MOL    H3128075   6.803   2.266   6.528  0.8189  0.8340  1.8572
   83MOL    H3228076   6.637   2.406   6.320 -1.1747  2.0906  1.7664
   83MOL    H3328077   6.624   2.233   6.341 -1.7066  0.1235 -0.8157
   83MOL    H3428078   6.432   2.407   6.451 -0.3459 -1.0246 -0.3886
   83MOL    H3528079   6.468   2.248   6.521  0.3213 -0.8791 -0.6673
   83MOL    C3628080   6.753   2.647   6.706 -0.1545  0.2138 -0.1981
   83MOL    C3728081   6.756   2.713   6.569 -0.1329  0.4808 -0.4324
   83MOL    N3828082   6.667   2.829   6.571 -0.2076  0.1130 -0.2611
   83MOL    C3928083   6.698   2.945   6.655 -0.3714  0.4728 -0.1127
   83MOL    C4028084   6.585   3.046   6.618 -0.5632  0.6503  0.2651
   83MOL    C4128085   6.486   2.974   6.536  0.0092  0.0678 -0.2353
   83MOL    C4228086   6.553   2.842   6.503  0.6590 -0.4094 -0.0969
   83MOL    O4328087   6.495   2.754   6.432 -0.4307 -0.5021 -0.0689
   83MOL    H4428088   6.826   2.701   6.766 -0.0156  0.4033 -0.5356
   83MOL    H4528089   6.650   2.659   6.740 -1.0488 -2.1091 -1.9576
   83MOL    H4628090   6.704   2.651   6.496 -0.3114 -0.9049  0.8460
   83MOL    H4728091   6.695   2.919   6.761 -0.2724  2.1341  0.3184
   83MOL    H4828092   6.786   3.007   6.638  0.8999 -0.8186  1.6199
   83MOL    H4928093   6.539   3.079   6.711 -0.0389 -0.3099  0.8701
   83MOL    H5028094   6.615   3.130   6.555 -0.9335 -0.1195 -0.9627
   83MOL    H5128095   6.396   2.975   6.597 -0.4287 -1.1193 -0.8468
   83MOL    H5228096   6.448   3.023   6.446  0.4364 -2.8847 -2.0905
   83MOL    C5328097   6.893   2.738   6.520 -0.3060 -0.6606 -0.7437
   83MOL    C5428098   6.913   2.784   6.374 -0.3615  0.9849  0.0775
   83MOL    N5528099   7.031   2.870   6.374 -0.2343  0.4893  0.0721
   83MOL    C5628100   7.004   3.009   6.373 -0.1867 -0.5170 -0.6125
   83MOL    C5728101   7.143   3.073   6.400  0.4028 -0.0885 -0.0850
   83MOL    C5828102   7.246   2.954   6.408  0.1373 -0.7862 -0.7696
   83MOL    C5928103   7.158   2.834   6.392  0.0184 -0.6841 -0.0351
   83MOL    O6028104   7.204   2.719   6.397 -0.7687  0.1350  0.5951
   83MOL    H6128105   6.958   2.652   6.533  1.3098  0.3322 -1.9938
   83MOL    H6228106   6.924   2.823   6.581 -0.8445  0.0389 -1.4323
   83MOL    H6328107   6.828   2.845   6.343 -1.5425 -0.2164  0.9052
   83MOL    H6428108   6.976   3.046   6.274  1.0730  2.2035 -0.0012
   83MOL    H6528109   6.933   3.038   6.450  0.1497  1.0400 -0.8703
   83MOL    H6628110   7.159   3.146   6.320 -2.2706  1.1055  0.4049
   83MOL    H6728111   7.139   3.128   6.493  0.8995 -1.0172  0.4916
   83MOL    H6828112   7.318   2.963   6.326  0.7225  0.3465 -0.1332
   83MOL    H6928113   7.291   2.946   6.507  0.8265  0.1844 -0.9898
   83MOL    C7028114   6.924   2.669   6.275 -0.4568  0.4365 -0.3129
   83MOL    C7128115   6.919   2.702   6.122 -0.1459  0.1307  0.4104
   83MOL    N7228116   6.932   2.575   6.046  0.3033  0.2911  0.2536
   83MOL    C7328117   7.057   2.552   5.976  0.1874 -0.3935 -1.0457
   83MOL    C7428118   7.035   2.421   5.907  0.7865 -0.2068  0.2860
   83MOL    C7528119   6.923   2.352   5.986  0.0904  0.0470  0.8577
   83MOL    C7628120   6.851   2.469   6.048  0.3502 -0.4235 -0.2993
   83MOL    O7728121   6.745   2.455   6.107  0.1678  0.5138  0.4177
   83MOL    H7828122   6.838   2.603   6.290  0.3249 -0.4648  0.1954
   83MOL    H7928123   7.003   2.595   6.281 -0.7682  0.1489  0.2632
   83MOL    H8028124   7.012   2.755   6.097  0.9391 -1.5313  0.8134
   83MOL    H8128125   7.080   2.628   5.900 -0.6083  2.5239  1.5161
   83MOL    H8228126   7.143   2.532   6.039 -0.1050  3.1759  0.6254
   83MOL    H8328127   6.994   2.437   5.807 -0.6532 -1.5651  0.6410
   83MOL    H8428128   7.124   2.357   5.911  0.1657 -1.1096 -0.1132
   83MOL    H8528129   6.848   2.300   5.926  1.2774  0.6919 -1.2229
   83MOL    H8628130   6.969   2.284   6.058  2.0317  0.6400  0.1969
   83MOL    C8728131   6.785   2.768   6.088  0.7385 -0.5000 -0.5341
   83MOL    C8828132   6.796   2.911   6.032  0.3461  0.1772  0.3450
   83MOL    N8928133   6.882   2.895   5.914 -0.2775  0.0295  0.8954
   83MOL    C9028134   6.849   2.817   5.798 -0.5035 -0.3722 -0.6174
   83MOL    C9128135   6.954   2.861   5.693  0.1151 -0.1340  0.3595
   83MOL    C9228136   7.071   2.916   5.780 -0.3946  0.6469 -0.6838
   83MOL    C9328137   7.005   2.953   5.905  0.1395  1.0841 -0.7912
   83MOL    O9428138   7.065   3.020   5.986  0.7730 -0.6748 -0.3717
   83MOL    H9528139   6.707   2.757   6.164  2.1819  1.2696  1.2465
   83MOL    H9628140   6.736   2.698   6.020  0.1208 -3.2475  2.5711
   83MOL    H9728141   6.841   2.967   6.114  0.2214  0.1241  0.4523
   83MOL    H9828142   6.841   2.712   5.827 -0.9007  0.2201  1.4982
   83MOL    H9928143   6.753   2.844   5.755 -0.9211 -0.1301  0.4545
   83MOL   H10028144   6.986   2.786   5.621  0.7319 -0.6308  1.1474
   83MOL   H10128145   6.932   2.952   5.637 -0.9993 -0.6695 -0.0829
   83MOL   H10228146   7.146   2.839   5.800 -0.1291  1.3195  0.9408
   83MOL   H10328147   7.116   3.004   5.735  0.7525  0.3630 -0.0975
   83MOL   C10428148   6.656   2.973   5.987  0.0673 -0.0149  0.2996
   83MOL   C10528149   6.583   3.080   6.075  0.2794  0.2418  0.3937
   83MOL   N10628150   6.673   3.177   6.138  0.3586 -0.4955  0.2562
   83MOL   C10728151   6.684   3.202   6.281 -0.2016 -0.5412  0.1418
   83MOL   C10828152   6.792   3.309   6.300 -0.0776  0.0874 -0.3266
   83MOL   C10928153   6.834   3.347   6.161  0.4891  0.3560 -0.1868
   83MOL   C11028154   6.756   3.260   6.067 -0.0787  0.1836  0.0855
   83MOL   O11128155   6.757   3.271   5.944 -0.0079 -0.3888 -0.0323
   83MOL   H11228156   6.582   2.898   5.959 -1.2141  1.7503 -1.1686
   83MOL   H11328157   6.669   3.022   5.891 -1.0532  1.4558  0.8690
   83MOL   H11428158   6.532   3.018   6.149  1.3634  0.1965  1.1119
   83MOL   H11528159   6.596   3.248   6.325  0.8262  0.7108  0.9192
   83MOL   H11628160   6.712   3.109   6.331  1.4944  0.4498  1.0661
   83MOL   H11728161   6.751   3.402   6.339 -1.9246 -1.0812  0.5994
   83MOL   H11828162   6.879   3.280   6.359 -0.6495 -1.4313 -0.2029
   83MOL   H11928163   6.936   3.313   6.146  0.6343  0.7020  0.0086
   83MOL   H12028164   6.838   3.453   6.138 -3.6829  0.7749  0.6171
   83MOL   C12128165   6.468   3.154   5.994 -0.3308 -0.4339 -0.1826
   83MOL   C12228166   6.339   3.073   5.978 -0.2767  0.7644 -0.3767
   83MOL   N12328167   6.270   3.032   6.103 -0.3959 -0.4276 -0.2326
   83MOL   C12428168   6.269   2.888   6.142 -0.7556 -0.0932 -0.5256
   83MOL   C12528169   6.207   2.889   6.281 -0.3528  0.1714 -0.2696
   83MOL   C12628170   6.155   3.031   6.317  0.3708 -0.3554  0.0701
   83MOL   C12728171   6.220   3.111   6.202  0.0906  0.2660  0.1856
   83MOL   O12828172   6.229   3.233   6.207  0.0025 -0.8080  1.2245
   83MOL   H12928173   6.507   3.188   5.898  0.6380 -3.6363 -1.0019
   83MOL   H13028174   6.444   3.246   6.046 -1.3404 -1.0466  0.4645
   83MOL   H13128175   6.363   2.981   5.924 -0.0972  0.3016  0.4692
   83MOL   H13228176   6.368   2.844   6.150 -0.1659  0.9020 -2.0680
   83MOL   H13328177   6.198   2.840   6.074 -1.2030  0.2251 -0.2910
   83MOL   H13428178   6.118   2.826   6.273 -0.4651  0.2301  0.4685
   83MOL   H13528179   6.271   2.841   6.355 -0.5343 -1.5263 -1.1896
   83MOL   H13628180   6.047   3.043   6.308  0.2951 -2.4514 -2.5325
   83MOL   H13728181   6.185   3.059   6.418  1.4112  0.9454 -0.5909
   83MOL   C13828182   6.236   3.152   5.889 -0.3511 -0.5546 -0.5325
   83MOL   C13928183   6.099   3.083   5.863  0.4058 -0.3422  0.1971
   83MOL   N14028184   5.992   3.158   5.919  0.2952  0.2663 -0.1114
   83MOL   C14128185   5.885   3.090   6.002  0.8038  0.5808 -0.0982
   83MOL   C14228186   5.779   3.196   6.032  0.2390  0.4619 -0.6298
   83MOL   C14328187   5.826   3.319   5.953  0.0405 -0.7756 -0.1795
   83MOL   C14428188   5.958   3.280   5.885 -0.7668  0.6005  0.3096
   83MOL   O14528189   6.021   3.354   5.813 -0.2490  0.2713  0.1293
   83MOL   H14628190   6.266   3.179   5.788 -0.0992 -0.3842 -0.4137
   83MOL   H14728191   6.215   3.241   5.949 -1.3250 -0.8629 -0.4079
   83MOL   H14828192   6.094   2.991   5.921  2.2004  0.0169  0.9657
   83MOL   H14928193   5.847   2.998   5.958  0.6734  0.4073  0.3687
   83MOL   H15028194   5.936   3.049   6.089  1.7732 -1.3162 -1.5362
   83MOL   H15128195   5.682   3.153   6.004  0.3005  0.5305 -0.9466
   83MOL   H15228196   5.769   3.216   6.139 -0.9822 -1.5628 -0.3292
   83MOL   H15328197   5.832   3.401   6.024  0.0686 -1.6094  0.7899
   83MOL   H15428198   5.753   3.346   5.877 -0.9979 -0.8859  0.7641
   83MOL   C15528199   6.075   3.047   5.711  0.1989 -1.0308  0.1841
   83MOL   C15628200   6.161   2.927   5.654  0.0773 -0.5608  0.2305
   83MOL   N15728201   6.126   2.799   5.709  0.6303  0.5720  0.0013
   83MOL   C15828202   6.236   2.730   5.771  0.0718 -0.7379  0.8802
   83MOL   C15928203   6.174   2.589   5.794  0.3276  0.5371  0.0220
   83MOL   C16028204   6.021   2.599   5.788  1.0392  0.9750 -0.3510
   83MOL   C16128205   6.010   2.741   5.722  0.8807 -0.0525  0.3788
   83MOL   O16228206   5.893   2.787   5.698 -0.3000 -0.5855 -0.4020
   83MOL   H16328207   6.104   3.136   5.653  2.0752 -2.7469 -1.6007
   83MOL   H16428208   5.968   3.031   5.698 -0.2353  2.4895 -1.2595
   83MOL   H16528209   6.261   2.955   5.685  0.0327  2.1304 -1.7965
   83MOL   H16628210   6.322   2.706   5.709 -0.6044 -2.5565  0.6193
   83MOL   H16728211   6.269   2.763   5.869 -2.5036  1.6605  1.0113
   83MOL   H16828212   6.202   2.519   5.715 -3.1674 -0.1059 -0.7255
   83MOL   H16928213   6.211   2.539   5.883  1.4321 -0.8898 -1.2210
   83MOL   H17028214   5.978   2.519   5.727  0.3926  1.0209  0.0475
   83MOL   H17128215   5.959   2.615   5.876  0.3769  0.6338 -0.7533
   83MOL   C17228216   6.153   2.937   5.500 -0.3027 -0.7635 -0.5357
   83MOL   C17328217   6.233   2.825   5.427 -1.0028  0.2764 -0.1300
   83MOL   N17428218   6.175   2.813   5.294  0.0815  0.0789  0.6527
   83MOL   C17528219   6.117   2.684   5.251 -0.4036 -0.1652 -0.1670
   83MOL   C17628220   6.105   2.693   5.103 -0.0057  0.1783  0.3427
   83MOL   C17728221   6.106   2.840   5.073  0.8498  0.4296  0.5476
   83MOL   C17828222   6.170   2.899   5.198 -0.3884 -0.2887 -0.5352
   83MOL   O17928223   6.218   3.013   5.201 -0.0699 -0.4003 -0.2704
   83MOL   H18028224   6.190   3.036   5.472  0.6550 -0.8242  0.4754
   83MOL   H18128225   6.046   2.924   5.481 -0.7708  0.9166  0.7667
   83MOL   H18228226   6.222   2.731   5.482  1.1914 -0.4117 -0.8326
   83MOL   H18328227   6.169   2.601   5.297  0.5040  0.6080  0.2062
   83MOL   H18428228   6.019   2.682   5.299 -1.7472  0.1761 -2.8300
   83MOL   H18528229   6.014   2.644   5.070 -0.7672  0.3412  2.1346
   83MOL   H18628230   6.196   2.652   5.060  0.1244  0.5569  0.2543
   83MOL   H18728231   6.162   2.865   4.983  1.9568 -0.6284  0.9276
   83MOL   H18828232   6.016   2.898   5.053  0.8346 -0.0333 -0.7593
   83MOL   C18928233   6.378   2.849   5.428 -0.1394 -0.3894 -0.0662
   83MOL   C19028234   6.460   2.771   5.329 -0.1016 -0.1577  0.4833
   83MOL   N19128235   6.589   2.835   5.308  0.2864  0.4758  0.3466
   83MOL   C19228236   6.695   2.844   5.405 -0.3025 -0.0212  0.0299
   83MOL   C19328237   6.809   2.905   5.328 -0.1191 -0.5027 -0.8508
   83MOL   C19428238   6.752   2.972   5.210 -0.6317  0.1241 -0.5768
   83MOL   C19528239   6.623   2.899   5.196  0.2180 -0.1617 -0.5892
   83MOL   O19628240   6.559   2.907   5.095 -0.0646 -0.2964 -0.1746
   83MOL   H19728241   6.405   2.822   5.531  1.5916  0.1073 -0.3619
   83MOL   H19828242   6.402   2.955   5.420 -0.1120 -0.2122  2.1338
   83MOL   H19928243   6.417   2.765   5.229  0.0016 -2.3622  0.5519
   83MOL   H20028244   6.652   2.914   5.477 -0.8290  1.0813 -1.3128
   83MOL   H20128245   6.715   2.750   5.456  2.7071  0.9705  0.7732
   83MOL   H20228246   6.857   2.968   5.403 -0.5662  0.9748 -1.7861
   83MOL   H20328247   6.881   2.830   5.295 -0.1813 -0.7569 -0.4085
   83MOL   H20428248   6.724   3.077   5.214 -1.6303 -0.2144  2.7198
   83MOL   H20528249   6.816   2.948   5.125 -2.0866 -0.3934 -1.5688
   83MOL   C20628250   6.474   2.620   5.380 -0.4768 -0.5985  0.1444
   83MOL   C20728251   6.508   2.525   5.268  0.5683 -0.2655  0.2553
   83MOL   N20828252   6.643   2.538   5.209  0.0689  0.6526 -0.2589
   83MOL   C20928253   6.662   2.565   5.069  0.3502 -0.1845 -0.4096
   83MOL   C21028254   6.805   2.535   5.039 -1.0194  0.4309 -1.0740
   83MOL   C21128255   6.877   2.525   5.174  0.6030 -0.1214  0.0848
   83MOL   C21228256   6.762   2.519   5.271  0.2083 -0.2098 -0.1832
   83MOL   O21328257   6.780   2.509   5.387  0.4790  0.2117 -0.2631
   83MOL   H21428258   6.373   2.598   5.414 -0.2966 -1.4586  0.1266
   83MOL   H21528259   6.542   2.615   5.464 -0.7276  0.9778  0.4646
   83MOL   H21628260   6.427   2.546   5.198  1.7619  1.0683 -0.7394
   83MOL   H21728261   6.600   2.508   5.000  1.3515 -0.3145 -1.2124
   83MOL   H21828262   6.653   2.672   5.053  0.8727  0.1937  1.6471
   83MOL   H21928263   6.825   2.456   4.966  2.0504  1.1835 -1.0927
   83MOL   H22028264   6.838   2.619   4.978  0.8893  1.5442  1.3952
   83MOL   H22128265   6.917   2.424   5.186 -2.2179 -1.2018  0.8134
   83MOL   H22228266   6.944   2.606   5.203  0.4977  0.0689 -0.2099
   83MOL   C22328267   6.482   2.386   5.330  0.0380  0.8393 -0.8480
   83MOL   C22428268   6.480   2.274   5.223 -0.8417  0.0977 -0.8856
   83MOL   N22528269   6.465   2.142   5.286  0.1355 -0.0316 -0.3327
   83MOL   C22628270   6.584   2.056   5.295  0.2821  0.9597 -0.1977
   83MOL   C22728271   6.545   1.949   5.388 -0.6746 -0.7158 -0.1118
   83MOL   C22828272   6.395   1.969   5.437  0.2180 -0.5756  0.4674
   83MOL   C22928273   6.363   2.098   5.361  0.1850 -0.2352 -0.2822
   83MOL   O23028274   6.256   2.161   5.369  0.2066  0.6356 -0.1751
   83MOL   H23128275   6.386   2.381   5.381  1.8625  3.3483  3.0224
   83MOL   H23228276   6.554   2.366   5.409  1.5699  3.0556 -1.6357
   83MOL   H23328277   6.577   2.281   5.174  1.0883  2.1586  3.0114
   83MOL   H23428278   6.596   2.005   5.199  1.2230  0.7744  0.0073
   83MOL   H23528279   6.676   2.107   5.324  0.7654 -1.0183  1.8749
   83MOL   H23628280   6.561   1.846   5.356  2.5805  0.4519 -2.5793
   83MOL   H23728281   6.602   1.967   5.480  0.3001  1.0275 -1.0248
   83MOL   H23828282   6.329   1.886   5.416 -0.9968  0.6749 -0.7623
   83MOL   H23928283   6.393   1.986   5.545  1.0976 -0.6412  0.4975
   83MOL   C24028284   6.378   2.297   5.107  0.6461 -0.4613 -0.4823
   83MOL   C24128285   6.366   2.195   5.007  0.1842  0.0049  0.0049
   83MOL   N24228286   6.250   2.215   4.918 -0.0225  0.0565 -0.6486
   83MOL   C24328287   6.121   2.158   4.956  0.4398 -0.1436 -0.3186
   83MOL   C24428288   6.016   2.232   4.870 -0.7458 -0.2165 -0.5805
   83MOL   C24528289   6.094   2.321   4.779 -1.3819 -0.1564  0.6301
   83MOL   C24628290   6.239   2.300   4.814 -0.3821  0.6013  0.2168
   83MOL   O24728291   6.339   2.358   4.764  0.3459 -0.9194 -0.0679
   83MOL   H24828292   6.406   2.387   5.051 -0.5798 -0.3120 -0.8653
   83MOL   H24928293   6.281   2.320   5.151  0.5373 -1.6719 -0.0778
   83MOL   H25028294   6.343   2.104   5.062 -0.3480 -1.1186 -1.9948
   83MOL   H25128295   6.137   2.058   4.917  0.9291  0.7160 -2.3584
   83MOL   H25228296   6.093   2.151   5.061  0.7725  0.5625 -0.1805
   83MOL   H25328297   5.955   2.179   4.797 -2.2821 -2.3344  2.1127
   83MOL   H25428298   5.952   2.300   4.926  0.0219 -1.2393  1.6181
   83MOL   H25528299   6.082   2.281   4.678 -1.4892  0.0272  0.5695
   83MOL   H25628300   6.092   2.428   4.796 -1.0410 -0.0267 -0.0951
   83MOL   C25728301   6.494   2.161   4.932  0.0093  0.3097 -0.1100
   83MOL   C25828302   6.477   2.032   4.838 -0.0020 -0.5999 -0.1483
   83MOL   N25928303   6.586   2.029   4.744  0.5004  0.2000  0.0982
   83MOL   C26028304   6.564   2.049   4.603 -0.0788  0.3548 -0.4688
   83MOL   C26128305   6.705   2.029   4.540 -0.4572  1.0748 -0.0002
   83MOL   C26228306   6.806   2.039   4.654  0.1715  0.2562 -0.2730
   83MOL   C26328307   6.715   2.028   4.776  0.1049  0.2021  0.3322
   83MOL   O26428308   6.747   2.030   4.892 -0.3915 -0.6034  0.1697
   83MOL   H26528309   6.575   2.151   5.004  0.1997 -0.2132 -0.3878
   83MOL   H26628310   6.538   2.245   4.877 -2.5346  1.0781 -1.0460
   83MOL   H26728311   6.386   2.049   4.781 -0.8937  0.8121  1.6292
   83MOL   H26828312   6.489   1.980   4.565  2.4228 -2.3112 -0.7831
   83MOL   H26928313   6.522   2.146   4.579  0.7657  0.6973 -0.5638
   83MOL   H27028314   6.710   1.933   4.489 -1.4568  1.3060 -0.5309
   83MOL   H27128315   6.725   2.116   4.477  1.4882  0.5319 -0.1662
   83MOL   H27228316   6.873   1.954   4.670 -0.9997 -0.7836 -0.8666
   83MOL   H27328317   6.848   2.139   4.646 -4.4509  2.3450  0.2460
   83MOL   C27428318   6.465   1.895   4.910  0.6646 -0.3201 -0.0645
   83MOL   C27528319   6.396   1.787   4.830 -0.2412 -0.6018 -0.1156
   83MOL   N27628320   6.410   1.654   4.887  0.2250 -0.6041 -0.0455
   83MOL   C27728321   6.500   1.562   4.816 -0.5518 -0.8836 -1.0003
   83MOL   C27828322   6.530   1.449   4.918 -0.4512  0.7602 -0.2111
   83MOL   C27928323   6.445   1.477   5.042  0.0077  0.2148  0.2100
   83MOL   C28028324   6.402   1.620   5.021 -0.0796 -0.0648  0.2086
   83MOL   O28128325   6.349   1.681   5.111  0.7864  0.2405  0.0302
   83MOL   H28228326   6.421   1.891   5.010 -0.1629  0.1359 -0.4064
   83MOL   H28328327   6.563   1.856   4.936  0.0625 -0.1033  2.6510
   83MOL   H28428328   6.444   1.801   4.733  0.0215  0.6787  0.1957
   83MOL   H28528329   6.447   1.528   4.728 -2.2236 -3.1885  0.8462
   83MOL   H28628330   6.595   1.610   4.791 -0.4840 -0.2810  0.3254
   83MOL   H28728331   6.522   1.351   4.872 -1.4921  1.5046 -1.6357
   83MOL   H28828332   6.635   1.455   4.947 -0.4592 -2.4640  0.6121
   83MOL   H28928333   6.359   1.411   5.056  0.5967 -0.4864  0.5921
   83MOL   H29028334   6.511   1.474   5.129 -0.7569 -4.0251  0.7706
   83MOL   C29128335   6.248   1.813   4.825 -0.0330  0.9376 -0.1375
   83MOL   C29228336   6.161   1.709   4.745 -0.1450 -0.6115  0.2714
   83MOL   N29328337   6.020   1.756   4.745 -0.2704  0.7732  0.1921
   83MOL   C29428338   5.909   1.666   4.794  0.5214 -0.5418  0.0349
   83MOL   C29528339   5.779   1.721   4.732  0.3152 -0.3034  0.4153
   83MOL   C29628340   5.811   1.857   4.682 -0.2126 -0.0243  0.6061
   83MOL   C29728341   5.963   1.856   4.679 -0.0523 -0.0259 -0.9768
   83MOL   O29828342   6.021   1.942   4.615 -0.3162  0.0207  0.1698
   83MOL   H29928343   6.225   1.908   4.777 -0.1124  1.3555  0.7365
   83MOL   H30028344   6.200   1.801   4.922 -0.4168  2.0922 -0.1841
   83MOL   H30128345   6.160   1.609   4.789  0.2231 -0.5422  0.4442
   83MOL   H30228346   5.919   1.562   4.763  2.1324 -0.9430  1.7518
   83MOL   H30328347   5.895   1.668   4.902 -1.1779  0.2677 -0.1880
   83MOL   H30428348   5.752   1.660   4.646  0.5928  1.7738 -1.1849
   83MOL   H30528349   5.693   1.738   4.798 -0.1467  0.8661 -0.4723
   83MOL   H30628350   5.783   1.867   4.577 -1.1003 -0.7634  0.7726
   83MOL   H30728351   5.778   1.940   4.746  0.9021  1.4332 -0.6612
   83MOL   C30828352   6.212   1.682   4.599  0.4424 -0.6834  0.3584
   83MOL   C30928353   6.117   1.610   4.503 -0.1485  0.7329  0.0514
   83MOL   N31028354   6.126   1.681   4.370  0.3995 -0.3878  0.1399
   83MOL   C31128355   6.007   1.730   4.295 -0.1576 -0.1444 -0.7628
   83MOL   C31228356   6.058   1.831   4.189  0.4270  0.2209 -0.8385
   83MOL   C31328357   6.210   1.826   4.205  0.1337 -0.2159  0.1368
   83MOL   C31428358   6.235   1.716   4.306 -0.3815  0.0209  0.1019
   83MOL   O31528359   6.347   1.673   4.328  0.0465 -0.4357 -0.2698
   83MOL   H31628360   6.315   1.646   4.597  0.5946 -0.2438  0.1450
   83MOL   H31728361   6.221   1.789   4.581 -0.6304 -0.6030  0.2612
   83MOL   H31828362   6.016   1.614   4.544  0.4901  0.9862  1.6329
   83MOL   H31928363   5.944   1.645   4.273 -0.1692 -0.7307  1.4018
   83MOL   H32028364   5.941   1.783   4.365 -1.6540 -1.6473 -1.0116
   83MOL   H32128365   6.039   1.787   4.091  1.6240 -4.1568  0.7615
   83MOL   H32228366   6.009   1.928   4.201 -0.4920 -0.2536 -0.6935
   83MOL   H32328367   6.274   1.805   4.119  1.5023 -2.2004  1.5700
   83MOL   H32428368   6.237   1.924   4.245 -0.9504 -0.6259  1.9451
   83MOL   C32528369   6.155   1.466   4.484  0.0491  0.4975  0.2549
   83MOL   C32628370   6.089   1.381   4.599  0.4703 -0.5507  0.9672
   83MOL   N32728371   6.177   1.261   4.611  0.0152 -0.9558  0.0830
   83MOL   C32828372   6.191   1.168   4.506  0.0682  0.6185 -0.0748
   83MOL   C32928373   6.285   1.056   4.556  0.1953 -0.0916  0.7588
   83MOL   C33028374   6.323   1.101   4.699  0.0172  0.4964 -0.1985
   83MOL   C33128375   6.249   1.232   4.720 -0.3534  0.3110 -0.9102
   83MOL   O33228376   6.260   1.295   4.826  0.1610 -0.0250  0.3231
   83MOL   H33328377   6.262   1.446   4.475  0.2851  1.9135 -0.1242
   83MOL   H33428378   6.121   1.431   4.387  0.5736  0.4534  0.0821
   83MOL   H33528379   5.991   1.343   4.573  0.3394 -0.9277  2.0073
   83MOL   H33628380   6.095   1.125   4.479  0.5108  0.2151 -1.0455
   83MOL   H33728381   6.226   1.208   4.410 -2.3695  0.9438 -0.8495
   83MOL   H33828382   6.229   0.962   4.556 -1.8751  1.0940 -0.8162
   83MOL   H33928383   6.377   1.051   4.499  0.9728  1.1266  1.8865
   83MOL   H34028384   6.297   1.028   4.776 -1.3175  0.5989 -0.5295
   83MOL   H34128385   6.431   1.114   4.692 -0.1465  1.0238 -1.7996
   83MOL   H34228386   6.080   1.435   4.693 -2.2799 -0.7056  0.8227
   84MOL     C128387   1.750   6.622   1.851 -1.0502  0.1009 -0.2223
   84MOL     C228388   1.675   6.757   1.833 -0.1560  0.7936 -0.0974
   84MOL     N328389   1.644   6.786   1.689  0.4646  0.0636 -0.2672
   84MOL     C428390   1.543   6.707   1.613 -0.2634  0.2192 -0.5555
   84MOL     C528391   1.547   6.756   1.468 -0.7464 -0.3592  0.0877
   84MOL     C628392   1.673   6.843   1.462 -0.8573 -0.1003 -0.2042
   84MOL     C728393   1.716   6.863   1.604  0.4125  0.4379  0.2406
   84MOL     O828394   1.814   6.932   1.633  0.1384 -0.0951 -0.3398
   84MOL     H928395   1.809   6.584   1.768 -0.1745  0.3308  0.2865
   84MOL    H1028396   1.824   6.628   1.931 -0.3832  2.7426 -1.0020
   84MOL    H1128397   1.741   6.840   1.857  1.3556 -0.3912 -0.0909
   84MOL    H1228398   1.563   6.600   1.618 -1.6201 -0.1894 -3.1625
   84MOL    H1328399   1.444   6.721   1.658 -0.1016 -4.1843  1.4256
   84MOL    H1428400   1.537   6.673   1.398 -1.7792  0.2108 -0.4513
   84MOL    H1528401   1.456   6.813   1.450 -0.5917 -0.0899  0.1510
   84MOL    H1628402   1.765   6.796   1.426  1.2856  4.1386 -0.5666
   84MOL    H1728403   1.659   6.936   1.408 -0.6816  0.0969  0.0899
   84MOL    H1828404   1.685   6.544   1.891  1.5658 -1.1702  1.7325
   84MOL    C1928405   1.551   6.748   1.926 -0.0182  0.1722  0.3714
   84MOL    C2028406   1.466   6.878   1.928  0.2258 -0.0457 -0.6466
   84MOL    N2128407   1.329   6.842   1.879 -0.8078  0.1710  0.6209
   84MOL    C2228408   1.280   6.898   1.754  0.4691 -0.1402  0.5389
   84MOL    C2328409   1.152   6.821   1.727 -0.4195  0.0762  0.6385
   84MOL    C2428410   1.117   6.750   1.858 -0.3393  0.6146  0.3711
   84MOL    C2528411   1.238   6.765   1.944  0.1457  0.2996 -0.3582
   84MOL    O2628412   1.247   6.710   2.048  0.3791  0.1378 -0.0482
   84MOL    H2728413   1.568   6.721   2.030 -0.6754 -2.6242 -0.1886
   84MOL    H2828414   1.484   6.673   1.883 -0.5983  0.8906  0.0133
   84MOL    H2928415   1.514   6.939   1.852  2.2313 -0.5240  0.2031
   84MOL    H3028416   1.249   7.002   1.768  1.7657  0.1277  1.5566
   84MOL    H3128417   1.347   6.913   1.670 -0.9387  0.8964 -0.4139
   84MOL    H3228418   1.074   6.879   1.680 -0.4613 -2.0261 -1.9991
   84MOL    H3328419   1.179   6.747   1.652 -2.7551  0.5791 -0.7247
   84MOL    H3428420   1.042   6.795   1.923 -0.1600 -0.9140  1.6727
   84MOL    H3528421   1.095   6.647   1.829  1.6572 -0.0560  1.1051
   84MOL    C3628422   1.462   6.963   2.060 -0.5179  0.4194  0.1568
   84MOL    C3728423   1.607   7.006   2.099 -0.5788  0.2815 -0.0860
   84MOL    N3828424   1.644   7.130   2.012  0.4522 -0.6098  0.2063
   84MOL    C3928425   1.780   7.121   1.955  0.1613  0.3650  0.0621
   84MOL    C4028426   1.804   7.256   1.881 -0.4958  0.6961 -0.0645
   84MOL    C4128427   1.696   7.346   1.932  0.7103 -0.2729 -0.2830
   84MOL    C4228428   1.591   7.253   2.001  0.1360 -0.4306  0.2430
   84MOL    O4328429   1.478   7.284   2.035 -0.0206 -0.2611 -1.1580
   84MOL    H4428430   1.421   6.907   2.144  0.8433 -0.6691  0.1015
   84MOL    H4528431   1.389   7.044   2.058 -0.6703  0.2508 -1.8879
   84MOL    H4628432   1.676   6.923   2.082 -0.2981  0.7630 -1.4410
   84MOL    H4728433   1.860   7.114   2.029 -1.6239  0.5821  2.0494
   84MOL    H4828434   1.795   7.045   1.878 -1.9128 -0.2598  0.2639
   84MOL    H4928435   1.904   7.295   1.900 -0.3324  1.7304 -2.7967
   84MOL    H5028436   1.793   7.231   1.776 -1.1275  0.4613  0.0567
   84MOL    H5128437   1.737   7.421   1.999 -0.1289  0.0532 -0.1231
   84MOL    H5228438   1.645   7.411   1.861 -0.1103  0.2296  0.7386
   84MOL    C5328439   1.623   7.035   2.257  0.0244  0.3873 -0.0655
   84MOL    C5428440   1.607   6.913   2.360 -0.6189 -0.0771  0.1603
   84MOL    N5528441   1.692   6.801   2.318  0.6152  0.0821  0.4091
   84MOL    C5628442   1.641   6.664   2.309 -0.4910  0.5200 -0.1238
   84MOL    C5728443   1.753   6.577   2.263  0.2462  0.7402 -0.6600
   84MOL    C5828444   1.881   6.664   2.262 -0.4300 -0.4105  0.0575
   84MOL    C5928445   1.824   6.806   2.299 -0.1927 -0.5440 -0.3427
   84MOL    O6028446   1.895   6.901   2.312 -0.0953  0.1600 -0.3325
   84MOL    H6128447   1.562   7.119   2.288  0.3146  1.3646 -2.0497
   84MOL    H6228448   1.722   7.082   2.261 -0.0351  0.4441  0.7984
   84MOL    H6328449   1.510   6.866   2.346 -1.3786  1.2830  0.7923
   84MOL    H6428450   1.622   6.639   2.413 -1.4499  1.3552 -0.0851
   84MOL    H6528451   1.556   6.672   2.241 -1.4617 -0.8720  0.9095
   84MOL    H6628452   1.765   6.487   2.324  0.4327  1.3874  0.2582
   84MOL    H6728453   1.747   6.545   2.159  4.5177 -2.3772 -0.1069
   84MOL    H6828454   1.957   6.632   2.333 -2.7326 -0.6387  2.5328
   84MOL    H6928455   1.918   6.669   2.160  0.3264 -0.1016  0.3446
   84MOL    C7028456   1.633   6.961   2.503 -0.0259 -0.1526 -0.1913
   84MOL    C7128457   1.511   7.029   2.569  0.3179 -0.3098 -0.4815
   84MOL    N7228458   1.390   6.945   2.574 -0.0500 -0.1940  0.3725
   84MOL    C7328459   1.266   6.991   2.512  0.0022 -0.8780  0.7998
   84MOL    C7428460   1.159   6.895   2.559 -0.4720 -0.0254 -0.2922
   84MOL    C7528461   1.237   6.768   2.611 -0.0770 -0.3388 -0.3457
   84MOL    C7628462   1.374   6.829   2.635  0.4311  0.1535 -0.4344
   84MOL    O7728463   1.459   6.771   2.701  0.7099 -0.4173  0.3747
   84MOL    H7828464   1.719   7.028   2.510 -0.1021 -0.1828  1.1259
   84MOL    H7928465   1.669   6.884   2.571  1.6557  0.4231 -0.4064
   84MOL    H8028466   1.496   7.119   2.510 -0.4353 -0.7592 -0.9831
   84MOL    H8128467   1.248   7.093   2.546 -1.7894 -1.9948  3.3295
   84MOL    H8228468   1.260   6.989   2.403  0.5956 -1.8536  0.7810
   84MOL    H8328469   1.105   6.934   2.645  1.1122 -0.2256  0.8255
   84MOL    H8428470   1.080   6.865   2.491 -1.3204  1.3735  0.0711
   84MOL    H8528471   1.195   6.726   2.702  0.9546  0.9508  0.7379
   84MOL    H8628472   1.253   6.693   2.534 -1.7159 -1.3080  0.2331
   84MOL    C8728473   1.546   7.081   2.710 -0.1473  0.5108 -0.3152
   84MOL    C8828474   1.436   7.130   2.808 -0.7649  0.3192 -0.0939
   84MOL    N8928475   1.477   7.142   2.954  0.5268  0.1770 -0.3389
   84MOL    C9028476   1.620   7.124   2.987 -0.6993 -0.9316  0.0590
   84MOL    C9128477   1.636   7.167   3.130  0.1035  0.1184 -0.6032
   84MOL    C9228478   1.497   7.210   3.180 -0.4873 -0.4473 -0.0314
   84MOL    C9328479   1.409   7.181   3.061 -0.2112 -0.8540 -0.2336
   84MOL    O9428480   1.290   7.189   3.069  0.0329  0.3097 -0.7878
   84MOL    H9528481   1.630   7.151   2.707  0.9256 -0.7675 -0.8957
   84MOL    H9628482   1.592   6.997   2.761  0.9359  1.3835  0.1698
   84MOL    H9728483   1.361   7.051   2.819 -1.1504  0.5662 -0.9060
   84MOL    H9828484   1.665   7.027   2.967 -0.1898 -0.8710  0.8999
   84MOL    H9928485   1.687   7.191   2.932 -0.6847 -0.1007  1.0691
   84MOL   H10028486   1.673   7.077   3.181 -0.6654  1.1319  1.8021
   84MOL   H10128487   1.712   7.245   3.136  1.1700 -0.9576  0.2248
   84MOL   H10228488   1.463   7.159   3.269 -1.7205  1.8003  0.8225
   84MOL   H10328489   1.499   7.317   3.202 -0.1712 -0.6857  1.1563
   84MOL   C10428490   1.355   7.245   2.753  0.1727 -0.5099  0.4721
   84MOL   C10528491   1.390   7.391   2.804 -0.4505  0.6836  0.1762
   84MOL   N10628492   1.529   7.432   2.775  0.5929 -0.3577 -0.0114
   84MOL   C10728493   1.610   7.504   2.875 -0.1819  0.2276  0.0593
   84MOL   C10828494   1.750   7.536   2.827  0.2320 -0.0025  0.5396
   84MOL   C10928495   1.741   7.474   2.687  0.1079 -0.3514  0.3204
   84MOL   C11028496   1.601   7.421   2.664  0.9605 -0.0174 -0.1385
   84MOL   O11128497   1.559   7.375   2.556  0.5653  0.1012 -0.6621
   84MOL   H11228498   1.251   7.224   2.778 -0.3781  0.4535 -0.8950
   84MOL   H11328499   1.348   7.252   2.644  0.6273 -0.2412  0.4583
   84MOL   H11428500   1.391   7.408   2.912  0.4662 -0.9282  0.4336
   84MOL   H11528501   1.554   7.594   2.901 -0.1205  0.1702  0.4026
   84MOL   H11628502   1.604   7.446   2.967  0.3511 -0.1920 -0.1656
   84MOL   H11728503   1.783   7.639   2.839  0.4919 -0.3201  2.8682
   84MOL   H11828504   1.822   7.484   2.890  0.3069  0.2780  0.6870
   84MOL   H11928505   1.817   7.402   2.657  1.2213  1.1040 -0.4196
   84MOL   H12028506   1.762   7.546   2.608  1.1324 -0.2433  0.6764
   84MOL   C12128507   1.301   7.496   2.736  0.1151 -0.3698 -0.7125
   84MOL   C12228508   1.154   7.494   2.786  0.6788 -0.4522 -0.2119
   84MOL   N12328509   1.137   7.542   2.925  0.0249 -0.0007 -0.1674
   84MOL   C12428510   1.080   7.459   3.029 -0.7237 -0.6426  0.5377
   84MOL   C12528511   1.054   7.553   3.145  0.3716  0.3098 -0.4049
   84MOL   C12628512   1.143   7.676   3.115  0.6270 -0.1818  0.0310
   84MOL   C12728513   1.158   7.667   2.966 -0.6737  0.5121  0.6358
   84MOL   O12828514   1.188   7.766   2.905 -0.2240 -0.1471  0.3689
   84MOL   H12928515   1.280   7.461   2.635 -1.0392 -0.0762 -0.5759
   84MOL   H13028516   1.335   7.600   2.736  0.7243 -0.5348  1.0706
   84MOL   H13128517   1.111   7.394   2.785 -2.7479  0.9245 -2.3918
   84MOL   H13228518   1.162   7.395   3.061 -0.7947 -0.4012  1.2109
   84MOL   H13328519   0.989   7.410   2.993 -1.2562  1.3620 -0.9752
   84MOL   H13428520   0.946   7.564   3.151  0.2342 -1.1679  0.2989
   84MOL   H13528521   1.084   7.506   3.240 -1.2301  0.2825  0.0982
   84MOL   H13628522   1.094   7.769   3.142  3.7407  1.4629  0.1135
   84MOL   H13728523   1.239   7.673   3.165  0.0806 -2.1505  1.0094
   84MOL   C13828524   1.073   7.585   2.696  0.1656  0.2047 -0.8523
   84MOL   C13928525   1.016   7.514   2.563  0.4843  0.3025  0.0725
   84MOL   N14028526   0.932   7.400   2.597 -0.3438  0.0040 -0.4168
   84MOL   C14128527   0.973   7.262   2.558  1.0084 -0.1912 -0.1148
   84MOL   C14228528   0.887   7.167   2.650 -0.1226 -0.8692 -0.2616
   84MOL   C14328529   0.774   7.253   2.707  0.2996 -0.0686  1.1615
   84MOL   C14428530   0.827   7.398   2.683  0.0802  0.5833 -0.2501
   84MOL   O14528531   0.777   7.500   2.726  0.2230  0.5445 -0.2815
   84MOL   H14628532   1.145   7.657   2.656  0.5094 -0.2091 -0.9783
   84MOL   H14728533   0.987   7.638   2.737  1.2880 -0.2798  2.2446
   84MOL   H14828534   1.098   7.466   2.510  0.7029  0.3822  0.3371
   84MOL   H14928535   0.949   7.236   2.455 -1.4622 -2.2988  0.9457
   84MOL   H15028536   1.079   7.248   2.582  1.5273 -0.6984 -2.5744
   84MOL   H15128537   0.851   7.079   2.596 -0.3070 -0.8467 -0.1759
   84MOL   H15228538   0.948   7.145   2.737 -0.4577  1.5118  0.6022
   84MOL   H15328539   0.737   7.231   2.808 -2.7119 -1.3188 -0.1490
   84MOL   H15428540   0.690   7.250   2.637  0.0279  2.4557  1.3172
   84MOL   C15528541   0.944   7.611   2.471 -0.9980  0.2240 -0.8649
   84MOL   C15628542   1.035   7.715   2.406  0.0019 -0.1801  0.5676
   84MOL   N15728543   1.140   7.646   2.325 -0.4619  0.5075 -0.0411
   84MOL   C15828544   1.286   7.679   2.340 -0.0690  0.2333  0.0574
   84MOL   C15928545   1.363   7.591   2.241 -0.1597 -0.0436 -0.4401
   84MOL   C16028546   1.261   7.498   2.176 -0.5162  0.1974 -0.7297
   84MOL   C16128547   1.125   7.548   2.234 -0.2309 -0.1156  0.2451
   84MOL   O16228548   1.016   7.499   2.202 -0.5246  0.2096  0.1365
   84MOL   H16328549   0.869   7.669   2.525 -1.6345 -3.0246  1.8718
   84MOL   H16428550   0.888   7.559   2.394  0.1597  1.3421 -2.4868
   84MOL   H16528551   1.089   7.777   2.477  0.9906  0.8223 -1.0214
   84MOL   H16628552   1.295   7.785   2.315  0.8910  0.3823  0.9867
   84MOL   H16728553   1.319   7.676   2.444 -1.2970  0.5799  0.4635
   84MOL   H16828554   1.423   7.642   2.167  0.2634  0.1084  0.0083
   84MOL   H16928555   1.438   7.538   2.300 -1.0190  0.4321  1.1388
   84MOL   H17028556   1.247   7.511   2.069 -3.3090  1.4260 -0.2622
   84MOL   H17128557   1.284   7.394   2.195  1.4264  0.7442  0.0266
   84MOL   C17228558   0.961   7.816   2.309  0.6398 -0.3400  0.3245
   84MOL   C17328559   0.843   7.896   2.363 -0.6547 -0.8046 -1.2029
   84MOL   N17428560   0.874   0.046   2.499 -0.0787  0.0068 -0.5425
   84MOL   C17528561   0.775   0.046   2.607  0.0066 -0.4282  0.1553
   84MOL   C17628562   0.816   0.145   2.715 -0.3361 -0.8309 -0.7706
   84MOL   C17728563   0.952   0.189   2.668  0.3075  0.1182  0.0509
   84MOL   C17828564   0.971   0.133   2.526 -0.5368 -0.3055 -1.3377
   84MOL   O17928565   1.066   0.161   2.448 -0.3476  0.4660 -0.4892
   84MOL   H18028566   0.930   7.770   2.215 -0.8154  0.4461  0.4008
   84MOL   H18128567   1.041   7.886   2.288  0.4575  0.3089  1.7740
   84MOL   H18228568   0.759   7.827   2.374 -1.5180  0.4671  0.4220
   84MOL   H18328569   0.673   0.062   2.572  0.7124 -2.1412 -2.8413
   84MOL   H18428570   0.771   7.851   2.649  0.5929 -0.4765  0.0895
   84MOL   H18528571   0.813   0.105   2.816 -0.5462  0.9986 -0.0288
   84MOL   H18628572   0.750   0.232   2.716 -1.8598 -1.9623 -1.7369
   84MOL   H18728573   0.967   0.297   2.679 -0.5427  0.1879  0.6237
   84MOL   H18828574   1.030   0.147   2.732  0.1124 -0.1932  0.0851
   84MOL   C18928575   0.812   0.096   2.253  0.6874 -0.6011 -0.1848
   84MOL   C19028576   0.728   0.212   2.290 -0.4729 -0.4905 -0.0485
   84MOL   N19128577   0.738   0.319   2.197 -0.4555 -0.5043  0.0358
   84MOL   C19228578   0.833   0.424   2.216 -0.3248  0.1162 -0.5798
   84MOL   C19328579   0.847   0.504   2.084  0.5167  0.1879 -0.6159
   84MOL   C19428580   0.737   0.452   1.993  0.2996 -0.5061  1.0979
   84MOL   C19528581   0.671   0.341   2.071  1.0424 -0.1105  0.8291
   84MOL   O19628582   0.576   0.268   2.034  0.0589 -1.0130 -0.0669
   84MOL   H19728583   0.775   0.052   2.160  3.1087 -1.5272 -0.7649
   84MOL   H19828584   0.903   0.147   2.219  0.0704 -0.4836 -1.7095
   84MOL   H19928585   0.759   0.241   2.391 -0.3183 -0.6052 -0.0638
   84MOL   H20028586   0.792   0.492   2.291 -0.6144  0.0985 -0.7235
   84MOL   H20128587   0.935   0.395   2.241 -0.5058 -0.5408 -0.6055
   84MOL   H20228588   0.822   0.608   2.103 -2.8883 -0.8847  1.2935
   84MOL   H20328589   0.947   0.487   2.044  0.7653 -0.0955  0.1180
   84MOL   H20428590   0.669   0.527   1.955  2.0004  0.1031 -0.8767
   84MOL   H20528591   0.762   0.409   1.896  0.9702 -0.5419  1.2785
   84MOL   C20628592   0.582   0.173   2.321 -0.9157  0.2559  0.0251
   84MOL   C20728593   0.487   0.278   2.384  0.1925  0.0888 -0.2558
   84MOL   N20828594   0.349   0.230   2.392  0.4312  0.1945  0.1817
   84MOL   C20928595   0.243   0.259   2.297 -0.2528 -0.5999  0.2603
   84MOL   C21028596   0.119   0.189   2.350 -0.3147 -0.5845  0.0200
   84MOL   C21128597   0.160   0.107   2.477  0.8980 -0.3805 -0.4690
   84MOL   C21228598   0.313   0.141   2.480 -0.5094  0.1011 -0.1451
   84MOL   O21328599   0.385   0.078   2.553 -0.4328  0.2800  0.2945
   84MOL   H21428600   0.583   0.078   2.374 -1.1748 -0.0223 -0.4631
   84MOL   H21528601   0.538   0.140   2.227  1.6654 -2.6732 -0.2004
   84MOL   H21628602   0.479   0.363   2.317 -1.1317  0.5781  0.5148
   84MOL   H21728603   0.227   0.367   2.289 -0.6996 -0.7728 -1.3386
   84MOL   H21828604   0.277   0.230   2.198 -1.7900 -1.1623 -0.1171
   84MOL   H21928605   0.043   0.260   2.381 -0.9741 -1.5590  0.6717
   84MOL   H22028606   0.071   0.115   2.286  0.7568 -0.6968 -0.6618
   84MOL   H22128607   0.110   0.148   2.565  2.0951  0.3377 -0.1164
   84MOL   H22228608   0.138   0.000   2.468 -0.4877 -0.0219 -1.4992
   84MOL   C22328609   0.540   0.330   2.516 -0.3257 -0.0515 -0.6257
   84MOL   C22428610   0.448   0.413   2.609 -0.5626  0.4542  0.1819
   84MOL   N22528611   0.523   0.450   2.733  0.0335 -0.0173  0.5343
   84MOL   C22628612   0.460   0.411   2.859 -0.1314  0.1301 -0.4029
   84MOL   C22728613   0.559   0.455   2.969  0.8631  0.4944 -0.5468
   84MOL   C22828614   0.674   0.537   2.905  0.7462  0.2013  0.2173
   84MOL   C22928615   0.646   0.509   2.753 -0.1922 -0.5863  0.3838
   84MOL   O23028616   0.727   0.551   2.667 -0.5016 -0.4566  0.0637
   84MOL   H23128617   0.638   0.378   2.504 -0.4919  0.5494  0.3012
   84MOL   H23228618   0.569   0.241   2.571  1.7622 -0.4920 -2.3822
   84MOL   H23328619   0.370   0.347   2.646 -1.0634  0.4242 -0.8928
   84MOL   H23428620   0.360   0.453   2.866 -0.0417  0.2363  0.3613
   84MOL   H23528621   0.453   0.303   2.872  0.6213  0.2166  0.8785
   84MOL   H23628622   0.508   0.516   3.043 -1.2093 -0.2024 -1.3515
   84MOL   H23728623   0.598   0.366   3.018  3.3520  2.1821  0.6058
   84MOL   H23828624   0.663   0.640   2.939 -2.2835 -0.4933  1.4399
   84MOL   H23928625   0.773   0.505   2.937 -0.8120 -2.6356  2.3538
   84MOL   C24028626   0.399   0.537   2.547 -0.7392 -0.5244  0.0089
   84MOL   C24128627   0.303   0.622   2.640  0.5076 -0.5909  0.5888
   84MOL   N24228628   0.279   0.756   2.582 -0.4204 -0.3218  0.3251
   84MOL   C24328629   0.303   0.883   2.658 -0.3582 -0.0983  0.6631
   84MOL   C24428630   0.280   0.998   2.561  0.1044  0.1791  0.2618
   84MOL   C24528631   0.225   0.931   2.433 -0.0395  0.1752  0.5741
   84MOL   C24628632   0.227   0.783   2.465  0.4416  0.2706  0.0052
   84MOL   O24728633   0.196   0.693   2.390 -0.3826 -0.0435 -0.3593
   84MOL   H24828634   0.341   0.504   2.461 -0.0885 -0.7404 -0.3509
   84MOL   H24928635   0.481   0.597   2.507 -0.3659 -0.9705  0.1054
   84MOL   H25028636   0.361   0.646   2.730  1.5597  0.1387 -0.2647
   84MOL   H25128637   0.221   0.896   2.729 -0.5833  0.4784  0.3003
   84MOL   H25228638   0.399   0.886   2.710  1.0961  2.3238 -2.0088
   84MOL   H25328639   0.222   1.074   2.614 -0.1297  0.5879 -0.5553
   84MOL   H25428640   0.375   1.040   2.529  0.0918 -1.2205 -1.6958
   84MOL   H25528641   0.124   0.954   2.398  0.4390 -1.0214 -1.7035
   84MOL   H25628642   0.289   0.944   2.346 -2.3144 -0.6020 -1.2886
   84MOL   C25728643   0.167   0.558   2.677 -0.4857 -0.0526  0.3732
   84MOL   C25828644   0.067   0.639   2.771  0.3053 -0.0443 -0.3916
   84MOL   N25928645   7.838   0.578   2.786  0.3356 -0.2171  0.8720
   84MOL   C26028646   7.705   0.642   2.770  0.1665 -0.3342  0.9874
   84MOL   C26128647   7.599   0.541   2.786  0.1186  0.0753  0.3505
   84MOL   C26228648   7.671   0.412   2.841 -0.1036 -0.0494 -0.0013
   84MOL   C26328649   7.822   0.451   2.838 -0.0558  0.0176  0.0660
   84MOL   O26428650   0.009   0.381   2.878  0.6505  0.4426  0.5217
   84MOL   H26528651   0.178   0.458   2.719 -1.6078  0.6365  2.3659
   84MOL   H26628652   0.126   0.521   2.583  2.1269  0.5298 -1.0468
   84MOL   H26728653   0.040   0.737   2.731  1.2398  0.1801 -0.4859
   84MOL   H26828654   7.705   0.725   2.842  0.7791 -1.0788  1.8525
   84MOL   H26928655   7.702   0.677   2.667 -1.9721 -2.7181  0.1994
   84MOL   H27028656   7.524   0.574   2.857 -1.1721  0.2570 -1.0833
   84MOL   H27128657   7.536   0.522   2.699 -0.3135  0.4620  0.5821
   84MOL   H27228658   7.640   0.399   2.945 -0.9927 -1.0179 -0.3853
   84MOL   H27328659   7.653   0.319   2.787  0.8522 -0.0603 -0.3070
   84MOL   C27428660   0.138   0.664   2.901 -0.1074 -0.2669  0.2322
   84MOL   C27528661   0.061   0.727   3.022 -0.2208  0.0338  0.2879
   84MOL   N27628662   0.147   0.696   3.139  0.5713  0.0781 -0.0361
   84MOL   C27728663   0.102   0.586   3.230 -0.7706 -0.1161 -0.3982
   84MOL   C27828664   0.203   0.587   3.343  0.2426 -0.4216 -0.0259
   84MOL   C27928665   0.326   0.667   3.288  0.0723 -0.2631  0.3269
   84MOL   C28028666   0.273   0.741   3.169 -0.2492 -0.7274  0.3071
   84MOL   O28128667   0.339   0.827   3.111 -0.2275  0.4887  0.2345
   84MOL   H28228668   0.228   0.724   2.891 -0.0038 -0.4540  0.0277
   84MOL   H28328669   0.176   0.568   2.935  0.7086  0.5897  1.7793
   84MOL   H28428670   7.876   0.667   3.013  0.4235 -0.9540  0.3149
   84MOL   H28528671   0.001   0.610   3.264 -0.7238  0.2149 -0.4923
   84MOL   H28628672   0.107   0.500   3.164 -1.8373 -0.8825  0.4932
   84MOL   H28728673   0.158   0.639   3.427 -0.0368 -1.3238  0.3853
   84MOL   H28828674   0.223   0.487   3.380  1.1446 -0.6171 -1.0106
   84MOL   H28928675   0.351   0.747   3.358  0.3547 -1.7980  2.0089
   84MOL   H29028676   0.404   0.598   3.259 -1.0496 -1.6388  0.5153
   84MOL   C29128677   0.045   0.885   2.988 -0.0474  1.1044 -0.1240
   84MOL   C29228678   7.829   0.953   3.044  0.6367  0.2671  0.2514
   84MOL   N29328679   7.831   0.950   3.188  0.2106 -0.1764 -1.0233
   84MOL   C29428680   0.012   1.040   3.267  0.0322  0.7993  0.5257
   84MOL   C29528681   7.888   1.004   3.407 -0.0665  0.6011  0.5653
   84MOL   C29628682   7.782   0.900   3.404  0.0635 -0.6276 -0.4627
   84MOL   C29728683   7.761   0.868   3.262 -0.5846 -0.1043 -0.3687
   84MOL   O29828684   7.689   0.779   3.220 -0.3004  0.2192 -0.4247
   84MOL   H29928685   0.025   0.893   2.881 -1.8153  2.5687  0.2818
   84MOL   H30028686   0.135   0.939   3.014  2.0652 -2.0591 -0.6130
   84MOL   H30128687   7.747   0.895   3.002  2.2913 -0.8393 -1.5592
   84MOL   H30228688   0.116   1.011   3.250 -0.2651 -0.0983  0.2013
   84MOL   H30328689   0.008   1.147   3.246 -1.6375  0.4193 -1.2694
   84MOL   H30428690   0.070   0.966   3.459  0.9742  0.7898 -1.0081
   84MOL   H30528691   7.852   1.091   3.461 -0.6025  0.4761  0.4155
   84MOL   H30628692   7.811   0.808   3.454 -0.9809  0.5990  2.5263
   84MOL   H30728693   7.693   0.941   3.451  1.9946  1.2750  1.7077
   84MOL   C30828694   7.800   1.095   2.995  0.2921 -0.6007 -0.4589
   84MOL   C30928695   7.760   1.113   2.847 -0.1429  0.2371 -0.4042
   84MOL   N31028696   7.645   1.036   2.795 -0.5825  0.1608 -0.8332
   84MOL   C31128697   7.650   0.973   2.661  0.2602  0.0810  0.1716
   84MOL   C31228698   7.515   0.908   2.644  0.2341  0.3175  0.0081
   84MOL   C31328699   7.434   0.956   2.761  0.0144 -0.7284 -0.0510
   84MOL   C31428700   7.524   1.025   2.853 -0.7187  0.0071  0.4512
   84MOL   O31528701   7.489   1.067   2.959 -0.2896  0.3820  0.3756
   84MOL   H31628702   7.892   1.152   3.006 -1.0433  1.2889  1.3727
   84MOL   H31728703   7.718   1.142   3.049  0.1720 -0.6316 -0.6137
   84MOL   H31828704   7.851   1.080   2.796  1.3235 -0.6383  2.6449
   84MOL   H31928705   7.658   1.042   2.577 -1.3601 -1.7104 -1.4975
   84MOL   H32028706   7.731   0.901   2.658  1.0298  0.9164  0.5853
   84MOL   H32128707   7.468   0.947   2.553 -0.0289 -0.4383 -0.1840
   84MOL   H32228708   7.514   0.799   2.638  1.3771  0.2870  0.3368
   84MOL   H32328709   7.357   1.030   2.739  1.6554  0.9413 -0.3256
   84MOL   H32428710   7.397   0.872   2.819  0.3877  0.0657  1.3855
   84MOL   C32528711   7.732   1.265   2.811  0.0576  0.5199 -0.2027
   84MOL   C32628712   7.864   1.351   2.785  0.3484 -0.1040  0.1211
   84MOL   N32728713   7.882   1.387   2.647  0.7234 -0.0341  1.0002
   84MOL   C32828714   7.906   1.528   2.619  0.1553 -0.5726  1.3719
   84MOL   C32928715   0.031   1.533   2.470  0.7671  0.2243  0.1668
   84MOL   C33028716   0.009   1.393   2.417  0.9124  0.2232 -0.9298
   84MOL   C33128717   7.901   1.304   2.540 -0.3631  0.2958 -1.1455
   84MOL   O33228718   7.895   1.176   2.542 -0.0360  0.1494 -0.0254
   84MOL   H33328719   7.684   1.316   2.895  0.2791  0.3176  0.0476
   84MOL   H33428720   7.666   1.275   2.725  0.4073  0.5370 -0.4690
   84MOL   H33528721   0.047   1.292   2.804  0.1774  0.0783  1.5127
   84MOL   H33628722   7.818   1.586   2.649 -1.0466 -2.4173  1.5086
   84MOL   H33728723   0.085   1.574   2.669  1.7516 -1.7686 -0.1965
   84MOL   H33828724   7.876   1.605   2.415  2.9349  0.2283 -2.3471
   84MOL   H33928725   0.136   1.561   2.474  0.9574 -0.1975 -1.5027
   84MOL   H34028726   7.820   1.377   2.365  0.1286  0.8273  0.2804
   84MOL   H34128727   0.092   1.345   2.366  1.0022  0.2545 -0.8102
   84MOL   H34228728   7.864   1.436   2.853  3.4984 -1.3939  1.8158
   85MOL     C128729   6.256   1.212   6.049  0.0454 -0.1514 -0.1360
   85MOL     C228730   6.395   1.155   6.101  0.0802 -0.0660 -0.6329
   85MOL     N328731   6.376   1.024   6.165 -0.3325 -0.1038  0.2695
   85MOL     C428732   6.403   1.006   6.308  0.2179  0.4085 -0.6524
   85MOL     C528733   6.417   0.855   6.332 -0.0983 -0.2805 -0.5217
   85MOL     C628734   6.324   0.807   6.222 -0.5942 -0.0082 -1.1514
   85MOL     C728735   6.324   0.913   6.117  0.2576  1.0072 -0.6837
   85MOL     O828736   6.287   0.892   6.002  0.0963 -0.5661 -0.5241
   85MOL     H928737   6.181   1.220   6.127  0.9405  0.5838  0.6639
   85MOL    H1028738   6.257   1.313   6.008 -1.3132  0.8785  2.2728
   85MOL    H1128739   6.433   1.239   6.159 -0.9484  0.2276 -0.3789
   85MOL    H1228740   6.495   1.055   6.343 -0.0316  1.3036 -1.2465
   85MOL    H1328741   6.313   1.030   6.364  0.8861  1.0979  0.1343
   85MOL    H1428742   6.518   0.822   6.305  0.7091  1.9048 -0.2922
   85MOL    H1528743   6.404   0.823   6.435  2.0827  1.4399  0.3365
   85MOL    H1628744   6.343   0.707   6.182  0.0939 -0.4794  0.3376
   85MOL    H1728745   6.220   0.796   6.252 -0.2028 -1.7384 -0.3493
   85MOL    H1828746   6.210   1.161   5.964 -0.7541 -1.4806  1.0763
   85MOL    C1928747   6.495   1.155   5.984 -0.3546  0.2935 -0.2913
   85MOL    C2028748   6.622   1.083   6.020  0.1707  0.6186  0.5956
   85MOL    N2128749   6.691   1.044   5.899 -0.0094 -0.4186 -0.1962
   85MOL    C2228750   6.683   0.912   5.841 -0.3094  0.2256  0.0699
   85MOL    C2328751   6.791   0.905   5.731 -0.5019  0.1883 -1.1175
   85MOL    C2428752   6.837   1.051   5.717 -0.0780  0.0737  0.2321
   85MOL    C2528753   6.760   1.125   5.822  0.0796 -0.7619  0.0037
   85MOL    O2628754   6.761   1.248   5.821  0.4181 -0.3786  0.2869
   85MOL    H2728755   6.509   1.254   5.941  2.0556  0.2933  0.4229
   85MOL    H2828756   6.445   1.115   5.896  1.2699 -0.1751 -1.0287
   85MOL    H2928757   6.608   0.986   6.067 -0.8421  0.1406 -0.6419
   85MOL    H3028758   6.701   0.843   5.924  0.6176 -0.3537 -0.5999
   85MOL    H3128759   6.583   0.887   5.805 -0.3728  2.3032 -1.2640
   85MOL    H3228760   6.873   0.840   5.762 -2.0862 -0.7347  1.3553
   85MOL    H3328761   6.751   0.863   5.639 -0.3168  1.3552 -1.7287
   85MOL    H3428762   6.944   1.066   5.737 -0.1596 -0.4474  1.1137
   85MOL    H3528763   6.809   1.091   5.620  0.1872 -0.7346 -0.1867
   85MOL    C3628764   6.718   1.162   6.115  0.2134  0.4940  0.4113
   85MOL    C3728765   6.852   1.090   6.169  0.0165  0.5767  0.6250
   85MOL    N3828766   6.949   1.198   6.177  0.0671 -0.6770 -0.2683
   85MOL    C3928767   7.058   1.213   6.081 -0.2729 -0.0421  0.0510
   85MOL    C4028768   7.132   1.337   6.125 -0.2681 -0.2023 -0.3669
   85MOL    C4128769   7.051   1.412   6.228 -0.5550 -0.4101 -0.4804
   85MOL    C4228770   6.934   1.312   6.251  0.6874  0.7186  0.2301
   85MOL    O4328771   6.847   1.334   6.339 -0.2732  0.6523  0.2500
   85MOL    H4428772   6.667   1.200   6.203  0.6268  0.9061  0.4703
   85MOL    H4528773   6.752   1.246   6.055 -2.9821  1.0158 -0.7793
   85MOL    H4628774   6.889   1.013   6.101  1.1984  0.8242  0.9798
   85MOL    H4728775   7.126   1.127   6.076 -0.3988 -0.1900  0.7615
   85MOL    H4828776   7.017   1.248   5.987 -1.0636  0.4021  0.5548
   85MOL    H4928777   7.235   1.319   6.154 -0.6710 -0.9604  0.6521
   85MOL    H5028778   7.137   1.392   6.032 -1.8410 -0.5098 -0.6467
   85MOL    H5128779   7.119   1.411   6.314 -2.1173  1.2601  0.7858
   85MOL    H5228780   7.018   1.511   6.200 -0.4768 -0.0867  0.5556
   85MOL    C5328781   6.846   1.014   6.300 -0.4741  0.3837  0.6606
   85MOL    C5428782   6.965   0.905   6.316 -0.2952  0.9494  0.7696
   85MOL    N5528783   7.020   0.892   6.457  0.5818 -0.4091 -0.0092
   85MOL    C5628784   7.165   0.889   6.487 -0.0385  0.2076 -0.6197
   85MOL    C5728785   7.172   0.869   6.637 -0.1432  0.2537  0.1079
   85MOL    C5828786   7.033   0.900   6.690  0.6414 -0.0307  0.1303
   85MOL    C5928787   6.946   0.885   6.567 -0.1574  0.4127 -0.5287
   85MOL    O6028788   6.824   0.876   6.569 -0.2071 -0.1334  0.6159
   85MOL    H6128789   6.752   0.964   6.325  0.7339 -1.8311  0.9602
   85MOL    H6228790   6.850   1.082   6.385  2.3442 -1.4102  2.0745
   85MOL    H6328791   7.053   0.938   6.262  0.1150 -1.0666  0.1735
   85MOL    H6428792   7.222   0.818   6.428 -0.0422  0.6188 -1.1180
   85MOL    H6528793   7.210   0.983   6.457  1.2975 -0.6546 -1.3591
   85MOL    H6628794   7.199   0.765   6.651 -0.4706  0.1350 -0.1388
   85MOL    H6728795   7.252   0.931   6.679 -0.5458  0.0105  1.2403
   85MOL    H6828796   7.000   0.831   6.768 -0.6520  0.3623 -0.0544
   85MOL    H6928797   7.030   0.999   6.735 -0.4521  0.6234 -1.3337
   85MOL    C7028798   6.910   0.776   6.259 -0.1084 -1.1835 -0.2210
   85MOL    C7128799   7.001   0.685   6.180 -0.8420  0.0799 -0.3739
   85MOL    N7228800   6.947   0.550   6.157 -0.0304 -0.1303 -0.0403
   85MOL    C7328801   7.014   0.437   6.221  0.3402  0.1404 -0.2542
   85MOL    C7428802   6.941   0.310   6.179  0.3665 -0.5023  0.3950
   85MOL    C7528803   6.820   0.367   6.104  0.8226  0.1933 -0.0209
   85MOL    C7628804   6.839   0.516   6.086  0.0652 -0.3789 -0.4950
   85MOL    O7728805   6.759   0.588   6.031  0.2990  0.3453 -0.0216
   85MOL    H7828806   6.813   0.786   6.210 -0.3382  0.7094  0.5920
   85MOL    H7928807   6.866   0.720   6.341 -3.0584  1.3107  0.0141
   85MOL    H8028808   7.100   0.682   6.226 -0.1735  0.6948 -1.7539
   85MOL    H8128809   7.120   0.431   6.194  0.0630  1.1333 -1.6392
   85MOL    H8228810   6.992   0.464   6.324  1.5191  1.0939 -0.2392
   85MOL    H8328811   6.999   0.240   6.118 -0.3957 -0.6089 -0.2165
   85MOL    H8428812   6.924   0.251   6.269  0.1825 -1.2166 -0.1014
   85MOL    H8528813   6.798   0.341   6.001 -1.4721  2.1176 -0.0552
   85MOL    H8628814   6.730   0.346   6.163  1.6788 -1.9157  0.6161
   85MOL    C8728815   7.041   0.751   6.035  0.0139  0.3999 -0.0922
   85MOL    C8828816   7.150   0.679   5.948  0.3687 -0.2201 -0.1817
   85MOL    N8928817   7.140   0.696   5.803  0.3163 -0.0334  0.4086
   85MOL    C9028818   7.091   0.584   5.724 -0.4690 -0.0952 -0.3337
   85MOL    C9128819   7.058   0.649   5.586  0.1653 -0.1159  0.0954
   85MOL    C9228820   7.119   0.788   5.587 -0.5343 -0.3794 -0.3072
   85MOL    C9328821   7.159   0.806   5.732 -0.0178 -0.4526  0.0294
   85MOL    O9428822   7.201   0.915   5.772 -0.4646  0.5037  0.1036
   85MOL    H9528823   7.080   0.849   6.061  0.0512  0.6509 -1.0854
   85MOL    H9628824   6.953   0.772   5.974  0.6898  0.4072 -1.0638
   85MOL    H9728825   7.140   0.577   5.985 -0.8809  0.4164  1.3049
   85MOL    H9828826   7.172   0.511   5.717  0.1703  0.3549  1.8574
   85MOL    H9928827   7.012   0.536   5.783  0.6381 -1.8804 -0.2759
   85MOL   H10028828   7.089   0.593   5.498 -0.7075 -1.2208  0.4884
   85MOL   H10128829   6.950   0.661   5.577  0.2042  0.5288  0.4173
   85MOL   H10228830   7.213   0.800   5.532 -0.0236 -0.1826  0.6059
   85MOL   H10328831   7.049   0.870   5.575 -0.4973 -0.2268  0.5415
   85MOL   C10428832   7.291   0.714   5.996  0.2778 -0.8655  0.1798
   85MOL   C10528833   7.402   0.614   5.958 -0.4460  0.2602  0.1766
   85MOL   N10628834   7.528   0.679   5.966 -0.0762 -0.2480  0.3124
   85MOL   C10728835   7.610   0.679   5.845  0.6581  0.3434 -0.2578
   85MOL   C10828836   7.749   0.714   5.893 -0.0224 -0.2023  0.2610
   85MOL   C10928837   7.739   0.750   6.044 -0.2336  0.1010  0.3565
   85MOL   C11028838   7.592   0.716   6.079 -0.0276  0.0575 -0.2059
   85MOL   O11128839   7.543   0.710   6.193  0.6428 -0.8797 -0.3402
   85MOL   H11228840   7.295   0.717   6.105 -0.4687  1.2701  0.1626
   85MOL   H11328841   7.320   0.810   5.955 -1.0881  0.3549  2.0019
   85MOL   H11428842   7.391   0.581   5.855  0.9806 -1.5901  0.5906
   85MOL   H11528843   7.612   0.590   5.782  0.3552 -0.0264  0.2592
   85MOL   H11628844   7.572   0.760   5.782  2.0323 -0.7808 -2.6256
   85MOL   H11728845   7.799   0.617   5.902 -0.3595 -0.2781  1.4977
   85MOL   H11828846   7.811   0.780   5.833  0.6604  1.1521  2.4140
   85MOL   H11928847   7.749   0.857   6.061 -0.4981 -0.1500  2.1549
   85MOL   H12028848   7.810   0.705   6.113  0.3881  0.9521  0.2836
   85MOL   C12128849   7.393   0.496   6.048  0.1589 -0.0723  0.5592
   85MOL   C12228850   7.498   0.378   6.018  0.5016  0.1582  0.2149
   85MOL   N12328851   7.474   0.279   6.127 -0.2277  0.0724  0.0899
   85MOL   C12428852   7.566   0.274   6.237  0.1079 -1.0111 -0.1681
   85MOL   C12528853   7.525   0.161   6.329 -0.4701 -1.2158 -0.2845
   85MOL   C12628854   7.388   0.128   6.284  0.0000  0.8824 -0.8910
   85MOL   C12728855   7.369   0.205   6.150 -1.2309  0.4931  0.2475
   85MOL   O12828856   7.261   0.199   6.090  0.2116 -0.1682 -0.4809
   85MOL   H12928857   7.297   0.447   6.031  0.2009 -0.7533  2.2761
   85MOL   H13028858   7.402   0.525   6.152 -0.3635  0.2599  0.5130
   85MOL   H13128859   7.600   0.416   6.023  1.3986 -2.2068  0.9696
   85MOL   H13228860   7.572   0.365   6.296  2.1640 -1.5448  0.4814
   85MOL   H13328861   7.667   0.260   6.198  0.5492  0.3787  0.4806
   85MOL   H13428862   7.596   0.080   6.312 -0.3605 -0.8900 -1.4289
   85MOL   H13528863   7.534   0.190   6.434 -0.4340  0.8783 -0.8456
   85MOL   H13628864   7.387   0.021   6.264 -0.4134 -0.0655  3.6330
   85MOL   H13728865   7.316   0.153   6.362 -0.6131 -0.8809 -0.8835
   85MOL   C13828866   7.481   0.308   5.879 -0.2650 -0.0776 -0.8987
   85MOL   C13928867   7.577   0.191   5.844  1.0024 -0.4990 -0.0063
   85MOL   N14028868   7.709   0.244   5.800 -0.3111 -0.0401 -0.4332
   85MOL   C14128869   7.719   0.296   5.659 -0.1047 -0.6132 -0.6848
   85MOL   C14228870   7.863   0.341   5.647  0.5540  0.4207 -0.3919
   85MOL   C14328871   0.011   0.347   5.789 -0.2121  0.3912  0.2670
   85MOL   C14428872   7.816   0.275   5.872  0.7564  0.0312  0.3861
   85MOL   O14528873   7.826   0.254   5.987 -0.5366 -0.1392  0.2395
   85MOL   H14628874   7.497   0.390   5.809 -0.5740 -1.3793 -2.5238
   85MOL   H14728875   7.378   0.273   5.877 -0.4763 -0.0911  3.7719
   85MOL   H14828876   7.551   0.149   5.746  0.5207  2.6694 -1.3128
   85MOL   H14928877   7.672   0.218   5.599 -0.6877  1.6295 -3.1984
   85MOL   H15028878   7.666   0.391   5.657  1.7633  0.5134  1.0447
   85MOL   H15128879   7.906   0.262   5.586  0.2918  2.0541 -2.7544
   85MOL   H15228880   7.876   0.439   5.602  2.0404 -0.0356 -0.9811
   85MOL   H15328881   0.018   0.448   5.830  0.5815 -0.9176  3.4645
   85MOL   H15428882   0.110   0.302   5.797 -1.0197 -1.3000  1.0635
   85MOL   C15528883   7.566   0.065   5.930 -1.0171  0.5668 -0.7490
   85MOL   C15628884   7.621   7.832   5.873  0.4488  0.1302  0.0350
   85MOL   N15728885   7.648   7.743   5.992 -0.6760 -0.3920  0.1587
   85MOL   C15828886   7.785   7.693   6.019  0.6643 -0.2117 -0.0639
   85MOL   C15928887   7.777   7.599   6.140 -0.9335  0.2255  0.0154
   85MOL   C16028888   7.625   7.579   6.157 -0.3586  0.8702 -0.6582
   85MOL   C16128889   7.563   7.688   6.074  0.3815  0.6104 -0.1555
   85MOL   O16228890   7.442   7.718   6.080 -0.5719 -0.2197  0.4088
   85MOL   H16328891   7.459   0.051   5.947 -1.4006  1.6743 -2.1580
   85MOL   H16428892   7.618   0.096   6.020  2.5235  0.9506 -2.8026
   85MOL   H16528893   7.714   7.845   5.818 -0.6778 -1.5329 -2.3487
   85MOL   H16628894   7.807   7.639   5.928  2.4125  1.7472 -0.8414
   85MOL   H16728895   7.853   7.778   6.027  1.3090 -0.6133 -1.2944
   85MOL   H16828896   7.815   7.501   6.112 -1.4033  0.7113 -2.3627
   85MOL   H16928897   7.822   7.643   6.230 -1.3485 -1.5913  1.1395
   85MOL   H17028898   7.597   7.475   6.141  3.0690 -0.5822  2.0779
   85MOL   H17128899   7.604   7.606   6.261 -0.3333  0.8035 -0.6356
   85MOL   C17228900   7.517   7.753   5.788  0.0961  0.2245 -0.3417
   85MOL   C17328901   7.501   7.800   5.638  0.1236  0.4134 -0.1892
   85MOL   N17428902   7.632   7.776   5.572  0.1958 -0.2657  0.7335
   85MOL   C17528903   7.663   7.849   5.450  0.2914 -0.0708 -0.8714
   85MOL   C17628904   7.781   7.782   5.381 -0.2603 -0.2274 -0.3715
   85MOL   C17728905   7.832   7.679   5.483  0.0282 -0.5324 -0.0213
   85MOL   C17828906   7.723   7.678   5.589 -0.5553 -0.6914  0.1265
   85MOL   O17928907   7.720   7.593   5.676 -0.1070 -0.5609  0.3830
   85MOL   H18028908   7.422   7.759   5.841  0.4559 -1.7113  0.5622
   85MOL   H18128909   7.528   7.645   5.798  0.4784  0.1029 -1.9366
   85MOL   H18228910   7.467   7.903   5.627  0.6545  0.5477 -0.6022
   85MOL   H18328911   7.586   7.855   5.374  0.0733 -0.1486 -0.6568
   85MOL   H18428912   7.691   0.046   5.473  0.1436 -0.3138  0.4045
   85MOL   H18528913   7.863   7.852   5.365 -0.1428  0.3683  2.5930
   85MOL   H18628914   7.751   7.742   5.284 -1.0428 -0.5478 -0.0029
   85MOL   H18728915   7.859   7.586   5.434  0.5489  0.7862 -2.2847
   85MOL   H18828916   0.025   7.710   5.517  0.3595 -1.0871 -0.4860
   85MOL   C18928917   7.399   7.706   5.565 -0.5632 -0.6315 -0.3277
   85MOL   C19028918   7.254   7.714   5.614  0.2137  0.1211  0.1291
   85MOL   N19128919   7.206   7.856   5.621  0.2275 -0.3559  0.2127
   85MOL   C19228920   7.148   0.000   5.741 -0.0330 -0.4169  0.3497
   85MOL   C19328921   7.118   0.145   5.709 -0.0090  0.2199 -0.4934
   85MOL   C19428922   7.124   0.160   5.556  0.6191  0.5499  0.7543
   85MOL   C19528923   7.203   0.037   5.520  0.6546  0.0001 -0.3110
   85MOL   O19628924   7.244   0.020   5.409 -0.2111  0.1767 -0.8026
   85MOL   H19728925   7.434   7.604   5.582  0.3650 -0.2701 -0.0430
   85MOL   H19828926   7.402   7.722   5.457  1.4650  2.5119  0.1405
   85MOL   H19928927   7.248   7.679   5.717  1.8324 -1.8687 -0.4168
   85MOL   H20028928   7.060   7.845   5.760  1.0150 -1.9704  0.3383
   85MOL   H20128929   7.209   7.898   5.831  1.8203  0.6301 -0.7781
   85MOL   H20228930   7.020   0.172   5.749  0.1031  0.4069 -0.3384
   85MOL   H20328931   7.181   0.214   5.766 -1.0259  0.7278  0.0358
   85MOL   H20428932   7.026   0.154   5.509  0.4235 -3.2470  1.4315
   85MOL   H20528933   7.171   0.253   5.525  0.2773  0.3766 -0.3009
   85MOL   C20628934   7.158   7.630   5.529 -0.0589  0.4142  0.1980
   85MOL   C20728935   7.004   7.626   5.563  0.0404 -0.4466  0.1791
   85MOL   N20828936   6.939   7.529   5.471  0.0695  0.5315  0.2874
   85MOL   C20928937   6.841   7.571   5.372  0.0887  0.7803  0.0155
   85MOL   C21028938   6.776   7.442   5.326  0.3742  0.4520 -0.2836
   85MOL   C21128939   6.875   7.332   5.353 -0.2664 -0.1536  0.6566
   85MOL   C21228940   6.959   7.392   5.465 -0.3966  0.1254  0.1290
   85MOL   O21328941   7.041   7.330   5.533 -0.4012 -0.0706 -0.4152
   85MOL   H21428942   7.197   7.529   5.518  0.6416  0.9588 -2.9002
   85MOL   H21528943   7.172   7.671   5.429 -2.2472 -1.8703 -1.1155
   85MOL   H21628944   6.960   7.723   5.542  1.3372  0.5899  2.1973
   85MOL   H21728945   6.767   7.640   5.413  0.2986 -0.0973  1.9655
   85MOL   H21828946   6.893   7.626   5.293 -0.6096 -0.8433 -1.5962
   85MOL   H21928947   6.690   7.419   5.389  0.9849  0.5274  0.5792
   85MOL   H22028948   6.736   7.434   5.225  0.4472 -3.1019 -0.1063
   85MOL   H22128949   6.836   7.235   5.386 -0.7929  0.3942  1.6903
   85MOL   H22228950   6.933   7.303   5.266  0.5676  0.0846  1.1280
   85MOL   C22328951   6.966   7.580   5.705  0.3289 -0.0710 -0.2167
   85MOL   C22428952   6.815   7.598   5.734 -0.8126  0.7831  0.5326
   85MOL   N22528953   6.800   7.526   5.857 -0.2962  0.0478  0.2414
   85MOL   C22628954   6.722   7.407   5.864 -1.2603  0.3084 -0.6784
   85MOL   C22728955   6.769   7.332   5.982  0.2557 -0.0342 -0.1844
   85MOL   C22828956   6.810   7.440   6.077  0.4199 -0.6606 -0.0440
   85MOL   C22928957   6.857   7.548   5.977  0.0587  0.4547  0.2861
   85MOL   O23028958   6.937   7.634   6.002  0.3454 -0.6261 -0.8395
   85MOL   H23128959   7.027   7.635   5.777  1.1113 -0.0664 -0.8734
   85MOL   H23228960   7.003   7.481   5.730  1.2961  0.0122 -1.2332
   85MOL   H23328961   6.758   7.542   5.660 -0.1451 -1.1014  1.4154
   85MOL   H23428962   6.615   7.425   5.873 -1.2710  0.0494 -0.2348
   85MOL   H23528963   6.739   7.358   5.768  0.0715 -0.6286  0.0116
   85MOL   H23628964   6.688   7.275   6.026  1.7329 -2.6155 -0.7220
   85MOL   H23728965   6.849   7.263   5.956 -1.0627 -2.4000  1.8844
   85MOL   H23828966   6.729   7.475   6.140  0.4076  0.9437 -0.9004
   85MOL   H23928967   6.886   7.395   6.140 -2.1835 -1.3861  2.6506
   85MOL   C24028968   6.772   7.752   5.733  0.7643  0.5402 -0.4060
   85MOL   C24128969   6.628   7.767   5.799 -0.3064  0.3395 -0.2190
   85MOL   N24228970   6.632   7.803   5.939  0.2676 -0.2525 -0.3303
   85MOL   C24328971   6.552   7.739   6.044  1.3243  0.5687  0.2010
   85MOL   C24428972   6.601   7.800   6.172 -0.0802 -0.0029  0.0297
   85MOL   C24528973   6.662   0.029   6.134  0.7254 -0.0691  0.6547
   85MOL   C24628974   6.690   0.010   5.988 -0.1687  0.0046 -0.6554
   85MOL   O24728975   6.744   0.096   5.919 -0.5299 -0.0100  0.1794
   85MOL   H24828976   6.773   7.794   5.633  4.4293 -2.1645 -1.6005
   85MOL   H24928977   6.836   7.813   5.797 -1.9727  0.8166  2.1550
   85MOL   H25028978   6.580   7.670   5.811 -1.1777  1.0607  2.5137
   85MOL   H25128979   6.447   7.761   6.027  1.0299  1.3245  2.9018
   85MOL   H25228980   6.575   7.632   6.035  2.6214  0.8336  0.2479
   85MOL   H25328981   6.521   7.827   6.240 -0.3646 -2.0627  0.5591
   85MOL   H25428982   6.676   7.734   6.217  2.3190  0.5098 -3.0241
   85MOL   H25528983   6.608   0.119   6.162  0.8020  0.9247 -2.1578
   85MOL   H25628984   6.758   0.042   6.183  0.3685  2.8739  0.6090
   85MOL   C25728985   6.546   7.865   5.712  0.1433 -0.0478  0.7638
   85MOL   C25828986   6.493   7.793   5.581 -0.0331 -0.0368  0.4819
   85MOL   N25928987   6.396   7.683   5.618 -0.4425  0.8734  0.6362
   85MOL   C26028988   6.261   7.709   5.677 -0.0356 -0.5947  0.1043
   85MOL   C26128989   6.209   7.571   5.705  0.2124  0.8888  0.0731
   85MOL   C26228990   6.302   7.463   5.642  0.3850 -0.0245 -0.2055
   85MOL   C26328991   6.427   7.548   5.612  0.0626  0.9491  0.0098
   85MOL   O26428992   6.534   7.495   5.575  0.0414  0.1906 -0.0149
   85MOL   H26528993   6.604   0.049   5.689 -0.5743  0.2368  0.0360
   85MOL   H26628994   6.463   7.896   5.774  0.2623 -0.3017  1.0498
   85MOL   H26728995   6.577   7.743   5.532 -1.6764  0.5302 -3.0582
   85MOL   H26828996   6.267   7.778   5.760  2.8890 -0.7337  0.0649
   85MOL   H26928997   6.190   7.755   5.608 -2.0110  0.4955  2.8152
   85MOL   H27028998   6.192   7.571   5.813 -0.1540  0.6006  0.0153
   85MOL   H27128999   6.115   7.561   5.651  0.1532  0.9671  0.1617
   85MOL   H27229000   6.321   7.381   5.712 -0.9974  0.0130  0.2133
   85MOL   H27329001   6.262   7.418   5.550  0.8218 -0.7214 -0.0632
   85MOL   C27429002   6.426   7.905   5.494  0.5479 -0.4254  0.1187
   85MOL   C27529003   6.370   7.853   5.360  0.2212  0.1482  0.4788
   85MOL   N27629004   6.285   0.047   5.286 -0.8033 -0.5376  0.2600
   85MOL   C27729005   6.155   7.901   5.235  0.1779  0.2748  0.4458
   85MOL   C27829006   6.116   0.094   5.125  0.2240 -0.2412 -0.1523
   85MOL   C27929007   6.226   0.201   5.124  0.7424  0.1076 -0.3538
   85MOL   C28029008   6.325   0.158   5.225 -0.1816 -0.7412 -0.0373
   85MOL   O28129009   6.431   0.216   5.240  0.3212 -0.3841  0.2077
   85MOL   H28229010   6.496   0.079   5.467  0.0389  0.3689  1.0856
   85MOL   H28329011   6.352   0.043   5.561  0.3649 -1.2568  0.4595
   85MOL   H28429012   6.316   7.761   5.380  0.6709 -0.1207  0.4631
   85MOL   H28529013   6.161   7.802   5.190  0.7653  0.8033 -0.6614
   85MOL   H28629014   6.088   7.901   5.320 -1.6915  2.2615 -0.9613
   85MOL   H28729015   6.118   0.050   5.026  0.3782  0.6515 -0.5542
   85MOL   H28829016   6.017   0.135   5.146  0.0378 -1.3573  1.2371
   85MOL   H28929017   6.270   0.208   5.024  5.1763  1.0388  1.5575
   85MOL   H29029018   6.166   0.292   5.138  0.6433  0.4303 -2.6134
   85MOL   C29129019   6.494   7.814   5.258 -0.1442 -0.4212 -0.0692
   85MOL   C29229020   6.463   7.726   5.138  0.6058  0.1672  0.8866
   85MOL   N29329021   6.533   7.761   5.016 -0.1825  0.1826 -0.1633
   85MOL   C29429022   6.470   7.860   4.936 -0.4386  0.0901 -0.1242
   85MOL   C29529023   6.560   7.874   4.816  0.3819  0.0994 -0.2095
   85MOL   C29629024   6.688   7.799   4.850  1.8690 -0.1303  0.1650
   85MOL   C29729025   6.658   7.735   4.980 -0.6031  0.2355 -0.2794
   85MOL   O29829026   6.743   7.674   5.049  0.3080  0.4857  0.0510
   85MOL   H29929027   6.571   7.767   5.319 -1.3219 -3.0092 -0.5130
   85MOL   H30029028   6.536   0.000   5.217 -1.0516  0.1894  0.3457
   85MOL   H30129029   6.355   7.739   5.124  1.2537  2.8029 -2.2888
   85MOL   H30229030   6.374   7.828   4.896  0.2561 -1.6735 -0.4152
   85MOL   H30329031   6.466   0.053   4.983  1.1986  0.4763 -0.7486
   85MOL   H30429032   6.517   7.813   4.736  1.3024 -1.1091  0.2212
   85MOL   H30529033   6.557   0.068   4.771 -2.6532 -1.3408 -3.5564
   85MOL   H30629034   6.719   7.722   4.780 -1.1692 -2.7165  1.5276
   85MOL   H30729035   6.774   7.867   4.854  0.0583  2.1676  2.3700
   85MOL   C30829036   6.459   7.573   5.171  0.0452  0.8349 -0.1409
   85MOL   C30929037   6.421   7.474   5.068  0.3716  0.3790  0.0180
   85MOL   N31029038   6.490   7.343   5.087  0.3126 -0.1407 -0.4341
   85MOL   C31129039   6.588   7.294   4.990  0.2246  0.6559 -0.1768
   85MOL   C31229040   6.613   7.142   5.029  0.2591 -0.1259 -0.2953
   85MOL   C31329041   6.559   7.121   5.171 -0.7584  0.0984 -0.5040
   85MOL   C31429042   6.475   7.250   5.184  0.2210 -0.0346 -0.5437
   85MOL   O31529043   6.392   7.262   5.277 -0.0820 -0.2991  0.1177
   85MOL   H31629044   6.399   7.565   5.262 -0.1692 -1.1823 -0.4474
   85MOL   H31729045   6.566   7.553   5.179  0.3027  2.5505  1.2819
   85MOL   H31829046   6.473   7.513   4.981 -2.4646 -0.5734 -2.1960
   85MOL   H31929047   6.553   7.300   4.887  0.4702 -0.0488 -0.3054
   85MOL   H32029048   6.680   7.349   5.009  0.8864  0.3465 -2.3302
   85MOL   H32129049   6.572   7.073   4.955 -1.5108 -2.4194  2.7500
   85MOL   H32229050   6.721   7.135   5.023  0.2940 -0.9252  1.1225
   85MOL   H32329051   6.501   7.031   5.189  0.0824 -0.5146 -0.8332
   85MOL   H32429052   6.636   7.129   5.248 -1.1085 -0.2688 -0.1225
   85MOL   C32529053   6.267   7.452   5.037 -0.3440 -0.3003 -0.3954
   85MOL   C32629054   6.239   7.392   4.897  0.3387 -0.3961 -0.2460
   85MOL   N32729055   6.099   7.348   4.880 -0.7552 -0.3407  0.0830
   85MOL   C32829056   6.003   7.402   4.787  0.2581 -0.4881 -0.0886
   85MOL   C32929057   5.884   7.311   4.790  0.5005  0.1991  0.3825
   85MOL   C33029058   5.919   7.201   4.887  0.4913 -1.2806 -0.4419
   85MOL   C33129059   6.052   7.235   4.932  0.1427 -0.8042 -0.2001
   85MOL   O33229060   6.111   7.155   4.996 -0.1840 -0.3449  0.3562
   85MOL   H33329061   6.225   7.553   5.036  3.4442  1.3927 -1.3734
   85MOL   H33429062   6.228   7.398   5.123  3.3691 -1.3194  0.7680
   85MOL   H33529063   6.307   7.309   4.881  1.3662  0.3713  0.1031
   85MOL   H33629064   5.970   7.501   4.819  2.2133  0.0627  0.2688
   85MOL   H33729065   6.046   7.412   4.688  0.1724  0.7918 -0.0011
   85MOL   H33829066   5.792   7.367   4.806 -0.2866 -1.0974  0.4482
   85MOL   H33929067   5.872   7.272   4.688  1.0543 -1.6866  1.0201
   85MOL   H34029068   5.855   7.206   4.975 -0.2988 -3.1336 -0.8735
   85MOL   H34129069   5.908   7.099   4.849 -2.8902 -0.5602 -1.5561
   85MOL   H34229070   6.258   7.471   4.825 -1.6085  1.3947  1.1162
   86MOL     C129071   1.454   4.535   3.073 -0.4333  0.3404  0.0470
   86MOL     C229072   1.344   4.525   2.967 -0.5334 -0.2155  0.0506
   86MOL     N329073   1.297   4.656   2.938  0.4926  0.0852 -0.1373
   86MOL     C429074   1.369   4.748   2.849  0.8202  0.1378 -0.5781
   86MOL     C529075   1.298   4.877   2.859 -0.6921  0.5013 -0.7541
   86MOL     C629076   1.164   4.854   2.919  0.2060  0.5227 -0.9850
   86MOL     C729077   1.181   4.711   2.983  0.0793 -0.1966  0.1972
   86MOL     O829078   1.100   4.673   3.061  0.5896 -0.2881 -0.3867
   86MOL     H929079   1.482   4.440   3.120  0.5919  0.0197 -1.1814
   86MOL    H1029080   1.538   4.589   3.030  2.0284 -2.9423  0.5094
   86MOL    H1129081   1.264   4.474   3.021  0.0582 -0.2536  0.9107
   86MOL    H1229082   1.471   4.749   2.885  0.6850  1.3588 -0.2168
   86MOL    H1329083   1.366   4.712   2.746  0.4024  1.7568 -1.1376
   86MOL    H1429084   1.358   4.927   2.935  0.2745 -0.2263 -1.0317
   86MOL    H1529085   1.305   4.949   2.778  1.6670  0.8919 -0.2337
   86MOL    H1629086   1.138   4.931   2.991 -2.1074 -2.4953  1.5746
   86MOL    H1729087   1.093   4.838   2.838  0.1462 -1.2239 -0.6208
   86MOL    H1829088   1.415   4.599   3.153  3.4473  1.1365  1.4016
   86MOL    C1929089   1.380   4.452   2.839  0.9059  0.0751  0.5856
   86MOL    C2029090   1.424   4.300   2.849 -0.1074  0.6982 -0.1051
   86MOL    N2129091   1.338   4.213   2.926  0.5361  0.0490 -0.2583
   86MOL    C2229092   1.375   4.169   3.057  0.4672  0.2072 -0.5086
   86MOL    C2329093   1.254   4.098   3.110  0.5824  0.1892  0.4131
   86MOL    C2429094   1.157   4.077   2.989  0.6814 -0.9747 -0.1961
   86MOL    C2529095   1.215   4.175   2.891 -0.3466 -0.4286 -0.3878
   86MOL    O2629096   1.148   4.213   2.799  0.5352 -0.1348 -0.5339
   86MOL    H2729097   1.453   4.522   2.797 -1.2290  0.7652 -2.0779
   86MOL    H2829098   1.298   4.468   2.770  0.1252 -0.4495  1.3833
   86MOL    H2929099   1.516   4.289   2.906 -0.9275 -1.4811  0.8368
   86MOL    H3029100   1.470   4.118   3.070 -0.3629 -0.9495  1.2565
   86MOL    H3129101   1.381   4.258   3.120 -1.2382  0.3597 -0.5531
   86MOL    H3229102   1.287   4.002   3.150 -1.5415 -0.5327  0.4700
   86MOL    H3329103   1.199   4.149   3.189  0.4974 -1.2750  1.3050
   86MOL    H3429104   1.162   3.977   2.945 -0.6970 -0.3087 -1.9307
   86MOL    H3529105   1.056   4.104   3.021  0.5720  0.2492 -1.5617
   86MOL    C3629106   1.441   4.242   2.702  0.0319 -0.2782 -1.1775
   86MOL    C3729107   1.471   4.089   2.696  0.5196 -0.3517 -0.2112
   86MOL    N3829108   1.454   4.051   2.554 -0.2932 -0.3011  0.0778
   86MOL    C3929109   1.328   3.997   2.506 -0.4563  0.0395  0.5700
   86MOL    C4029110   1.349   3.961   2.356  0.1661  0.2646 -0.0642
   86MOL    C4129111   1.488   4.004   2.323 -0.0748  0.0461  1.3291
   86MOL    C4229112   1.541   4.062   2.455  0.0035  0.3010  0.7037
   86MOL    O4329113   1.654   4.112   2.467 -0.0409  0.3919  0.0526
   86MOL    H4429114   1.521   4.300   2.655 -0.9707  0.7913 -1.5957
   86MOL    H4529115   1.359   4.266   2.635  0.5609  2.1587 -1.0047
   86MOL    H4629116   1.394   4.036   2.751  0.9059 -0.1782  0.5069
   86MOL    H4729117   1.287   3.912   2.560 -2.6989  1.0326  0.4655
   86MOL    H4829118   1.255   4.076   2.521 -2.2004 -1.4383 -0.0147
   86MOL    H4929119   1.333   3.855   2.334  2.0912 -0.3046  1.1698
   86MOL    H5029120   1.279   4.016   2.294 -0.1330  0.0119  0.0514
   86MOL    H5129121   1.552   3.918   2.302  0.1734  0.5058  0.1502
   86MOL    H5229122   1.494   4.059   2.228  0.7894 -1.3237  0.5727
   86MOL    C5329123   1.595   4.041   2.772  0.2813  0.3014 -1.0819
   86MOL    C5429124   1.603   3.886   2.791  0.0483 -0.6313  0.1174
   86MOL    N5529125   1.655   3.817   2.674 -0.2375  0.5778  0.0895
   86MOL    C5629126   1.572   3.723   2.609 -0.2348  0.3700 -0.3763
   86MOL    C5729127   1.669   3.634   2.530  0.6372 -0.6626  0.0551
   86MOL    C5829128   1.801   3.706   2.522  0.9860 -0.9324 -0.5846
   86MOL    C5929129   1.778   3.814   2.621  0.2498  0.7044 -0.7907
   86MOL    O6029130   1.875   3.880   2.654  0.1695  0.0237 -0.1133
   86MOL    H6129131   1.596   4.088   2.870  2.0455 -0.0069 -0.9272
   86MOL    H6229132   1.687   4.071   2.721  0.6882  0.4145 -0.2775
   86MOL    H6329133   1.499   3.856   2.809 -0.3052  1.1998  1.3774
   86MOL    H6429134   1.511   3.666   2.680 -1.2959  0.5902 -1.1162
   86MOL    H6529135   1.508   3.785   2.546 -0.5449 -0.3297 -0.7537
   86MOL    H6629136   1.697   3.550   2.594 -3.0086 -0.7470  1.6156
   86MOL    H6729137   1.638   3.589   2.436  1.4327  0.4489 -0.7544
   86MOL    H6829138   1.882   3.639   2.551  1.5595 -0.0394 -0.1026
   86MOL    H6929139   1.817   3.763   2.431  1.7395  1.1311  0.8050
   86MOL    C7029140   1.680   3.856   2.927 -0.1018  0.0616  0.5959
   86MOL    C7129141   1.667   3.718   2.980  0.9799 -0.3361  1.0404
   86MOL    N7229142   1.796   3.676   3.036 -0.5792  0.3841  0.3803
   86MOL    C7329143   1.877   3.587   2.947  0.0146 -0.4104 -0.8907
   86MOL    C7429144   2.013   3.583   3.014 -0.7437  0.5812 -0.3034
   86MOL    C7529145   2.005   3.671   3.137  0.3595 -0.3571  0.8086
   86MOL    C7629146   1.861   3.720   3.139  0.2365  0.6891  0.2570
   86MOL    O7729147   1.825   3.790   3.230 -0.4758  0.1918  0.4430
   86MOL    H7829148   1.651   3.923   3.008 -2.5660 -1.4893  1.0428
   86MOL    H7929149   1.784   3.883   2.907 -0.1760  0.3111  0.5424
   86MOL    H8029150   1.650   3.655   2.893  1.7378  1.6582 -0.5901
   86MOL    H8129151   1.832   3.489   2.958  0.1526 -0.4796 -0.9420
   86MOL    H8229152   1.870   3.610   2.841  1.1456  0.2479 -0.8322
   86MOL    H8329153   2.039   3.485   3.056  0.1674 -0.1819 -2.5927
   86MOL    H8429154   2.093   3.620   2.950  1.1148 -0.4904  1.3405
   86MOL    H8529155   2.018   3.613   3.228 -0.6756 -0.1131  1.1282
   86MOL    H8629156   2.076   3.754   3.136 -1.2496  1.0698  1.0992
   86MOL    C8729157   1.548   3.702   3.077  0.0152  0.5735  0.1721
   86MOL    C8829158   1.488   3.562   3.103 -0.2322  0.0688  0.4070
   86MOL    N8929159   1.422   3.512   2.985 -0.3431 -1.2902 -0.3488
   86MOL    C9029160   1.493   3.431   2.892 -0.4768 -0.0135  0.0264
   86MOL    C9129161   1.412   3.425   2.764 -0.6086  0.2071  0.1943
   86MOL    C9229162   1.281   3.510   2.792 -0.6378 -0.2231 -0.0201
   86MOL    C9329163   1.305   3.563   2.932  0.4871  0.4562 -0.1702
   86MOL    O9429164   1.232   3.646   2.985  0.3925  0.1206 -0.1308
   86MOL    H9529165   1.459   3.754   3.043 -0.3385  0.4099  0.8260
   86MOL    H9629166   1.565   3.748   3.174  0.3059 -0.7477  0.7698
   86MOL    H9729167   1.408   3.581   3.174 -0.0917 -0.0954  0.6069
   86MOL    H9829168   1.593   3.465   2.866 -1.6854  2.0562 -2.0456
   86MOL    H9929169   1.493   3.330   2.934  0.6665 -0.2923 -0.6252
   86MOL   H10029170   1.473   3.462   2.681  0.0605  0.0087  0.5953
   86MOL   H10129171   1.375   3.325   2.740  0.5765 -0.5140  1.3220
   86MOL   H10229172   1.270   3.588   2.717 -1.7018  0.0324  0.3919
   86MOL   H10329173   1.198   3.439   2.785 -0.2212 -0.6880 -0.2230
   86MOL   C10429174   1.580   3.460   3.175 -0.1255  0.5575 -0.0457
   86MOL   C10529175   1.592   3.478   3.331 -0.0598 -0.1076  0.5517
   86MOL   N10629176   1.482   3.414   3.399 -0.4074 -0.4604 -0.4095
   86MOL   C10729177   1.370   3.496   3.454  0.5960 -0.8432  0.1587
   86MOL   C10829178   1.275   3.404   3.516  0.5549 -0.1587  0.5712
   86MOL   C10929179   1.320   3.265   3.486  0.2494  0.8387 -0.1381
   86MOL   C11029180   1.451   3.280   3.408  0.3830 -0.1109 -0.2080
   86MOL   O11129181   1.514   3.183   3.368 -0.1966  0.2918  0.4669
   86MOL   H11229182   1.683   3.479   3.143  0.1158  0.7759  0.8549
   86MOL   H11329183   1.568   3.353   3.160 -0.4559  1.0924 -4.1504
   86MOL   H11429184   1.597   3.584   3.355  0.2057  0.1978 -0.8032
   86MOL   H11529185   1.415   3.557   3.532  0.0549  0.4195 -0.5133
   86MOL   H11629186   1.328   3.565   3.382  0.8989 -0.1641  0.6313
   86MOL   H11729187   1.272   3.414   3.625 -1.0704 -1.1816  0.6545
   86MOL   H11829188   1.177   3.423   3.471  1.1534  0.0066 -0.6707
   86MOL   H11929189   1.249   3.212   3.424 -1.3226  1.3269  1.2166
   86MOL   H12029190   1.340   3.203   3.573 -1.5012  0.4502  0.0060
   86MOL   C12129191   1.726   3.415   3.381 -0.1581 -0.0952  0.3502
   86MOL   C12229192   1.759   3.413   3.532  0.4749  0.1085 -0.0992
   86MOL   N12329193   1.874   3.325   3.549  0.5539  0.7347  1.1013
   86MOL   C12429194   1.849   3.187   3.577  0.6292 -0.0907  0.4059
   86MOL   C12529195   1.986   3.111   3.572 -0.5003 -0.2202  0.6249
   86MOL   C12629196   2.086   3.220   3.515 -0.0954  1.3884  0.4775
   86MOL   C12729197   2.001   3.341   3.515  0.5574 -0.2230 -0.3821
   86MOL   O12829198   2.048   3.449   3.484  0.1276  0.3240 -0.1720
   86MOL   H12929199   1.807   3.467   3.331 -0.9301  0.9705  0.1969
   86MOL   H13029200   1.739   3.314   3.343 -0.8952  0.0794 -0.3811
   86MOL   H13129201   1.670   3.375   3.582  0.0563 -2.6572 -2.7650
   86MOL   H13229202   1.768   3.154   3.513  1.5845 -1.5269 -0.0875
   86MOL   H13329203   1.814   3.168   3.678 -3.5099  0.6753 -0.7912
   86MOL   H13429204   2.022   3.077   3.669 -2.2772 -1.3794  0.8945
   86MOL   H13529205   1.977   3.015   3.522  0.1016  0.2728 -0.4570
   86MOL   H13629206   2.178   3.227   3.572  1.7457 -3.3284 -1.6518
   86MOL   H13729207   2.119   3.199   3.413 -2.0069  1.1080 -0.1129
   86MOL   C13829208   1.800   3.558   3.593  0.4314  0.1552  0.7407
   86MOL   C13929209   1.702   3.630   3.682 -0.4656  0.4055 -0.3362
   86MOL   N14029210   1.661   3.553   3.796  0.3572  0.8742  0.4327
   86MOL   C14129211   1.518   3.518   3.817 -0.0708  0.6265 -0.1427
   86MOL   C14229212   1.512   3.415   3.927 -0.8996  0.2570  0.0701
   86MOL   C14329213   1.645   3.433   3.995  0.4338 -0.3723 -0.5895
   86MOL   C14429214   1.722   3.523   3.908 -0.4864 -0.0415  0.6489
   86MOL   O14529215   1.845   3.528   3.924  0.0056  0.4284 -0.4825
   86MOL   H14629216   1.834   3.619   3.509  1.3328 -0.6922  0.4699
   86MOL   H14729217   1.897   3.555   3.643  1.7347  2.0288 -1.5290
   86MOL   H14829218   1.614   3.642   3.618 -1.0335  0.6995  0.5024
   86MOL   H14929219   1.465   3.607   3.852 -1.1267 -0.5437  1.2709
   86MOL   H15029220   1.465   3.495   3.725 -1.7686 -0.0042  0.9622
   86MOL   H15129221   1.429   3.437   3.994 -0.1249 -1.6238  1.6880
   86MOL   H15229222   1.506   3.314   3.887 -2.7811  0.4304 -0.1376
   86MOL   H15329223   1.701   3.344   4.024  0.3867  0.1905  1.3038
   86MOL   H15429224   1.633   3.476   4.095 -0.5633 -0.5487 -0.6234
   86MOL   C15529225   1.760   3.767   3.726 -0.2140  0.4997  0.1777
   86MOL   C15629226   1.758   3.871   3.609 -0.1909  0.5906 -0.3109
   86MOL   N15729227   1.623   3.926   3.571 -0.2606  0.4874  0.7621
   86MOL   C15829228   1.576   3.909   3.437  0.6615 -0.7092  0.1668
   86MOL   C15929229   1.461   4.010   3.427 -0.3501 -0.2664  0.2550
   86MOL   C16029230   1.417   4.029   3.571 -0.5113 -0.0739  0.0860
   86MOL   C16129231   1.538   3.988   3.655 -0.4254 -0.1320 -0.2797
   86MOL   O16229232   1.560   4.027   3.768  0.4693 -0.4852  0.4210
   86MOL   H16329233   1.860   3.754   3.768  0.5599  0.1123 -1.7311
   86MOL   H16429234   1.693   3.808   3.802 -1.4024  1.5687 -1.4196
   86MOL   H16529235   1.806   3.834   3.518 -0.4866 -1.2391  0.2527
   86MOL   H16629236   1.655   3.930   3.365  0.3739  0.8680  0.2964
   86MOL   H16729237   1.544   3.805   3.432 -1.2504 -0.1443  0.1612
   86MOL   H16829238   1.505   4.101   3.387 -0.9616 -0.2944 -0.4786
   86MOL   H16929239   1.375   3.977   3.370  0.0094 -0.7066 -0.0336
   86MOL   H17029240   1.373   4.119   3.612 -0.6705  0.8520 -2.0337
   86MOL   H17129241   1.343   3.950   3.583 -1.8350  1.1839  0.2387
   86MOL   C17229242   1.854   3.986   3.656 -0.7409  0.4837  0.0159
   86MOL   C17329243   2.004   3.953   3.643 -0.0647 -0.1435 -0.1740
   86MOL   N17429244   2.052   4.000   3.512  0.9986  0.0818  0.3411
   86MOL   C17529245   2.082   3.910   3.405  0.1276 -0.0759 -0.0033
   86MOL   C17629246   2.095   3.989   3.273  0.1553  0.1382 -0.3237
   86MOL   C17729247   2.097   4.135   3.320 -0.0741 -0.5241 -0.2636
   86MOL   C17829248   2.079   4.126   3.464  0.0891  0.0337 -0.5584
   86MOL   O17929249   2.079   4.227   3.534  0.4625  0.1425 -0.2473
   86MOL   H18029250   1.841   4.016   3.760 -2.2283  0.8393 -0.2518
   86MOL   H18129251   1.844   4.073   3.592  0.9154 -0.9237 -2.2128
   86MOL   H18229252   2.008   3.845   3.638 -1.5065 -0.2341  0.3499
   86MOL   H18329253   2.176   3.867   3.441  1.0545  1.7542 -0.1777
   86MOL   H18429254   2.009   3.829   3.406 -1.1548  1.0787  2.2791
   86MOL   H18529255   2.008   3.966   3.210 -1.8009  0.2582  2.2720
   86MOL   H18629256   2.181   3.949   3.219  0.4969  1.2927 -0.6463
   86MOL   H18729257   2.196   4.174   3.296  1.0181 -4.1558 -2.0028
   86MOL   H18829258   2.023   4.201   3.274 -1.4414 -1.7684  0.0982
   86MOL   C18929259   2.090   4.015   3.759  0.0185  0.2473 -0.1383
   86MOL   C19029260   2.113   3.906   3.863  0.0725 -0.2305  0.8526
   86MOL   N19129261   2.198   3.795   3.808 -0.7201  0.4054  0.7746
   86MOL   C19229262   2.161   3.658   3.815 -0.5787  0.0013  0.8486
   86MOL   C19329263   2.270   3.576   3.750 -0.0598  0.1047  0.5797
   86MOL   C19429264   2.390   3.666   3.751  0.9124  0.7045 -0.1095
   86MOL   C19529265   2.330   3.803   3.781 -0.7063 -0.1486  0.1216
   86MOL   O19629266   2.407   3.901   3.787  0.3333 -0.0617  0.0097
   86MOL   H19729267   2.043   4.102   3.805 -0.8934 -1.5215  2.4079
   86MOL   H19829268   2.185   4.050   3.719  0.5639 -0.3872  0.5721
   86MOL   H19929269   2.020   3.853   3.882  0.7962 -1.4307  1.1532
   86MOL   H20029270   2.167   3.636   3.922  0.7423  2.9303  1.4300
   86MOL   H20129271   2.056   3.636   3.792 -0.3994  1.1665 -1.2021
   86MOL   H20229272   2.274   3.481   3.803  0.6587 -0.1639  0.0523
   86MOL   H20329273   2.243   3.551   3.647  0.2033 -1.7586  0.9362
   86MOL   H20429274   2.461   3.642   3.830  0.2220  0.7072  0.5223
   86MOL   H20529275   2.448   3.677   3.659 -0.6424  0.4877 -1.1305
   86MOL   C20629276   2.176   3.957   3.997  0.4942  0.1864 -0.5017
   86MOL   C20729277   2.085   4.038   4.093  0.8552 -0.7364 -0.2337
   86MOL   N20829278   1.952   3.980   4.120  0.5391  0.3342  0.2782
   86MOL   C20929279   1.938   3.840   4.180  0.1568  0.7101  0.7611
   86MOL   C21029280   1.784   3.815   4.168 -0.5812 -0.3249 -0.0135
   86MOL   C21129281   1.716   3.950   4.137 -0.2131  0.0900 -0.1979
   86MOL   C21229282   1.834   4.042   4.109 -0.4010  0.4902 -0.2227
   86MOL   O21329283   1.818   4.162   4.078  0.1563 -0.3309  0.1100
   86MOL   H21429284   2.259   4.023   3.972  1.0991 -0.5923 -0.5760
   86MOL   H21529285   2.222   3.866   4.037 -0.6408  0.1019  0.6209
   86MOL   H21629286   2.057   4.137   4.057 -1.1250 -2.0241 -2.3522
   86MOL   H21729287   1.991   3.758   4.131  0.7591  1.9462 -0.7098
   86MOL   H21829288   1.965   3.847   4.285 -0.1074 -1.6538  1.0208
   86MOL   H21929289   1.774   3.741   4.088  0.8445 -0.4441 -0.0837
   86MOL   H22029290   1.733   3.770   4.253  2.7226 -1.0248  1.6690
   86MOL   H22129291   1.646   3.954   4.054  0.3994  0.7895 -0.6792
   86MOL   H22229292   1.675   3.983   4.233 -1.2097  2.1910 -1.3236
   86MOL   C22329293   2.156   4.061   4.226  0.2315  0.1372 -0.0826
   86MOL   C22429294   2.085   4.151   4.320 -0.2014 -0.3106 -0.8403
   86MOL   N22529295   2.144   4.131   4.458 -0.8363 -0.3097  0.1042
   86MOL   C22629296   2.287   4.155   4.486  0.2595  1.2762 -0.2989
   86MOL   C22729297   2.300   4.150   4.643 -0.2938  0.0866 -0.2655
   86MOL   C22829298   2.163   4.092   4.688  0.3118  0.1932  0.0007
   86MOL   C22929299   2.073   4.103   4.568  0.6268  0.3840 -0.5711
   86MOL   O23029300   1.954   4.085   4.575  0.8139 -0.2402 -0.0591
   86MOL   H23129301   2.261   4.084   4.210  0.4606 -2.3276 -2.5587
   86MOL   H23229302   2.146   3.962   4.271 -1.5349  1.6568  3.0572
   86MOL   H23329303   1.980   4.119   4.319 -0.8744  1.6462  1.4644
   86MOL   H23429304   2.341   4.074   4.438 -2.1241 -0.0741 -0.8035
   86MOL   H23529305   2.312   4.256   4.455  1.0376  1.6951  1.5873
   86MOL   H23629306   2.384   4.089   4.678  0.1528  0.8815  0.0488
   86MOL   H23729307   2.292   4.251   4.684 -2.5420 -0.6044  1.0978
   86MOL   H23829308   2.165   3.990   4.727  2.5886  1.4696  3.4883
   86MOL   H23929309   2.122   4.152   4.769  0.8263 -0.0432  0.4406
   86MOL   C24029310   2.091   4.307   4.280 -0.5975 -0.0118  0.4131
   86MOL   C24129311   2.020   4.408   4.378  0.0191  0.2968  0.3804
   86MOL   N24229312   2.076   4.542   4.364  0.2751  0.5783 -0.3017
   86MOL   C24329313   2.063   4.629   4.242  0.6778 -0.2278 -0.8095
   86MOL   C24429314   2.112   4.768   4.290  0.6818  0.3355  0.2112
   86MOL   C24529315   2.199   4.743   4.411  0.0234  0.0783  0.2363
   86MOL   C24629316   2.158   4.602   4.451  0.2081 -0.1844 -1.1116
   86MOL   O24729317   2.194   4.550   4.556  0.4490  0.2004  0.3606
   86MOL   H24829318   2.032   4.313   4.189  1.3075  0.6118 -0.8091
   86MOL   H24929319   2.190   4.343   4.254 -0.0091 -1.2214  0.9748
   86MOL   H25029320   2.055   4.372   4.475 -0.7477 -1.3186  0.0736
   86MOL   H25129321   2.125   4.590   4.161  0.5471  2.0437 -2.0668
   86MOL   H25229322   1.962   4.631   4.202  0.1713 -0.7528  0.4163
   86MOL   H25329323   2.173   4.806   4.208 -0.2709 -0.2006 -0.7562
   86MOL   H25429324   2.031   4.840   4.299  0.6675  0.0384  3.1374
   86MOL   H25529325   2.305   4.736   4.384  0.4116  1.3342  1.3740
   86MOL   H25629326   2.187   4.817   4.490 -1.1192 -1.1252  1.1953
   86MOL   C25729327   1.859   4.402   4.363 -0.0925  0.3267 -0.3599
   86MOL   C25829328   1.789   4.517   4.443 -0.2814 -0.0983  0.9187
   86MOL   N25929329   1.742   4.622   4.353  0.2734 -0.2058  0.1151
   86MOL   C26029330   1.664   4.595   4.231 -0.5566 -0.1721  0.8035
   86MOL   C26129331   1.628   4.742   4.181  0.4381  0.6122 -0.8965
   86MOL   C26229332   1.713   4.836   4.257 -0.2051  0.3169 -0.2456
   86MOL   C26329333   1.773   4.750   4.365  0.0736 -0.0358  0.2882
   86MOL   O26429334   1.845   4.800   4.450 -0.7281  0.0865 -0.2596
   86MOL   H26529335   1.828   4.312   4.414 -1.9809  1.7093  0.9885
   86MOL   H26629336   1.823   4.395   4.260 -2.4720 -1.0419  0.5300
   86MOL   H26729337   1.859   4.560   4.514  1.9177 -3.0734  0.6614
   86MOL   H26829338   1.722   4.542   4.157 -0.4093  1.4143 -0.2340
   86MOL   H26929339   1.583   4.523   4.237  0.2389 -1.5586 -3.6009
   86MOL   H27029340   1.640   4.753   4.073 -0.8003  1.2032 -0.9882
   86MOL   H27129341   1.523   4.760   4.205  0.6586  1.8922 -0.8579
   86MOL   H27229342   1.796   4.875   4.197  0.5072  1.2472  1.3357
   86MOL   H27329343   1.655   4.916   4.302  2.1210 -0.3696  4.2590
   86MOL   C27429344   1.672   4.467   4.531  0.1208 -1.4414  0.1727
   86MOL   C27529345   1.710   4.390   4.655  0.6228  0.3232  0.3547
   86MOL   N27629346   1.799   4.466   4.740  0.3425 -0.3545  0.2518
   86MOL   C27729347   1.932   4.410   4.769  0.2386  0.0656 -0.2944
   86MOL   C27829348   2.003   4.498   4.860 -0.5995 -0.3132 -0.5488
   86MOL   C27929349   1.916   4.630   4.857  1.0875  0.2824 -0.6671
   86MOL   C28029350   1.793   4.591   4.779  1.6486 -0.3458 -0.6833
   86MOL   O28129351   1.688   4.666   4.766 -0.3275  0.0846  0.4376
   86MOL   H28229352   1.605   4.406   4.471 -0.9550 -0.6745  0.5928
   86MOL   H28329353   1.614   4.551   4.569  1.9164  0.6747 -1.6109
   86MOL   H28429354   1.768   4.306   4.616 -1.4345 -1.9228  1.9935
   86MOL   H28529355   1.931   4.304   4.796 -0.0335  0.1917  0.1994
   86MOL   H28629356   1.973   4.427   4.670  3.2274 -0.8437  0.7414
   86MOL   H28729357   2.004   4.458   4.961  0.3208  1.7597  0.2955
   86MOL   H28829358   2.106   4.511   4.827 -0.6147  0.0964 -0.4411
   86MOL   H28929359   1.892   4.662   4.958 -1.4185 -0.2916 -1.0579
   86MOL   H29029360   1.973   4.711   4.811  0.8845  0.1657 -1.1294
   86MOL   C29129361   1.587   4.344   4.731  0.1861  0.1208 -0.0349
   86MOL   C29229362   1.528   4.215   4.665  0.2642 -0.6232  0.2097
   86MOL   N29329363   1.624   4.104   4.646  0.1032  0.4319 -0.3256
   86MOL   C29429364   1.610   4.015   4.528 -0.4285  0.0172 -0.1760
   86MOL   C29529365   1.703   3.897   4.553  0.0177  0.5972 -0.1595
   86MOL   C29629366   1.743   3.905   4.696  0.1381  0.1482  0.0424
   86MOL   C29729367   1.681   4.035   4.747  0.3737  0.1156 -0.3400
   86MOL   O29829368   1.669   4.052   4.872  0.1157 -0.0484 -0.1021
   86MOL   H29929369   1.519   4.429   4.729  0.6568  0.4972 -4.0013
   86MOL   H30029370   1.632   4.334   4.830 -0.2925 -1.2067  0.0594
   86MOL   H30129371   1.490   4.252   4.569 -0.6240 -3.2099 -0.4583
   86MOL   H30229372   1.505   3.990   4.519  0.0659 -2.2801  0.2171
   86MOL   H30329373   1.645   4.069   4.439 -0.9785  0.4498 -0.1272
   86MOL   H30429374   1.646   3.807   4.530  1.7006 -0.9624  1.5411
   86MOL   H30529375   1.791   3.888   4.489  0.8858  1.2980  0.9019
   86MOL   H30629376   1.700   3.815   4.740 -0.8564  1.7402  2.4411
   86MOL   H30729377   1.852   3.903   4.703  0.2447  2.7457 -0.5057
   86MOL   C30829378   1.393   4.169   4.741 -0.0007 -0.8055 -0.2126
   86MOL   C30929379   1.272   4.258   4.709 -0.4395 -0.3228 -0.6605
   86MOL   N31029380   1.250   4.276   4.561  0.3295  0.5282 -0.4630
   86MOL   C31129381   1.248   4.412   4.507 -0.3429 -0.0633 -0.1613
   86MOL   C31229382   1.255   4.406   4.355  0.1068  0.2760  0.1746
   86MOL   C31329383   1.246   4.257   4.320  0.1348 -0.6764 -0.2494
   86MOL   C31429384   1.236   4.189   4.459 -0.0700  0.1494  0.3922
   86MOL   O31529385   1.218   4.065   4.467 -0.6568  0.1970  0.0790
   86MOL   H31629386   1.419   4.158   4.846 -0.6446 -3.4501 -0.3014
   86MOL   H31729387   1.371   4.075   4.690  0.9630 -1.5020  0.6302
   86MOL   H31829388   1.305   4.358   4.737  0.9531 -1.0060  0.1799
   86MOL   H31929389   1.160   4.469   4.538  0.2589  2.4180 -2.7904
   86MOL   H32029390   1.344   4.454   4.533 -0.4242  0.3503 -0.5243
   86MOL   H32129391   1.172   4.458   4.308 -0.2076  0.2668  0.7139
   86MOL   H32229392   1.350   4.442   4.314  1.0060 -0.1573  1.8435
   86MOL   H32329393   1.151   4.237   4.269 -0.4626  0.3272  0.4516
   86MOL   H32429394   1.328   4.222   4.257  0.3693 -1.9140  0.7318
   86MOL   C32529395   1.143   4.217   4.781  0.4154  0.1132  0.1523
   86MOL   C32629396   1.146   4.254   4.931  0.0047 -0.5175 -0.8899
   86MOL   N32729397   1.097   4.390   4.972 -0.2013  0.4209  0.4186
   86MOL   C32829398   1.107   4.429   5.110 -0.0770  1.0080 -0.0276
   86MOL   C32929399   1.043   4.568   5.119  0.6608 -0.8187 -0.4172
   86MOL   C33029400   1.023   4.618   4.980  0.1710 -0.0916  0.0371
   86MOL   C33129401   1.049   4.488   4.893 -0.1722 -0.4958  0.4783
   86MOL   O33229402   1.011   4.475   4.777 -0.0122  0.3221 -0.6372
   86MOL   H33329403   1.131   4.109   4.766 -0.4069  0.3105 -0.6149
   86MOL   H33429404   1.058   4.257   4.726  1.0015  2.0739  0.6674
   86MOL   H33529405   1.247   4.251   4.972 -0.8003 -0.0338  1.2458
   86MOL   H33629406   1.054   4.359   5.174  1.0793  1.7539  1.7952
   86MOL   H33729407   1.211   4.445   5.136 -0.0812 -0.0993  0.6822
   86MOL   H33829408   0.945   4.572   5.166  0.9359  2.0247  0.0275
   86MOL   H33929409   1.108   4.637   5.174  0.8933 -1.3545 -0.0224
   86MOL   H34029410   0.921   4.649   4.960  0.3316 -0.9829 -2.3114
   86MOL   H34129411   1.089   4.701   4.954 -0.2105  0.0605 -0.4567
   86MOL   H34229412   1.098   4.175   4.989  0.2054  1.8945  2.7886
   87MOL     C129413   3.558   0.599   6.837 -0.1733  0.3670 -0.2629
   87MOL     C229414   3.680   0.514   6.864  0.2631 -0.0752  0.3739
   87MOL     N329415   3.640   0.409   6.955 -0.1058  1.2604 -0.3866
   87MOL     C429416   3.717   0.408   7.076  0.2226 -0.3147 -0.6341
   87MOL     C529417   3.657   0.290   7.152 -0.4760  0.0656  0.6165
   87MOL     C629418   3.531   0.248   7.069 -0.4197 -0.0007  0.3545
   87MOL     C729419   3.550   0.315   6.941  0.6050 -0.0225 -0.3504
   87MOL     O829420   3.477   0.305   6.840 -0.4528  0.0340  0.4180
   87MOL     H929421   3.494   0.613   6.924 -2.3251 -1.0298 -1.5874
   87MOL    H1029422   3.595   0.693   6.796 -0.8536  0.4769 -0.6373
   87MOL    H1129423   3.758   0.571   6.917  1.5131  0.7670 -2.3014
   87MOL    H1229424   3.821   0.390   7.051  0.7836  0.3472  1.1613
   87MOL    H1329425   3.716   0.504   7.127 -0.1891  0.8386 -2.7497
   87MOL    H1429426   3.731   0.211   7.137 -0.7248  0.2545 -1.8250
   87MOL    H1529427   3.646   0.305   7.259  2.2734  0.0030  0.9535
   87MOL    H1629428   3.516   0.141   7.053 -1.7220  0.2723 -0.3758
   87MOL    H1729429   3.445   0.300   7.112 -0.2967  0.4499  0.0543
   87MOL    H1829430   3.503   0.561   6.751 -0.3275  3.6143 -1.6812
   87MOL    C1929431   3.759   0.453   6.742  0.1245  0.2184  0.1841
   87MOL    C2029432   3.798   0.540   6.628 -0.0787 -0.2876 -0.6508
   87MOL    N2129433   3.880   0.657   6.666  0.2800  0.3143  0.0138
   87MOL    C2229434   3.830   0.790   6.640 -0.4735 -0.1962  0.4946
   87MOL    C2329435   3.950   0.885   6.646  0.2162  0.1262 -0.2194
   87MOL    C2429436   4.057   0.798   6.715 -0.2096 -0.0503  0.1597
   87MOL    C2529437   4.003   0.651   6.711 -0.0639  0.2521 -0.3970
   87MOL    O2629438   4.070   0.554   6.745  0.1050 -0.1492 -0.1785
   87MOL    H2729439   3.704   0.366   6.707 -0.0063  0.6477 -0.6693
   87MOL    H2829440   3.848   0.402   6.778  0.0194  0.0604  0.2218
   87MOL    H2929441   3.695   0.569   6.609 -0.3643 -0.0359  1.1351
   87MOL    H3029442   3.776   0.793   6.546 -0.2758 -0.6375  0.3677
   87MOL    H3129443   3.755   0.822   6.713  0.1526  1.9236  0.2433
   87MOL    H3229444   3.982   0.901   6.543 -1.1624 -2.6470 -1.1482
   87MOL    H3329445   3.918   0.980   6.688 -0.8892  0.0520 -0.8853
   87MOL    H3429446   4.161   0.798   6.682 -0.5974  0.7666 -1.1154
   87MOL    H3529447   4.054   0.831   6.819 -1.7340  0.2825  0.0171
   87MOL    C3629448   3.852   0.454   6.510  0.3276 -0.3703 -0.9443
   87MOL    C3729449   3.762   0.459   6.389  0.4178 -0.1621 -0.3980
   87MOL    N3829450   3.822   0.398   6.266  0.2666 -0.0556  0.4130
   87MOL    C3929451   3.787   0.458   6.138 -0.8263  0.5155  0.3135
   87MOL    C4029452   3.825   0.356   6.033 -0.6107  0.8361 -0.3269
   87MOL    C4129453   3.929   0.266   6.105 -0.4992  0.2079  0.4300
   87MOL    C4229454   3.905   0.294   6.250 -0.9890 -1.0659 -0.9855
   87MOL    O4329455   3.962   0.237   6.342 -0.1414 -0.8910  0.1030
   87MOL    H4429456   3.887   0.358   6.547 -0.5888 -1.2932 -2.4401
   87MOL    H4529457   3.951   0.484   6.476 -0.4525  0.7962 -2.2330
   87MOL    H4629458   3.756   0.566   6.370 -1.3841 -0.0358  0.7802
   87MOL    H4729459   3.683   0.490   6.132 -1.1815 -0.5663  0.5467
   87MOL    H4829460   3.838   0.552   6.122  1.9780 -0.7626  1.5038
   87MOL    H4929461   3.733   0.307   6.001 -0.6615  1.4234 -1.0851
   87MOL    H5029462   3.846   0.424   5.951  0.5071  0.5777 -0.2627
   87MOL    H5129463   3.903   0.161   6.093 -1.5523  0.2407  2.3004
   87MOL    H5229464   4.032   0.291   6.078 -0.4426 -0.9853 -0.5320
   87MOL    C5329465   3.615   0.402   6.405 -0.0154 -0.1787  0.3363
   87MOL    C5429466   3.593   0.248   6.414 -0.6842  0.2680 -0.7120
   87MOL    N5529467   3.491   0.223   6.518  0.1818 -0.6301  0.0828
   87MOL    C5629468   3.505   0.111   6.604  0.5511  0.1260 -0.3516
   87MOL    C5729469   3.364   0.070   6.649 -0.3871 -0.2160  0.0020
   87MOL    C5829470   3.281   0.196   6.620  0.2956  0.3023  0.0305
   87MOL    C5929471   3.368   0.276   6.524  0.5902  0.1362 -0.5036
   87MOL    O6029472   3.325   0.373   6.467  0.7141 -0.3170  0.0495
   87MOL    H6129473   3.556   0.431   6.318 -0.8225  2.3550  1.6739
   87MOL    H6229474   3.563   0.443   6.491  1.3030  0.7619  0.7118
   87MOL    H6329475   3.687   0.208   6.453 -1.2038  1.4758  1.8750
   87MOL    H6429476   3.560   0.028   6.559  1.7008 -0.1173  1.4451
   87MOL    H6529477   3.562   0.132   6.694  1.9579  1.2080 -1.4724
   87MOL    H6629478   3.335   7.904   6.572  0.5142  0.3441 -0.8795
   87MOL    H6729479   3.364   0.017   6.744  1.6619 -0.4306 -0.0839
   87MOL    H6829480   3.183   0.169   6.582  0.3675 -0.4627  0.3825
   87MOL    H6929481   3.267   0.246   6.716 -1.6586  0.6940 -0.4457
   87MOL    C7029482   3.556   0.182   6.277  0.3608  0.8787  0.3150
   87MOL    C7129483   3.559   0.027   6.290  0.2493 -0.6645  0.1346
   87MOL    N7229484   3.496   7.875   6.165  0.1371 -0.3974 -0.4329
   87MOL    C7329485   3.352   7.843   6.177 -0.1546 -0.0051 -1.0217
   87MOL    C7429486   3.295   7.836   6.040 -0.1551  0.0882 -0.8063
   87MOL    C7529487   3.413   7.833   5.945 -1.2109  0.1213  0.0910
   87MOL    C7629488   3.524   7.890   6.038 -0.3165  0.0561  0.3890
   87MOL    O7729489   3.625   0.030   5.992 -0.2975  0.3294 -0.6533
   87MOL    H7829490   3.632   0.214   6.206 -0.6700  2.5590 -0.0675
   87MOL    H7929491   3.459   0.222   6.249 -0.2809 -1.8881 -1.5211
   87MOL    H8029492   3.497   7.895   6.371 -0.1667  1.1648  0.6975
   87MOL    H8129493   3.348   7.747   6.228  1.4179  0.5848  0.2704
   87MOL    H8229494   3.293   0.006   6.237 -1.4004 -2.0762  0.1815
   87MOL    H8329495   3.225   7.754   6.028 -1.5147  1.4623 -2.5376
   87MOL    H8429496   3.246   0.026   6.024  0.5116  0.3209 -1.5436
   87MOL    H8529497   3.426   7.727   5.923 -2.1473  0.3656 -1.7072
   87MOL    H8629498   3.392   7.896   5.858 -0.0011 -0.9618 -1.0028
   87MOL    C8729499   3.700   7.876   6.318 -0.3294  1.0523  0.5020
   87MOL    C8829500   3.713   7.725   6.279  0.1917 -0.8983 -0.2517
   87MOL    N8929501   3.851   7.677   6.287 -0.5274  0.0411 -0.2776
   87MOL    C9029502   3.946   7.696   6.174  0.5946 -0.6625 -0.4082
   87MOL    C9129503   4.088   7.669   6.223 -0.3022  0.1607  0.2600
   87MOL    C9229504   4.065   7.636   6.377 -0.4517 -1.0547 -0.5415
   87MOL    C9329505   3.916   7.636   6.400 -0.5768 -0.2731  0.6205
   87MOL    O9429506   3.852   7.600   6.503  0.0186  1.0958  0.4240
   87MOL    H9529507   3.728   7.894   6.422 -0.3154  0.4161  0.6140
   87MOL    H9629508   3.776   0.022   6.260  0.4580 -0.7649 -0.1212
   87MOL    H9729509   3.686   7.721   6.173 -0.5501 -1.2616 -0.0485
   87MOL    H9829510   3.921   7.626   6.095  0.4204 -1.5560  0.4295
   87MOL    H9929511   3.945   7.800   6.140 -0.8929 -0.4021  0.3973
   87MOL   H10029512   4.123   7.587   6.162 -2.4998 -0.5256 -0.1468
   87MOL   H10129513   4.153   7.754   6.202  0.1115 -0.6757 -1.9258
   87MOL   H10229514   4.107   7.546   6.421  1.3927 -0.0135 -0.1069
   87MOL   H10329515   4.100   7.722   6.434  0.1941 -0.9243 -1.1246
   87MOL   C10429516   3.601   7.637   6.355 -0.0760  0.3623  0.0220
   87MOL   C10529517   3.595   7.488   6.294 -0.4188  0.5414  0.3112
   87MOL   N10629518   3.513   7.403   6.384 -0.6388  0.4911  0.0219
   87MOL   C10729519   3.581   7.306   6.464 -0.7457 -0.7662 -0.1593
   87MOL   C10829520   3.474   7.232   6.548  0.2938 -0.6821 -0.6524
   87MOL   C10929521   3.341   7.297   6.512 -0.2768 -0.0334  0.3642
   87MOL   C11029522   3.381   7.401   6.408 -0.1586 -0.0191  0.4750
   87MOL   O11129523   3.296   7.477   6.361  0.3935  0.1219 -0.9574
   87MOL   H11229524   3.500   7.676   6.355 -0.4230 -0.5176 -1.6997
   87MOL   H11329525   3.624   7.627   6.462 -0.9032 -1.2844  0.0543
   87MOL   H11429526   3.698   7.456   6.303 -0.4255  0.3154 -0.3925
   87MOL   H11529527   3.643   7.230   6.415  0.6408  0.0420  0.2977
   87MOL   H11629528   3.659   7.355   6.523 -1.3666  0.8640 -0.6781
   87MOL   H11729529   3.468   7.129   6.514 -2.6703 -1.4380  1.9522
   87MOL   H11829530   3.501   7.247   6.652  2.2861  0.2427 -1.2672
   87MOL   H11929531   3.300   7.352   6.596 -1.0180  0.4924 -0.3311
   87MOL   H12029532   3.269   7.220   6.485  1.2514 -2.3201  2.5836
   87MOL   C12129533   3.553   7.498   6.143  0.2104  0.5068  0.0441
   87MOL   C12229534   3.500   7.374   6.082 -0.3657 -0.2712  0.5157
   87MOL   N12329535   3.436   7.404   5.952  0.0419 -0.1074  0.1073
   87MOL   C12429536   3.293   7.384   5.940  0.0819  0.9004 -1.4259
   87MOL   C12529537   3.262   7.392   5.794  0.0795 -0.1588  0.0484
   87MOL   C12629538   3.391   7.455   5.728 -0.0850 -0.5520 -0.1655
   87MOL   C12729539   3.492   7.464   5.841  0.0905  0.0901 -0.1725
   87MOL   O12829540   3.609   7.499   5.828 -0.5481  0.5895 -0.1085
   87MOL   H12929541   3.634   7.535   6.079  0.5973 -2.0023 -0.9868
   87MOL   H13029542   3.475   7.574   6.140 -1.0329 -0.6935  1.1595
   87MOL   H13129543   3.420   7.345   6.150  1.0009 -0.7036  1.9574
   87MOL   H13229544   3.235   7.464   5.986 -0.2991 -0.4716  0.4973
   87MOL   H13329545   3.270   7.287   5.983 -3.3719  0.9294 -3.0037
   87MOL   H13429546   3.242   7.291   5.760 -1.6258  0.2183 -0.0894
   87MOL   H13529547   3.174   7.453   5.775  0.4049 -0.2402 -1.8417
   87MOL   H13629548   3.437   7.392   5.652  3.0728  1.8813 -0.3670
   87MOL   H13729549   3.376   7.556   5.690 -2.9764 -1.8550 -2.6274
   87MOL   C13829550   3.610   7.256   6.063 -0.5208 -0.5758 -0.0520
   87MOL   C13929551   3.561   7.112   6.062 -0.4766  0.7662  0.1330
   87MOL   N14029552   3.674   7.019   6.060 -0.4439 -0.2355  0.8867
   87MOL   C14129553   3.694   6.934   5.944  0.0949 -0.1800  0.4939
   87MOL   C14229554   3.829   6.867   5.971  0.0719  0.4899 -0.7197
   87MOL   C14329555   3.871   6.898   6.117  0.3376 -0.4518  0.2876
   87MOL   C14429556   3.768   7.004   6.153 -0.4624  0.5036  0.1836
   87MOL   O14529557   3.781   7.067   6.255  0.0534 -0.2089 -0.1341
   87MOL   H14629558   3.682   7.269   6.144 -1.1550 -0.0082  0.4248
   87MOL   H14729559   3.667   7.274   5.972  1.1600 -1.7209  0.7526
   87MOL   H14829560   3.503   7.107   5.970 -1.0422  0.7847  0.4822
   87MOL   H14929561   3.623   6.855   5.918  0.6876 -0.3349 -0.6903
   87MOL   H15029562   3.704   6.993   5.854  5.0533 -1.4664  0.0698
   87MOL   H15129563   3.817   6.759   5.969 -2.3549  0.6863  1.2224
   87MOL   H15229564   3.913   6.893   5.906 -0.3419  0.5403 -1.2405
   87MOL   H15329565   3.973   6.935   6.124  0.4556 -0.8945  0.9177
   87MOL   H15429566   3.863   6.820   6.192  2.2480  1.5294  2.6461
   87MOL   C15529567   3.463   7.079   6.173 -0.3776  0.3074  0.0724
   87MOL   C15629568   3.400   6.940   6.170 -0.0835  0.5223  0.2171
   87MOL   N15729569   3.300   6.928   6.282 -0.8822 -0.4307 -0.0354
   87MOL   C15829570   3.322   6.834   6.385 -1.2023  0.1450  0.0614
   87MOL   C15929571   3.222   6.861   6.491  0.0205 -0.1253  0.2011
   87MOL   C16029572   3.136   6.974   6.436  0.2674 -0.0691 -0.2338
   87MOL   C16129573   3.202   7.018   6.310  0.1123 -0.4161 -0.1985
   87MOL   O16229574   3.159   7.107   6.241 -0.4066  0.0021  0.3458
   87MOL   H16329575   3.382   7.150   6.155  0.0909  0.6752 -0.6629
   87MOL   H16429576   3.515   7.111   6.263  0.4060  1.7899 -0.8690
   87MOL   H16529577   3.490   6.883   6.196 -1.4827 -1.7920  0.1633
   87MOL   H16629578   3.304   6.734   6.347  0.1838 -0.5868  1.2863
   87MOL   H16729579   3.420   6.845   6.431 -0.4647 -0.4794 -1.3561
   87MOL   H16829580   3.154   6.777   6.507  0.7739 -0.6704  0.5230
   87MOL   H16929581   3.264   6.887   6.588 -0.2169 -0.2519  0.3373
   87MOL   H17029582   3.043   6.930   6.400 -0.8658  1.7382  0.3525
   87MOL   H17129583   3.120   7.056   6.506 -0.2778 -0.9618  0.6993
   87MOL   C17229584   3.336   6.892   6.042 -0.1169  0.6213 -0.5159
   87MOL   C17329585   3.303   6.745   6.051  0.2035  0.5554  0.0182
   87MOL   N17429586   3.244   6.704   5.921 -0.6258  0.0719 -0.2886
   87MOL   C17529587   3.103   6.689   5.919  0.2356  0.0356 -0.5416
   87MOL   C17629588   3.064   6.664   5.771 -0.0397 -0.5946  0.0819
   87MOL   C17729589   3.184   6.660   5.700 -0.2752 -0.1838  0.6461
   87MOL   C17829590   3.290   6.712   5.798  0.3935 -0.2788  0.8186
   87MOL   O17929591   3.400   6.746   5.765 -0.1073  0.1840 -0.5197
   87MOL   H18029592   3.405   6.904   5.959  1.9709  0.5389  1.1687
   87MOL   H18129593   3.247   6.953   6.023 -1.9594 -1.7943  0.1026
   87MOL   H18229594   3.222   6.741   6.124  0.5160  2.5772  0.5057
   87MOL   H18329595   3.063   6.613   5.985 -1.8043  1.3898 -0.1629
   87MOL   H18429596   3.067   6.786   5.955  0.3227  0.0475 -0.4855
   87MOL   H18529597   2.999   6.744   5.735 -2.0350 -2.5682 -0.8308
   87MOL   H18629598   3.009   6.572   5.753 -1.1096  0.4657 -2.4118
   87MOL   H18729599   3.198   6.559   5.662  0.1385  0.1823 -0.2085
   87MOL   H18829600   3.176   6.719   5.609  2.6957  2.6471  2.0693
   87MOL   C18929601   3.421   6.643   6.080 -0.7241  0.3161 -0.0532
   87MOL   C19029602   3.384   6.495   6.114  0.7960  0.8274  0.0173
   87MOL   N19129603   3.353   6.409   6.002 -0.0574 -0.5084  0.2966
   87MOL   C19229604   3.452   6.369   5.905  0.2410 -0.9343  0.5152
   87MOL   C19329605   3.376   6.281   5.804  0.7682 -0.1084  0.4729
   87MOL   C19429606   3.232   6.268   5.856  0.2170 -0.2460 -0.5651
   87MOL   C19529607   3.231   6.358   5.974  0.4452 -0.1932  0.7922
   87MOL   O19629608   3.130   6.377   6.044 -0.3151  0.3044 -0.9023
   87MOL   H19729609   3.461   6.677   6.176  0.3091  2.1623 -1.0970
   87MOL   H19829610   3.501   6.640   6.006 -1.3100  0.3184 -0.6868
   87MOL   H19929611   3.301   6.506   6.185  1.0808 -0.8735  0.6409
   87MOL   H20029612   3.478   6.459   5.850 -1.8462 -0.1162  0.8581
   87MOL   H20129613   3.542   6.326   5.950  0.4784 -0.8287  0.1444
   87MOL   H20229614   3.364   6.326   5.705  2.4730 -0.2903  0.1670
   87MOL   H20329615   3.420   6.181   5.799  2.4810  0.6917 -1.3758
   87MOL   H20429616   3.156   6.284   5.778 -0.7398  0.9487  0.5874
   87MOL   H20529617   3.214   6.165   5.888  0.4749 -0.1719 -0.1878
   87MOL   C20629618   3.488   6.429   6.206 -0.2704 -1.0264  0.5507
   87MOL   C20729619   3.433   6.339   6.323 -0.5102 -0.6433  0.4342
   87MOL   N20829620   3.384   6.214   6.268 -0.3149 -0.2420  0.0104
   87MOL   C20929621   3.245   6.179   6.294  0.2654 -0.3644  0.1988
   87MOL   C21029622   3.226   6.045   6.226  0.0128  0.1969 -0.4795
   87MOL   C21129623   3.362   6.015   6.152 -0.0602 -1.0348  0.0413
   87MOL   C21229624   3.451   6.130   6.190 -0.4312 -0.1862 -0.0608
   87MOL   O21329625   3.567   6.134   6.151 -0.2632 -0.3122  0.1000
   87MOL   H21429626   3.542   6.503   6.266 -0.6613  0.0154 -0.3796
   87MOL   H21529627   3.568   6.382   6.148 -1.8833  1.3153 -3.7025
   87MOL   H21629628   3.344   6.394   6.354  0.4638  1.1252  0.2100
   87MOL   H21729629   3.233   6.143   6.396 -2.2143 -1.2840 -0.3897
   87MOL   H21829630   3.168   6.254   6.277 -1.1815 -1.6680  0.8292
   87MOL   H21929631   3.196   5.962   6.290  0.7916  0.3347  0.0728
   87MOL   H22029632   3.144   6.053   6.154  0.9035  0.6815 -1.4512
   87MOL   H22129633   3.404   5.918   6.176  0.5763 -1.3186 -2.0783
   87MOL   H22229634   3.356   6.017   6.043  2.0917 -1.1156 -0.1051
   87MOL   C22329635   3.531   6.313   6.438 -0.4212 -0.0366  0.3970
   87MOL   C22429636   3.527   6.429   6.538  0.2133 -0.2260  0.0405
   87MOL   N22529637   3.404   6.434   6.620 -0.7281  0.6294  0.0406
   87MOL   C22629638   3.340   6.314   6.671 -0.1669 -0.2449 -0.3628
   87MOL   C22729639   3.231   6.355   6.756  0.3783  0.6726  0.0298
   87MOL   C22829640   3.229   6.514   6.743  0.3614  0.2895 -0.6606
   87MOL   C22929641   3.349   6.548   6.658 -0.0105  0.1977  0.1103
   87MOL   O23029642   3.379   6.657   6.612  0.6927  0.0306 -0.2595
   87MOL   H23129643   3.626   6.299   6.387 -0.4954 -0.3612  0.3498
   87MOL   H23229644   3.506   6.216   6.481 -0.2124  0.2676  1.2252
   87MOL   H23329645   3.535   6.515   6.471 -0.7257 -1.3473 -1.5316
   87MOL   H23429646   3.296   6.257   6.589  0.1023 -0.9527 -0.0215
   87MOL   H23529647   3.415   6.243   6.706 -0.6482 -0.2242  0.7400
   87MOL   H23629648   3.139   6.301   6.731  1.5759 -2.2114  1.6830
   87MOL   H23729649   3.268   6.323   6.853  1.8198 -1.5073 -1.2067
   87MOL   H23829650   3.142   6.560   6.697 -1.3647 -0.7489  1.4775
   87MOL   H23929651   3.254   6.554   6.841  2.4573  0.3294 -1.1971
   87MOL   C24029652   3.655   6.424   6.627  0.5579  0.7034 -0.2049
   87MOL   C24129653   3.761   6.528   6.594 -0.1287  0.0367 -0.0813
   87MOL   N24229654   3.710   6.661   6.631  0.3055  0.3978 -0.5666
   87MOL   C24329655   3.691   6.762   6.525  0.0860  0.4274 -0.5138
   87MOL   C24429656   3.652   6.899   6.597  0.3431 -0.5124  0.4098
   87MOL   C24529657   3.648   6.859   6.744  0.2139 -0.5966 -0.1721
   87MOL   C24629658   3.686   6.709   6.750  0.2269  0.0920 -0.4839
   87MOL   O24729659   3.694   6.642   6.858 -0.2479  0.2899 -0.0379
   87MOL   H24829660   3.694   6.324   6.611  2.2174  1.4417 -0.8891
   87MOL   H24929661   3.618   6.412   6.728 -1.3741 -2.9189 -1.2730
   87MOL   H25029662   3.776   6.518   6.486 -1.8681  1.0032 -0.4415
   87MOL   H25129663   3.783   6.765   6.466 -0.5181 -0.7404 -1.5482
   87MOL   H25229664   3.608   6.737   6.459  1.3850 -1.0383 -1.6378
   87MOL   H25329665   3.727   6.966   6.554 -1.4579  1.6402  0.5395
   87MOL   H25429666   3.551   6.936   6.577  0.0875 -0.2986  2.0293
   87MOL   H25529667   3.723   6.915   6.800 -0.5379 -0.4091  0.6513
   87MOL   H25629668   3.553   6.866   6.796 -0.9387 -2.1635 -1.9930
   87MOL   C25729669   3.892   6.485   6.666  0.1677 -0.0224  0.8934
   87MOL   C25829670   4.006   6.591   6.682 -0.1387  0.3613  0.9496
   87MOL   N25929671   4.101   6.548   6.784  0.7761  0.0693  0.7150
   87MOL   C26029672   4.095   6.610   6.919  0.9920  0.1561 -0.9579
   87MOL   C26129673   4.181   6.517   7.003 -0.5278  0.6632 -0.0141
   87MOL   C26229674   4.225   6.399   6.918 -0.3701  0.4243 -0.0555
   87MOL   C26329675   4.165   6.431   6.780 -0.3772 -0.1535 -0.5448
   87MOL   O26429676   4.167   6.352   6.683  0.3418 -0.5246 -0.6950
   87MOL   H26529677   3.922   6.391   6.620 -0.3693  0.0450  0.4031
   87MOL   H26629678   3.875   6.467   6.773 -0.7368  2.8041  1.2614
   87MOL   H26729679   3.958   6.680   6.723 -1.7640  0.6736 -1.5220
   87MOL   H26829680   4.132   6.712   6.911 -0.5335  0.7337 -0.7976
   87MOL   H26929681   3.994   6.606   6.960  1.0042 -1.7074 -1.0500
   87MOL   H27029682   4.269   6.561   7.050  0.8343 -0.9243 -1.0164
   87MOL   H27129683   4.112   6.488   7.082 -0.2991  0.2521  0.0366
   87MOL   H27229684   4.333   6.388   6.911 -0.3140  1.6297 -1.5435
   87MOL   H27329685   4.175   6.303   6.931 -0.8991  0.7831  0.5771
   87MOL   C27429686   4.072   6.630   6.546 -0.4986  0.2163  0.3824
   87MOL   C27529687   4.145   6.768   6.544  0.6730 -0.1547  0.0388
   87MOL   N27629688   4.266   6.775   6.462  0.9296 -0.2318  0.1563
   87MOL   C27729689   4.396   6.810   6.521  0.5821  0.0364  0.2051
   87MOL   C27829690   4.499   6.778   6.417 -0.2973  0.2182 -0.5122
   87MOL   C27929691   4.426   6.708   6.301 -0.1878  0.3781 -0.0709
   87MOL   C28029692   4.279   6.730   6.336  0.4901 -0.0633 -0.1864
   87MOL   O28129693   4.187   6.705   6.257  0.1020 -0.0901 -0.2468
   87MOL   H28229694   4.008   6.629   6.458  0.7829  0.5216 -0.5553
   87MOL   H28329695   4.149   6.556   6.527  0.4066  1.4125 -0.6928
   87MOL   H28429696   4.183   6.770   6.647  1.7451 -1.7265 -0.3009
   87MOL   H28529697   4.402   6.909   6.565  3.5951  0.1642 -0.4080
   87MOL   H28629698   4.418   6.757   6.614  0.8183  0.5433  0.4403
   87MOL   H28729699   4.552   6.868   6.383  1.1124 -0.4447 -0.1014
   87MOL   H28829700   4.577   6.718   6.463  1.6007  2.2973 -0.9212
   87MOL   H28929701   4.446   6.742   6.200  1.1206  0.2409  0.1266
   87MOL   H29029702   4.443   6.600   6.308  1.4248  0.7149  1.6302
   87MOL   C29129703   4.041   6.891   6.531  0.2079 -0.4598  0.1224
   87MOL   C29229704   4.102   7.022   6.588  0.6509 -0.0692 -0.3162
   87MOL   N29329705   4.162   7.110   6.481  0.7037 -0.4615 -0.1452
   87MOL   C29429706   4.098   7.136   6.350  0.1394 -0.8826  0.2531
   87MOL   C29529707   4.186   7.243   6.287  0.4524 -0.1631 -0.4293
   87MOL   C29629708   4.296   7.273   6.389  0.3688  0.9400 -0.1590
   87MOL   C29729709   4.279   7.176   6.498 -0.2251  0.2554 -0.2829
   87MOL   O29829710   4.352   7.145   6.591 -0.0260 -0.0285 -0.1818
   87MOL   H29929711   3.955   6.869   6.595  0.3725 -1.3899  0.0405
   87MOL   H30029712   3.996   6.900   6.432 -0.9957 -1.1822  0.5906
   87MOL   H30129713   4.176   7.001   6.665  1.0834  1.3536 -0.3200
   87MOL   H30229714   4.095   7.046   6.289  4.9159 -0.1536 -1.2812
   87MOL   H30329715   3.996   7.166   6.373 -0.3030 -1.3005 -1.1290
   87MOL   H30429716   4.228   7.203   6.194 -0.3002 -0.6663 -0.5568
   87MOL   H30529717   4.130   7.332   6.260 -0.1122 -0.5810 -0.6436
   87MOL   H30629718   4.396   7.279   6.346  0.1991 -0.7055 -0.8267
   87MOL   H30729719   4.276   7.374   6.426  0.7702 -0.0260  2.8472
   87MOL   C30829720   3.992   7.099   6.672  0.0668  0.3849 -0.2380
   87MOL   C30929721   4.042   7.214   6.766 -0.0980 -0.0097  0.2666
   87MOL   N31029722   3.936   7.310   6.807 -0.1301 -0.2797  0.0369
   87MOL   C31129723   3.980   7.442   6.848  0.5589  0.0513 -0.2622
   87MOL   C31229724   3.851   7.519   6.861  0.2890  0.4297  0.0451
   87MOL   C31329725   3.740   7.422   6.867  0.2924  0.2513  0.2071
   87MOL   C31429726   3.805   7.291   6.820  0.4494 -0.4511 -0.1557
   87MOL   O31529727   3.752   7.183   6.803  0.1023  0.1839 -0.6056
   87MOL   H31629728   3.936   7.034   6.739 -0.7138 -1.4299 -2.5826
   87MOL   H31729729   3.922   7.145   6.602 -0.1125  1.3577  0.5651
   87MOL   H31829730   4.121   7.269   6.716 -0.0963 -1.5303 -1.4731
   87MOL   H31929731   4.045   7.438   6.935 -0.8223  2.4462  0.9431
   87MOL   H32029732   4.041   7.482   6.767  0.0910  0.2646 -0.5080
   87MOL   H32129733   3.853   7.577   6.953 -0.2855  1.8122 -0.7987
   87MOL   H32229734   3.843   7.587   6.776  0.3188 -0.9651 -1.0977
   87MOL   H32329735   3.691   7.424   6.964  0.5706 -1.3928  0.3982
   87MOL   H32429736   3.652   7.445   6.807  1.4948  1.9612 -0.9366
   87MOL   C32529737   4.100   7.149   6.892 -0.6476  0.7032  0.0823
   87MOL   C32629738   4.219   7.222   6.950  0.1591  0.1030  0.5405
   87MOL   N32729739   4.271   7.168   7.075 -0.5075 -0.2804 -0.4568
   87MOL   C32829740   4.258   7.247   7.198 -0.5388  0.0284  0.2922
   87MOL   C32929741   4.286   7.145   7.307  0.0357 -0.7346  0.0238
   87MOL   C33029742   4.359   7.026   7.238  0.4400  0.4371  0.5188
   87MOL   C33129743   4.320   7.045   7.094  0.5705 -0.3706  0.0296
   87MOL   O33229744   4.332   6.953   7.014 -0.2764 -0.0497  0.2274
   87MOL   H33329745   4.140   7.049   6.872  0.3214  1.0036  0.4780
   87MOL   H33429746   4.021   7.136   6.966  0.8654 -1.1853  1.4461
   87MOL   H33529747   4.188   7.323   6.975  0.7413  0.7526 -1.3115
   87MOL   H33629748   4.323   7.334   7.207  2.7857 -2.4204  0.8832
   87MOL   H33729749   4.157   7.286   7.214 -0.4307 -0.2459  1.7453
   87MOL   H33829750   4.347   7.185   7.387 -1.8516  1.1009  0.6058
   87MOL   H33929751   4.190   7.114   7.347 -0.5293 -1.1276 -1.5776
   87MOL   H34029752   4.468   7.030   7.239  0.5130  0.1368 -1.8975
   87MOL   H34129753   4.323   6.930   7.274  1.0193 -0.3177 -0.8733
   87MOL   H34229754   4.300   7.226   6.878  1.2656 -1.1586  1.6806
   88MOL     C129755   4.428   3.014   3.129  0.0100 -0.4170  0.4092
   88MOL     C229756   4.537   3.119   3.112 -0.3687  0.2020  0.4440
   88MOL     N329757   4.497   3.251   3.179 -0.1688  0.3802 -0.0080
   88MOL     C429758   4.464   3.360   3.100  0.2651 -0.1711 -0.2547
   88MOL     C529759   4.403   3.462   3.194  0.4597 -0.1910 -0.0626
   88MOL     C629760   4.452   3.424   3.329 -0.2099  0.0982 -0.2164
   88MOL     C729761   4.489   3.277   3.311  0.2602 -0.1678 -0.2655
   88MOL     O829762   4.517   3.207   3.404 -0.2390 -0.2916 -0.0039
   88MOL     H929763   4.335   3.050   3.084  0.5939  0.9403  0.2555
   88MOL    H1029764   4.474   2.926   3.085 -2.9670 -2.1757  0.7012
   88MOL    H1129765   4.540   3.137   3.005 -1.5958 -0.4114  0.2940
   88MOL    H1229766   4.544   3.415   3.051  1.2983 -0.7914  0.7207
   88MOL    H1329767   4.394   3.343   3.018 -0.8831 -0.2763  0.7358
   88MOL    H1429768   4.437   3.562   3.163  2.1114 -0.5823  0.4371
   88MOL    H1529769   4.295   3.462   3.179  0.3959  0.2927  0.4030
   88MOL    H1629770   4.531   3.493   3.361  0.5154 -0.3379 -1.0485
   88MOL    H1729771   4.372   3.416   3.402 -0.7102  4.0436 -0.2290
   88MOL    H1829772   4.403   2.997   3.234 -0.5655  0.2323  0.3804
   88MOL    C1929773   4.676   3.069   3.145  0.1165 -0.1391 -0.1467
   88MOL    C2029774   4.796   3.168   3.120  0.4584  0.2771  0.2831
   88MOL    N2129775   4.822   3.250   3.236 -0.2103 -0.0329 -0.2134
   88MOL    C2229776   4.815   3.395   3.230  0.3988 -0.8145 -0.0220
   88MOL    C2329777   4.856   3.446   3.361 -0.4936  0.2459 -0.9189
   88MOL    C2429778   4.863   3.316   3.451 -0.4049  0.4411  0.2167
   88MOL    C2529779   4.868   3.203   3.356 -0.4955 -0.5583 -0.5239
   88MOL    O2629780   4.903   3.091   3.391  0.3009  0.3924  0.7838
   88MOL    H2729781   4.691   2.984   3.078 -0.1327 -0.1582 -0.1802
   88MOL    H2829782   4.686   3.023   3.243  0.0905 -0.3248 -0.2294
   88MOL    H2929783   4.765   3.235   3.040  1.4550 -2.2690 -2.2961
   88MOL    H3029784   4.888   3.431   3.157 -2.2273  1.1949 -1.7541
   88MOL    H3129785   4.716   3.433   3.204  0.3932 -0.3920  0.6126
   88MOL    H3229786   4.946   3.507   3.351  0.2506 -0.6319  0.2910
   88MOL    H3329787   4.791   3.524   3.400 -0.3700 -0.5773  1.0223
   88MOL    H3429788   4.943   3.316   3.525 -0.9378 -0.7295  0.8047
   88MOL    H3529789   4.772   3.306   3.510  0.3616  0.3019  1.3717
   88MOL    C3629790   4.927   3.093   3.078  0.0425  0.5730 -0.3206
   88MOL    C3729791   4.945   3.038   2.937 -0.5448  0.8089 -0.2752
   88MOL    N3829792   4.933   3.157   2.849  0.0580 -0.2796  0.0208
   88MOL    C3929793   4.819   3.175   2.758  0.6008  0.0152 -0.1103
   88MOL    C4029794   4.842   3.305   2.691 -0.1300 -0.4633 -0.2564
   88MOL    C4129795   4.960   3.370   2.769 -0.1925 -1.2423 -0.0499
   88MOL    C4229796   5.011   3.263   2.855  0.4683  0.3052  0.3493
   88MOL    O4329797   5.104   3.286   2.930 -0.2312  0.3483  0.1046
   88MOL    H4429798   4.940   3.011   3.148  2.9783  1.7897  0.6584
   88MOL    H4529799   5.010   3.157   3.108 -0.4874  0.9044  0.4557
   88MOL    H4629800   4.864   2.969   2.913  0.3194 -0.4733  0.4339
   88MOL    H4729801   4.820   3.099   2.680  1.0815  0.4186 -0.5054
   88MOL    H4829802   4.727   3.165   2.814  1.0945  1.6338  1.0410
   88MOL    H4929803   4.882   3.271   2.596  0.3403  1.2010 -0.6835
   88MOL    H5029804   4.754   3.364   2.663  0.5016  0.3257 -0.6016
   88MOL    H5129805   5.046   3.401   2.709 -0.2938  1.0474  0.9484
   88MOL    H5229806   4.922   3.453   2.828  1.3038  0.2052 -1.0913
   88MOL    C5329807   5.080   2.960   2.911  0.1088 -0.3511 -1.0021
   88MOL    C5429808   5.125   2.849   3.010 -0.1296  0.0897 -0.1331
   88MOL    N5529809   5.005   2.776   3.073  0.3985  0.1984  0.0889
   88MOL    C5629810   4.988   2.754   3.215 -0.9410 -0.1657 -0.6517
   88MOL    C5729811   4.864   2.667   3.244  0.8164  0.1044 -0.3465
   88MOL    C5829812   4.806   2.655   3.100  0.4399  0.0221  0.3969
   88MOL    C5929813   4.904   2.724   3.010  0.0687  0.2627  0.6174
   88MOL    O6029814   4.886   2.719   2.885  0.1145  0.9076 -0.5175
   88MOL    H6129815   5.160   3.034   2.908  0.1157 -0.4147 -4.2457
   88MOL    H6229816   5.083   2.913   2.813  1.7183  1.1362 -1.6936
   88MOL    H6329817   5.180   2.899   3.090  0.0903  1.6327 -1.2299
   88MOL    H6429818   5.064   2.682   3.247 -2.2242 -0.4690  1.8434
   88MOL    H6529819   4.984   2.849   3.268 -0.9909 -1.0835  1.0215
   88MOL    H6629820   4.877   2.566   3.282  1.9462 -0.1450 -1.3808
   88MOL    H6729821   4.802   2.722   3.315 -1.1213 -1.0126 -1.1223
   88MOL    H6829822   4.793   2.547   3.086  0.5796 -0.0032  0.4670
   88MOL    H6929823   4.710   2.705   3.087  0.2566  0.0453  1.8185
   88MOL    C7029824   5.227   2.752   2.941  0.6096  0.3523 -0.2209
   88MOL    C7129825   5.301   2.646   3.023  0.1573  0.3253 -0.0342
   88MOL    N7229826   5.308   2.513   2.953  0.0095 -0.6277 -0.3077
   88MOL    C7329827   5.232   2.393   3.002 -0.6541 -0.1297  0.2064
   88MOL    C7429828   5.280   2.285   2.913 -0.2282  0.0374 -0.1953
   88MOL    C7529829   5.343   2.352   2.789 -0.6443  0.3160 -0.2198
   88MOL    C7629830   5.369   2.488   2.837  0.1930 -0.1580 -0.3069
   88MOL    O7729831   5.432   2.571   2.763  0.7844  0.1001  0.1925
   88MOL    H7829832   5.288   2.805   2.868 -0.9461  2.7209  0.1342
   88MOL    H7929833   5.155   2.696   2.881 -0.5105 -0.5134  1.9047
   88MOL    H8029834   5.248   2.635   3.118 -0.2389 -0.9954 -0.4019
   88MOL    H8129835   5.256   2.374   3.107  0.8753  1.2626  0.1135
   88MOL    H8229836   5.123   2.405   3.001 -0.7032 -0.5978 -0.2614
   88MOL    H8329837   5.344   2.211   2.961 -0.1591 -0.6788 -1.3797
   88MOL    H8429838   5.197   2.222   2.882  0.0618  0.4661 -1.9415
   88MOL    H8529839   5.429   2.298   2.749 -1.9299 -1.6506 -0.3785
   88MOL    H8629840   5.272   2.363   2.707  0.1144  4.8057 -0.3882
   88MOL    C8729841   5.442   2.687   3.067  0.4264 -0.5275  0.0678
   88MOL    C8829842   5.507   2.583   3.161  0.4788 -0.1384 -0.2835
   88MOL    N8929843   5.649   2.600   3.184 -0.1937  1.1880  0.1443
   88MOL    C9029844   5.743   2.498   3.157  0.5616  0.0788  0.2115
   88MOL    C9129845   5.888   2.546   3.200 -0.2023  0.3476 -0.4064
   88MOL    C9229846   5.865   2.688   3.247  0.5809 -0.7314  0.3536
   88MOL    C9329847   5.709   2.709   3.243 -0.3476 -0.2008  0.9619
   88MOL    O9429848   5.651   2.804   3.284 -0.0793  0.3156 -0.5375
   88MOL    H9529849   5.432   2.779   3.124 -0.7586  1.1639 -2.7414
   88MOL    H9629850   5.511   2.713   2.987 -1.0510  1.7642 -0.5154
   88MOL    H9729851   5.510   2.491   3.102  0.1858 -0.0762 -0.3980
   88MOL    H9829852   5.715   2.408   3.212 -0.2486  0.1146 -0.1278
   88MOL    H9929853   5.737   2.480   3.049  1.8293  2.7989 -0.3365
   88MOL   H10029854   5.927   2.481   3.278 -2.8295  0.2634  0.8989
   88MOL   H10129855   5.950   2.565   3.113  1.3413 -0.6049  0.4649
   88MOL   H10229856   5.904   2.711   3.347  1.8213 -0.8115 -0.1041
   88MOL   H10329857   5.899   2.770   3.185 -0.3217  0.2947  1.1964
   88MOL   C10429858   5.435   2.561   3.293  0.5986  0.0412  0.0469
   88MOL   C10529859   5.501   2.470   3.393 -0.3755  0.0261 -0.3044
   88MOL   N10629860   5.585   2.540   3.495  0.6191  0.0903 -0.3501
   88MOL   C10729861   5.712   2.479   3.541 -0.6733  0.0279  0.7918
   88MOL   C10829862   5.781   2.585   3.630  0.3793 -0.5555 -0.0389
   88MOL   C10929863   5.673   2.694   3.649 -0.7753 -0.0645 -0.6454
   88MOL   C11029864   5.557   2.654   3.561  0.5530 -0.6684  0.7586
   88MOL   O11129865   5.448   2.717   3.557 -0.3182 -0.2041  0.3792
   88MOL   H11229866   5.335   2.519   3.278  0.3170 -0.2088  2.4578
   88MOL   H11329867   5.403   2.658   3.330 -0.2012  0.2224 -1.0787
   88MOL   H11429868   5.563   2.389   3.353 -0.2180  0.0496 -0.1073
   88MOL   H11529869   5.697   2.393   3.606  0.9688  0.1727  1.3773
   88MOL   H11629870   5.776   2.439   3.462 -0.1859 -1.3380  1.8581
   88MOL   H11729871   5.803   2.532   3.722  0.5209 -1.4714 -0.5953
   88MOL   H11829872   5.870   2.626   3.582  0.1391  1.1344  0.9022
   88MOL   H11929873   5.718   2.792   3.631  0.5591 -0.8084 -1.4877
   88MOL   H12029874   5.634   2.707   3.750  0.5459  1.8257 -0.3319
   88MOL   C12129875   5.391   2.388   3.474  0.9000  0.4871  0.5568
   88MOL   C12229876   5.360   2.251   3.421  0.2197  0.3338  0.5345
   88MOL   N12329877   5.475   2.165   3.427  0.0600  0.4614 -0.8119
   88MOL   C12429878   5.557   2.129   3.309  0.2588  0.4935  0.7670
   88MOL   C12529879   5.702   2.113   3.353  0.3997 -0.4019 -0.9551
   88MOL   C12629880   5.683   2.086   3.503 -0.2799 -0.1284 -0.1647
   88MOL   C12729881   5.541   2.129   3.537 -0.9293 -0.4616  0.1348
   88MOL   O12829882   5.498   2.136   3.652  0.3214 -0.4556  0.3447
   88MOL   H12929883   5.304   2.453   3.472  0.0157 -0.7202 -0.5722
   88MOL   H13029884   5.421   2.372   3.578  0.6103 -2.0701  0.2874
   88MOL   H13129885   5.334   2.258   3.316 -0.9112  0.4248  0.8150
   88MOL   H13229886   5.543   2.202   3.229  0.0151 -0.2287  0.1378
   88MOL   H13329887   5.521   2.034   3.268  1.7828  0.7482 -1.2603
   88MOL   H13429888   5.745   2.031   3.296  0.1744  1.5926 -4.0819
   88MOL   H13529889   5.764   2.202   3.341  0.9660 -0.8949 -1.7556
   88MOL   H13629890   5.709   1.981   3.522 -0.5349  0.1655  1.9774
   88MOL   H13729891   5.759   2.137   3.562 -1.6950  0.6091  1.0572
   88MOL   C13829892   5.244   2.187   3.497  0.0253 -1.3344 -0.1502
   88MOL   C13929893   5.102   2.219   3.446  0.2942  0.2435 -0.0102
   88MOL   N14029894   5.068   2.153   3.324  0.3491  0.1220  0.3249
   88MOL   C14129895   4.995   2.234   3.225  0.6802 -0.8575  0.6517
   88MOL   C14229896   4.960   2.142   3.103  0.1855 -0.2174 -0.8389
   88MOL   C14329897   5.024   2.006   3.142  0.3425 -0.5796  0.2486
   88MOL   C14429898   5.070   2.024   3.287 -0.2161  0.7859 -0.4494
   88MOL   O14529899   5.082   1.930   3.368  0.0123 -0.2454  0.3614
   88MOL   H14629900   5.244   2.222   3.600  3.3685 -1.3417 -0.0927
   88MOL   H14729901   5.253   2.078   3.502  0.3336 -1.2858  0.4045
   88MOL   H14829902   5.085   2.326   3.432  0.0782  0.9016  4.4350
   88MOL   H14929903   4.902   2.261   3.276 -1.0320 -2.7440 -1.3822
   88MOL   H15029904   5.033   2.333   3.198 -1.3485 -0.0558  0.6328
   88MOL   H15129905   4.852   2.132   3.094  0.2637 -2.4413  0.2339
   88MOL   H15229906   4.998   2.185   3.010 -1.0770  1.6099 -0.5161
   88MOL   H15329907   5.113   1.983   3.083  0.1822 -0.3480 -0.0843
   88MOL   H15429908   4.957   1.922   3.126 -0.7015  0.5455 -1.4458
   88MOL   C15529909   4.990   2.199   3.552  0.0901 -0.0391 -0.1521
   88MOL   C15629910   4.991   2.282   3.689  0.1280  0.1054  0.3981
   88MOL   N15729911   5.010   2.428   3.679 -0.6915  0.5461 -0.6882
   88MOL   C15829912   5.116   2.484   3.763 -0.6130 -0.2567  0.2289
   88MOL   C15929913   5.095   2.633   3.744 -0.3166 -1.3245  0.3538
   88MOL   C16029914   4.980   2.661   3.642 -0.1979  0.2446 -0.2333
   88MOL   C16129915   4.928   2.520   3.623  0.0214 -0.1038 -0.4059
   88MOL   O16229916   4.830   2.494   3.558  0.4887  0.1900 -0.2566
   88MOL   H16329917   4.983   2.091   3.563 -0.2708  0.1949  1.9967
   88MOL   H16429918   4.902   2.231   3.497  0.1995  1.3327  0.4628
   88MOL   H16529919   5.068   2.251   3.760  2.8775 -0.3070 -2.6661
   88MOL   H16629920   5.131   2.441   3.862  1.8472 -0.3977 -0.1728
   88MOL   H16729921   5.203   2.446   3.708 -0.6416  0.5162 -0.3678
   88MOL   H16829922   5.058   2.679   3.836  0.8564  2.3467 -0.9283
   88MOL   H16929923   5.184   2.692   3.720 -2.5709  2.2855  0.5837
   88MOL   H17029924   4.904   2.728   3.681  1.1306  1.4264  0.3937
   88MOL   H17129925   5.013   2.693   3.543  1.4342 -2.0449 -0.4789
   88MOL   C17229926   4.863   2.255   3.766  0.2837 -0.5109  0.1942
   88MOL   C17329927   4.823   2.111   3.797  0.1195  0.0690 -0.3393
   88MOL   N17429928   4.912   2.048   3.893  1.0080 -0.9141 -0.3602
   88MOL   C17529929   4.996   1.941   3.843  0.4694  0.1085 -0.0157
   88MOL   C17629930   5.107   1.932   3.952  0.1361  0.0833  0.4035
   88MOL   C17729931   5.055   2.004   4.071  1.1059 -0.1528 -0.3631
   88MOL   C17829932   4.931   2.077   4.017 -0.2878 -0.1680 -1.5040
   88MOL   O17929933   4.882   2.174   4.081  0.5630 -0.5694  0.2841
   88MOL   H18029934   4.782   2.291   3.703  0.5957 -1.1523 -0.5647
   88MOL   H18129935   4.863   2.315   3.858  0.8570 -0.4975  0.1901
   88MOL   H18229936   4.826   2.049   3.708  1.4217 -0.2182 -0.1081
   88MOL   H18329937   4.945   1.845   3.845  0.2036  0.1965 -1.9693
   88MOL   H18429938   5.029   1.955   3.740  2.4396  1.6356  0.7742
   88MOL   H18529939   5.192   1.982   3.906  0.2207 -1.7789 -1.5717
   88MOL   H18629940   5.128   1.825   3.958 -0.7799 -0.0491  1.6211
   88MOL   H18729941   5.021   1.937   4.150 -2.7252  3.0881  0.9179
   88MOL   H18829942   5.127   2.073   4.116  0.0826  0.1210  0.8734
   88MOL   C18929943   4.677   2.105   3.842 -1.1554  0.0892 -0.7064
   88MOL   C19029944   4.599   1.973   3.854 -0.2394 -0.1580 -0.2320
   88MOL   N19129945   4.518   1.979   3.980 -0.2566 -0.3907  0.7615
   88MOL   C19229946   4.536   1.890   4.094 -0.1434 -0.3301  0.4108
   88MOL   C19329947   4.420   1.920   4.198 -0.1818 -0.3338 -0.2373
   88MOL   C19429948   4.340   2.027   4.139 -0.3616  0.5063 -0.5704
   88MOL   C19529949   4.413   2.053   4.006  0.1084 -0.6806 -0.2193
   88MOL   O19629950   4.367   2.134   3.932 -0.2887  0.1933 -0.2888
   88MOL   H19729951   4.619   2.165   3.772  0.0757 -0.4215 -2.1867
   88MOL   H19829952   4.668   2.163   3.934 -0.6668  0.3494 -0.8235
   88MOL   H19929953   4.666   1.890   3.877  0.4115  0.3225 -0.3718
   88MOL   H20029954   4.550   1.786   4.064  0.4035 -0.3845  0.8397
   88MOL   H20129955   4.625   1.923   4.148 -0.8769  2.1597  0.1483
   88MOL   H20229956   4.357   1.831   4.204  0.6934 -1.0136 -0.8884
   88MOL   H20329957   4.454   1.926   4.301 -0.8619 -2.1858  0.1083
   88MOL   H20429958   4.234   2.004   4.134 -0.2836 -0.1705  0.5783
   88MOL   H20529959   4.354   2.118   4.197  0.9237  0.4466 -0.7803
   88MOL   C20629960   4.520   1.911   3.733  0.2099  0.2249  0.5360
   88MOL   C20729961   4.600   1.895   3.596  0.2550 -0.0775 -0.1250
   88MOL   N20829962   4.704   1.794   3.597 -0.3685  0.2998 -0.1791
   88MOL   C20929963   4.830   1.816   3.531  0.1642 -0.1304 -0.3353
   88MOL   C21029964   4.915   1.694   3.561  0.7151  0.4571 -0.2549
   88MOL   C21129965   4.827   1.591   3.632 -0.1861  0.0752  0.6664
   88MOL   C21229966   4.692   1.664   3.636 -0.3759 -0.2075 -0.2192
   88MOL   O21329967   4.587   1.605   3.669 -0.2994 -0.2140  0.1883
   88MOL   H21429968   4.434   1.973   3.705  0.6700 -0.8280 -3.5013
   88MOL   H21529969   4.477   1.815   3.759  1.1677 -1.3046 -3.2217
   88MOL   H21629970   4.657   1.987   3.581 -0.6368  0.7671  1.5599
   88MOL   H21729971   4.809   1.827   3.424 -0.3864  0.3872 -0.1807
   88MOL   H21829972   4.878   1.913   3.546  1.4069 -0.5145 -1.7470
   88MOL   H21929973   4.951   1.657   3.465  1.4192  2.7458 -0.9251
   88MOL   H22029974   5.006   1.723   3.612 -0.4376  2.8242  0.5786
   88MOL   H22129975   4.795   1.501   3.581 -2.3418  0.0221  2.0362
   88MOL   H22229976   4.858   1.575   3.736 -0.9792  1.5947  1.1589
   88MOL   C22329977   4.498   1.867   3.478  0.9991  0.5414  0.0768
   88MOL   C22429978   4.401   1.981   3.446  0.5530 -0.4922 -0.0100
   88MOL   N22529979   4.464   2.114   3.441  0.0854  0.3380 -0.1786
   88MOL   C22629980   4.413   2.227   3.523  0.0663 -0.4424  1.1467
   88MOL   C22729981   4.515   2.345   3.504  0.2981 -0.0150  0.5847
   88MOL   C22829982   4.615   2.292   3.399  0.0849 -0.4248 -0.4943
   88MOL   C22929983   4.570   2.151   3.371  0.7958  0.6131  0.3189
   88MOL   O23029984   4.626   2.080   3.285  0.6448  0.0495 -0.4615
   88MOL   H23129985   4.449   1.772   3.496 -0.6711  1.0728 -1.4972
   88MOL   H23229986   4.558   1.856   3.388  0.1802  2.4278 -0.7249
   88MOL   H23329987   4.332   1.994   3.528  1.9807 -0.9943  1.2979
   88MOL   H23429988   4.312   2.244   3.486  0.7315 -1.1449 -1.0405
   88MOL   H23529989   4.411   2.196   3.627 -2.7328 -0.1332  1.2265
   88MOL   H23629990   4.476   2.440   3.469  0.4345 -1.3496 -3.5087
   88MOL   H23729991   4.559   2.365   3.602 -0.4359  0.3909  0.8283
   88MOL   H23829992   4.635   2.353   3.310  0.3931  0.5305  0.2251
   88MOL   H23929993   4.709   2.296   3.454 -0.9355  1.4226  1.1602
   88MOL   C24029994   4.311   1.954   3.316 -0.7816  0.1992  0.3135
   88MOL   C24129995   4.181   1.886   3.343 -0.4158 -0.4571  0.6670
   88MOL   N24229996   4.089   1.932   3.245 -0.2018 -0.8954 -0.2487
   88MOL   C24329997   4.074   1.871   3.111 -0.1207 -0.4821 -0.2983
   88MOL   C24429998   3.981   1.969   3.032 -0.5037  0.2078  0.3890
   88MOL   C24529999   3.929   2.072   3.132 -0.6010 -0.4452  0.0415
   88MOL   C24630000   4.014   2.043   3.253 -0.5054  0.1345 -0.8479
   88MOL   O24730001   4.003   2.113   3.356 -0.2848 -0.1722 -0.0937
   88MOL   H24830002   4.373   1.907   3.240 -1.7296  0.5239 -0.6787
   88MOL   H24930003   4.293   2.054   3.275  1.5427  1.7639  2.9828
   88MOL   H25030004   4.129   1.918   3.433  1.8430  0.3546  1.7262
   88MOL   H25130005   4.163   1.863   3.048  1.6252 -0.0348  2.0389
   88MOL   H25230006   4.031   1.772   3.117  1.6326 -1.2534  0.0482
   88MOL   H25330007   4.022   2.032   2.953  0.5809 -0.2354  0.5850
   88MOL   H25430008   3.889   1.916   3.006  0.0011 -0.8888  0.8381
   88MOL   H25530009   3.952   2.176   3.107  1.2318 -0.0547  3.1478
   88MOL   H25630010   3.820   2.077   3.140 -0.6338 -0.1041 -0.6209
   88MOL   C25730011   4.187   1.727   3.362  0.3932  0.1036  0.1117
   88MOL   C25830012   4.180   1.655   3.504 -0.3675  0.3745  0.0630
   88MOL   N25930013   4.049   1.697   3.564  0.3314 -0.0822  0.5404
   88MOL   C26030014   4.046   1.796   3.675  0.1946 -0.5131  1.0110
   88MOL   C26130015   3.906   1.841   3.689 -0.2338 -0.2475  0.1321
   88MOL   C26230016   3.826   1.757   3.598 -0.2337  0.2441  0.0121
   88MOL   C26330017   3.927   1.666   3.525  0.5811 -0.7010  0.1944
   88MOL   O26430018   3.887   1.568   3.474 -0.3931 -0.1255 -0.3723
   88MOL   H26530019   4.270   1.691   3.301  1.5717  4.3873 -1.0038
   88MOL   H26630020   4.106   1.679   3.306  0.8578 -0.6724  0.0898
   88MOL   H26730021   4.262   1.691   3.565  0.2449  0.1470 -0.6235
   88MOL   H26830022   4.084   1.738   3.759  0.5352 -0.4076  0.9339
   88MOL   H26930023   4.107   1.884   3.655 -1.1496  0.7635  2.4380
   88MOL   H27030024   3.865   1.813   3.786  1.8095  1.4586  1.5158
   88MOL   H27130025   3.889   1.946   3.666  0.6561 -0.0449  0.3951
   88MOL   H27230026   3.744   1.706   3.648  0.5510  1.5500  2.7686
   88MOL   H27330027   3.775   1.821   3.525 -0.1848  1.0641  0.6845
   88MOL   C27430028   4.192   1.499   3.490  0.6909  0.2292 -0.3016
   88MOL   C27530029   4.180   1.420   3.618  0.1493  0.3748 -0.6057
   88MOL   N27630030   4.127   1.286   3.596  0.3077  0.0888  0.1316
   88MOL   C27730031   3.998   1.223   3.637 -0.0276 -0.5538 -0.1644
   88MOL   C27830032   4.016   1.073   3.608 -0.2973 -0.4695  0.2190
   88MOL   C27930033   4.141   1.047   3.519  0.1406 -0.2849 -0.3460
   88MOL   C28030034   4.195   1.190   3.528  0.5903 -0.7656  0.5118
   88MOL   O28130035   4.302   1.215   3.474 -0.0579 -0.9803  0.3816
   88MOL   H28230036   4.284   1.469   3.439  0.6274 -0.0954 -0.2229
   88MOL   H28330037   4.124   1.455   3.416  1.7787  3.6643 -3.4972
   88MOL   H28430038   4.098   1.471   3.667 -1.2634 -1.6970 -0.7238
   88MOL   H28530039   3.975   1.245   3.741  0.9976  1.0606 -0.2494
   88MOL   H28630040   3.918   1.266   3.576 -0.2123 -0.4398  0.1625
   88MOL   H28730041   4.043   1.033   3.705  2.3539  2.3545  0.7132
   88MOL   H28830042   3.927   1.013   3.587  0.8633 -2.0119 -0.4153
   88MOL   H28930043   4.206   0.975   3.569 -1.3986 -2.6637 -1.6540
   88MOL   H29030044   4.103   1.032   3.417 -0.9608 -0.1773  0.0438
   88MOL   C29130045   4.305   1.432   3.715 -0.0217  0.2933 -0.0283
   88MOL   C29230046   4.287   1.375   3.857 -0.3959  0.4852 -0.0389
   88MOL   N29330047   4.404   1.394   3.941 -0.0971  0.2467 -0.9476
   88MOL   C29430048   4.478   1.279   3.976  0.5312 -0.1709  0.4934
   88MOL   C29530049   4.611   1.329   4.028 -0.2080 -1.2859  0.4142
   88MOL   C29630050   4.599   1.483   4.039  0.2486 -0.0460  0.2892
   88MOL   C29730051   4.460   1.510   3.987 -0.4106  0.0996 -0.5107
   88MOL   O29830052   4.405   1.620   3.975  0.2001 -0.1081 -0.1050
   88MOL   H29930053   4.314   1.539   3.729 -0.3462  0.3505 -0.2681
   88MOL   H30030054   4.397   1.400   3.665  0.5894 -0.3902  1.4823
   88MOL   H30130055   4.250   1.273   3.855 -1.7733  0.9747 -3.9031
   88MOL   H30230056   4.432   1.216   4.052 -1.0723 -1.4464 -1.4923
   88MOL   H30330057   4.478   1.211   3.891  0.0764  0.8336 -0.3181
   88MOL   H30430058   4.633   1.288   4.126  0.4575 -0.2072  0.7212
   88MOL   H30530059   4.699   1.312   3.966  0.1025  0.7845  0.2532
   88MOL   H30630060   4.600   1.527   4.138 -0.6733  0.8457 -0.0847
   88MOL   H30730061   4.660   1.551   3.979 -1.7186  0.1303 -1.5863
   88MOL   C30830062   4.161   1.438   3.926  0.1812  0.1504 -0.2984
   88MOL   C30930063   4.143   1.402   4.083  0.2624 -0.2501 -0.1508
   88MOL   N31030064   4.073   1.519   4.133 -0.4025 -0.2103 -0.2484
   88MOL   C31130065   4.150   1.616   4.206  0.5007  0.0473 -0.3482
   88MOL   C31230066   4.055   1.743   4.218 -0.5075  0.8428 -0.4949
   88MOL   C31330067   3.931   1.700   4.155 -0.1854  0.4088 -0.3001
   88MOL   C31430068   3.944   1.557   4.110  0.1809 -1.2720 -0.5562
   88MOL   O31530069   3.843   1.497   4.067  0.1369 -0.0522  0.1181
   88MOL   H31630070   4.067   1.411   3.878  0.8168 -1.4844 -0.6572
   88MOL   H31730071   4.160   1.546   3.911 -0.0623  0.1796 -0.0825
   88MOL   H31830072   4.234   1.396   4.141 -0.1717 -1.4315  0.4292
   88MOL   H31930073   4.164   1.578   4.307  3.1835  0.2150 -0.6200
   88MOL   H32030074   4.244   1.641   4.156 -1.3866  1.5771 -3.2389
   88MOL   H32130075   4.037   1.764   4.323 -0.1252  1.6453 -0.5837
   88MOL   H32230076   4.089   1.833   4.167  0.8935 -0.0374 -1.1771
   88MOL   H32330077   3.850   1.712   4.227  0.6342 -0.0864  0.7288
   88MOL   H32430078   3.913   1.769   4.073  0.5331 -1.9382 -2.4740
   88MOL   C32530079   4.064   1.271   4.110  0.3869 -0.0641  0.5833
   88MOL   C32630080   4.134   1.142   4.067  0.5885 -0.0180 -0.3916
   88MOL   N32730081   4.065   1.028   4.126 -0.2342 -0.0456  0.3065
   88MOL   C32830082   3.942   0.976   4.059 -0.4522 -1.5927 -0.1471
   88MOL   C32930083   3.908   0.853   4.145  0.3250  0.3750  0.6273
   88MOL   C33030084   4.010   0.843   4.259  0.0898  0.4230 -0.1079
   88MOL   C33130085   4.105   0.954   4.232  0.2780  0.8260  0.1453
   88MOL   O33230086   4.211   0.969   4.293  0.3782 -0.3454  0.4501
   88MOL   H33330087   3.964   1.262   4.066  0.2082  0.5248  0.8643
   88MOL   H33430088   4.049   1.267   4.218 -1.1023 -0.7620  0.3726
   88MOL   H33530089   4.235   1.145   4.108  0.0688  0.0961  0.9161
   88MOL   H33630090   3.873   1.060   4.069  0.7752 -0.5886 -0.0273
   88MOL   H33730091   3.955   0.957   3.952  1.5492 -1.0385 -0.0205
   88MOL   H33830092   3.804   0.860   4.174 -0.5739 -2.3551 -1.6813
   88MOL   H33930093   3.914   0.760   4.089  2.4921  1.2849 -0.7447
   88MOL   H34030094   3.964   0.851   4.358  1.9052 -0.5595  0.8473
   88MOL   H34130095   4.063   0.747   4.256 -2.0699 -0.9884  3.4098
   88MOL   H34230096   4.146   1.134   3.959 -0.9234  3.5116 -0.9007
   89MOL     C130097   2.509   2.484   6.017 -1.2686  1.2157  0.6992
   89MOL     C230098   2.418   2.552   6.123 -0.6567  1.1732 -0.5105
   89MOL     N330099   2.281   2.504   6.114 -0.1891 -1.0507 -1.2323
   89MOL     C430100   2.179   2.605   6.095  0.6304  0.3040 -0.3199
   89MOL     C530101   2.038   2.537   6.103  0.8524  0.1688 -0.1291
   89MOL     C630102   2.076   2.387   6.137 -0.1393  0.6790 -0.2176
   89MOL     C730103   2.233   2.380   6.134 -0.3979 -0.6456 -0.3323
   89MOL     O830104   2.297   2.274   6.157  0.0142 -0.0181 -0.1716
   89MOL     H930105   2.525   2.379   6.042 -1.1267  0.5544 -1.9607
   89MOL    H1030106   2.458   2.496   5.921  1.5324 -1.4918 -1.2402
   89MOL    H1130107   2.412   2.660   6.111 -0.6941  1.1342 -0.8442
   89MOL    H1230108   2.179   2.695   6.156 -0.4291  1.4140 -1.9278
   89MOL    H1330109   2.192   2.660   6.002  0.7567 -1.9829 -1.7144
   89MOL    H1430110   1.969   2.584   6.173  0.0992  0.3607 -0.9912
   89MOL    H1530111   2.003   2.548   6.000 -1.0418  0.0121  0.4689
   89MOL    H1630112   2.033   2.354   6.231  1.9184  1.2364  0.9585
   89MOL    H1730113   2.041   2.317   6.061  0.3786 -0.6600  0.7485
   89MOL    H1830114   2.604   2.536   6.004 -0.2170 -0.6614  0.7326
   89MOL    C1930115   2.469   2.523   6.266 -0.4594  0.0569 -0.1111
   89MOL    C2030116   2.395   2.592   6.387  0.2298 -0.8192  0.3442
   89MOL    N2130117   2.423   2.522   6.512  0.3715 -0.2089  0.4778
   89MOL    C2230118   2.330   2.419   6.559 -0.1398  0.3227 -0.1085
   89MOL    C2330119   2.397   2.361   6.682 -0.6816 -0.0648 -0.2831
   89MOL    C2430120   2.539   2.416   6.690  0.3938 -0.0729  0.4913
   89MOL    C2530121   2.545   2.513   6.575 -0.4553 -0.4099  0.2827
   89MOL    O2630122   2.650   2.577   6.558 -0.1159 -0.1793  0.4206
   89MOL    H2730123   2.576   2.539   6.281  0.2078 -3.1252 -1.0421
   89MOL    H2830124   2.463   2.414   6.270  1.3812 -0.0738 -0.4349
   89MOL    H2930125   2.292   2.569   6.361 -0.0126  2.5678 -2.0394
   89MOL    H3030126   2.231   2.452   6.589  0.7996  2.3932  0.7451
   89MOL    H3130127   2.309   2.348   6.478  0.2812 -0.1329  0.1758
   89MOL    H3230128   2.343   2.393   6.771  0.2550 -1.3342  0.7386
   89MOL    H3330129   2.397   2.253   6.687  2.1988 -0.1619 -1.3214
   89MOL    H3430130   2.553   2.455   6.791 -0.5125  1.3523  0.0852
   89MOL    H3530131   2.610   2.335   6.676  1.5421  1.3061 -2.0219
   89MOL    C3630132   2.417   2.749   6.395  0.2484  0.1852  0.3393
   89MOL    C3730133   2.357   2.822   6.515  0.2567  0.1097  0.0404
   89MOL    N3830134   2.460   2.841   6.615 -0.2762 -0.3109 -0.5366
   89MOL    C3930135   2.449   2.784   6.745  0.5618 -0.3201 -0.6350
   89MOL    C4030136   2.579   2.823   6.821 -1.1229 -1.0253  0.1515
   89MOL    C4130137   2.642   2.936   6.734 -0.1962 -0.0594 -0.2623
   89MOL    C4230138   2.565   2.925   6.603 -0.5853 -0.1080  0.8476
   89MOL    O4330139   2.591   2.992   6.504 -0.5740 -0.2939 -0.2414
   89MOL    H4430140   2.363   2.788   6.309 -0.6697 -0.0173  0.8127
   89MOL    H4530141   2.524   2.763   6.377 -0.0314  1.7414 -0.1816
   89MOL    H4630142   2.278   2.760   6.558  0.0742  0.5416  0.3380
   89MOL    H4730143   2.366   2.844   6.783  0.4885 -1.2859  0.7678
   89MOL    H4830144   2.425   2.678   6.737  0.1260 -0.1635 -1.4368
   89MOL    H4930145   2.556   2.856   6.922  0.4892  0.0771  0.1696
   89MOL    H5030146   2.649   2.740   6.820  0.5372  0.3566 -1.2882
   89MOL    H5130147   2.628   3.038   6.769  2.3390  0.3567 -0.3998
   89MOL    H5230148   2.750   2.923   6.727 -0.3699 -1.8145  0.0692
   89MOL    C5330149   2.289   2.960   6.481  0.1464  0.0134  0.0039
   89MOL    C5430150   2.137   2.945   6.443  0.1647  0.3423  0.9037
   89MOL    N5530151   2.056   2.863   6.537  0.4446 -0.4050 -0.4141
   89MOL    C5630152   1.997   2.737   6.489 -0.2947  0.3782  0.0526
   89MOL    C5730153   1.957   2.651   6.609  0.5624 -0.3068  0.3609
   89MOL    C5830154   1.975   2.753   6.721 -0.1895  0.0510 -0.0600
   89MOL    C5930155   2.049   2.873   6.671 -0.2782  0.6829  0.4681
   89MOL    O6030156   2.089   2.968   6.737 -0.5059  0.3060 -0.3689
   89MOL    H6130157   2.339   2.992   6.391  2.2640 -0.6360  0.9147
   89MOL    H6230158   2.306   3.040   6.553  1.7730  0.6121 -1.0193
   89MOL    H6330159   2.127   2.893   6.348  2.6128 -0.6065  1.1167
   89MOL    H6430160   1.907   2.748   6.429  0.6489 -1.7215 -1.8302
   89MOL    H6530161   2.065   2.674   6.431 -0.5949 -2.5032  2.6666
   89MOL    H6630162   1.859   2.603   6.612  0.4122  0.0300  0.8149
   89MOL    H6730163   2.037   2.577   6.619  0.7114 -0.1615  0.2410
   89MOL    H6830164   1.882   2.795   6.759 -0.9949  0.0444 -1.9855
   89MOL    H6930165   2.027   2.703   6.803  1.8366  1.1480 -0.6398
   89MOL    C7030166   2.075   3.091   6.434  0.1817  0.5578  0.2492
   89MOL    C7130167   2.138   3.176   6.312 -0.1942  0.4323 -0.4336
   89MOL    N7230168   2.131   3.101   6.184  0.1608 -0.2471  0.1823
   89MOL    C7330169   2.248   3.081   6.106  0.0798 -0.5648 -0.2692
   89MOL    C7430170   2.203   2.998   5.984 -0.6061  0.0498  0.1949
   89MOL    C7530171   2.052   2.975   5.999 -0.0450 -0.1751 -0.3786
   89MOL    C7630172   2.021   3.050   6.126  0.0165  0.8532  0.1428
   89MOL    O7730173   1.908   3.050   6.176  0.2347 -0.5034 -0.0650
   89MOL    H7830174   2.079   3.142   6.530 -0.9793 -1.4091  1.3724
   89MOL    H7930175   1.966   3.083   6.431  0.1498  0.9946  0.2299
   89MOL    H8030176   2.245   3.170   6.329 -0.3461  0.3683  0.4909
   89MOL    H8130177   2.271   3.177   6.060  0.4815 -0.1481  0.7971
   89MOL    H8230178   2.339   3.051   6.159 -1.1019 -2.6691  0.6277
   89MOL    H8330179   2.237   3.037   5.888  0.2465 -2.1080 -0.4080
   89MOL    H8430180   2.259   2.906   5.999  0.4931  0.9543  1.9385
   89MOL    H8530181   1.998   3.023   5.918 -0.8097  0.3408  0.4261
   89MOL    H8630182   2.026   2.869   5.995 -0.5153 -0.0323 -1.2329
   89MOL    C8730183   2.078   3.317   6.302 -0.7230 -0.0066 -0.3145
   89MOL    C8830184   2.148   3.426   6.393 -0.2123 -0.6345  0.3544
   89MOL    N8930185   2.288   3.429   6.382  0.2512 -0.5977  0.2538
   89MOL    C9030186   2.342   3.462   6.255 -0.0528  0.0134 -0.2729
   89MOL    C9130187   2.482   3.388   6.262 -0.0748 -0.3662  0.5129
   89MOL    C9230188   2.518   3.367   6.409 -0.3720  0.6265  0.0329
   89MOL    C9330189   2.375   3.381   6.478  0.0610 -0.2000 -0.0378
   89MOL    O9430190   2.353   3.357   6.599  0.3071 -0.2136 -0.0705
   89MOL    H9530191   1.971   3.308   6.316 -0.7677 -2.0255 -1.8808
   89MOL    H9630192   2.084   3.333   6.194 -0.2917 -1.4000 -0.5082
   89MOL    H9730193   2.116   3.381   6.487  0.7051 -1.4977  0.2623
   89MOL    H9830194   2.282   3.435   6.168  0.9304 -0.3281 -0.8611
   89MOL    H9930195   2.346   3.570   6.264  1.2266  0.0407 -1.0491
   89MOL   H10030196   2.484   3.285   6.225  1.0018 -0.4568  0.8199
   89MOL   H10130197   2.565   3.433   6.208 -0.5541 -0.0787  0.0036
   89MOL   H10230198   2.557   3.268   6.430  0.3788  0.6841 -1.0273
   89MOL   H10330199   2.589   3.447   6.430 -1.8020  1.7167  0.8573
   89MOL   C10430200   2.082   3.567   6.389 -0.9730  0.7212  0.8030
   89MOL   C10530201   2.092   3.659   6.510 -0.2632  0.2848 -0.4951
   89MOL   N10630202   2.190   3.770   6.505 -0.2961 -0.3046 -0.3083
   89MOL   C10730203   2.295   3.768   6.608 -0.0876  1.2009 -0.8285
   89MOL   C10830204   2.368   3.897   6.575 -0.1211  0.2700 -0.1268
   89MOL   C10930205   2.313   3.957   6.445  0.2511  0.0359  0.4398
   89MOL   C11030206   2.196   3.871   6.412  1.2232 -0.3040  0.0213
   89MOL   O11130207   2.129   3.879   6.306 -0.0858 -0.3277 -0.2643
   89MOL   H11230208   1.979   3.534   6.377 -0.5659 -1.1678  2.2762
   89MOL   H11330209   2.109   3.626   6.301  3.0162 -0.7861  0.9169
   89MOL   H11430210   2.124   3.596   6.592  1.1605  0.9099 -0.5491
   89MOL   H11530211   2.260   3.777   6.710  1.4437 -0.9027 -0.0864
   89MOL   H11630212   2.362   3.682   6.601 -1.4632  0.1360 -1.2380
   89MOL   H11730213   2.340   3.970   6.652 -0.3564  0.7550 -0.6654
   89MOL   H11830214   2.474   3.879   6.593 -0.7318 -1.3863  2.0925
   89MOL   H11930215   2.391   3.961   6.369 -1.4792 -0.3904 -1.4195
   89MOL   H12030216   2.278   4.060   6.448  2.2675  0.7670 -0.1161
   89MOL   C12130217   1.956   3.722   6.549 -0.3861 -0.5593  0.2831
   89MOL   C12230218   1.846   3.624   6.600 -0.6973  0.0320  0.2606
   89MOL   N12330219   1.892   3.541   6.714 -0.5803 -0.7173 -0.4933
   89MOL   C12430220   1.884   3.400   6.709 -0.9910 -0.0125  0.1872
   89MOL   C12530221   1.938   3.355   6.842 -0.5053  0.6853  0.2700
   89MOL   C12630222   1.974   3.476   6.927 -0.2092 -0.1885  0.4862
   89MOL   C12730223   1.953   3.591   6.825 -0.2932  0.0139  0.0980
   89MOL   O12830224   1.980   3.710   6.853 -0.5798  0.0030 -0.2746
   89MOL   H12930225   1.924   3.772   6.458 -3.2516 -0.5604  1.2140
   89MOL   H13030226   1.975   3.805   6.618  0.3592 -0.8639  0.4482
   89MOL   H13130227   1.824   3.561   6.513 -0.5291  0.1493  0.1343
   89MOL   H13230228   1.934   3.348   6.628 -1.9139 -3.6633  1.8924
   89MOL   H13330229   1.777   3.377   6.705 -0.8505 -0.9041  1.3958
   89MOL   H13430230   1.874   3.284   6.894 -1.5124  0.8971 -0.6657
   89MOL   H13530231   2.029   3.299   6.821 -1.9051 -0.5275 -3.0416
   89MOL   H13630232   1.907   3.493   7.012 -2.1631  0.0492 -1.0434
   89MOL   H13730233   2.077   3.480   6.961 -0.5311 -0.2474  1.5047
   89MOL   C13830234   1.707   3.687   6.637  0.5211  0.2671 -0.7194
   89MOL   C13930235   1.608   3.722   6.528  0.3884  0.0184 -0.5718
   89MOL   N14030236   1.477   3.726   6.582  0.0157  0.6179 -0.4205
   89MOL   C14130237   1.381   3.624   6.551 -0.0727 -0.7401 -0.5706
   89MOL   C14230238   1.251   3.673   6.606  0.4479 -0.0388  0.0736
   89MOL   C14330239   1.269   3.797   6.685 -0.5644 -0.2685 -0.3280
   89MOL   C14430240   1.419   3.823   6.658 -0.2920  0.7970  0.3917
   89MOL   O14530241   1.474   3.922   6.694 -0.2010 -0.6203 -0.3596
   89MOL   H14630242   1.717   3.775   6.700  0.5058 -0.1991 -0.0555
   89MOL   H14730243   1.657   3.623   6.710  2.9920  0.4133  1.1806
   89MOL   H14830244   1.610   3.635   6.462  0.9982 -0.1402 -0.3400
   89MOL   H14930245   1.388   3.612   6.443  2.9878  2.9579 -0.8823
   89MOL   H15030246   1.411   3.526   6.588 -2.6668 -1.0955  0.6898
   89MOL   H15130247   1.168   3.697   6.540 -0.1014 -0.5009  0.5798
   89MOL   H15230248   1.215   3.596   6.674  2.7755 -0.3744  0.9698
   89MOL   H15330249   1.276   3.767   6.789  0.9754 -0.4329 -0.4659
   89MOL   H15430250   1.188   3.869   6.678  0.4843  1.0005  0.4580
   89MOL   C15530251   1.640   3.851   6.441  0.3973  0.5681 -0.4881
   89MOL   C15630252   1.687   3.811   6.296 -0.5844 -0.2206  0.7301
   89MOL   N15730253   1.589   3.726   6.223 -1.4914 -0.7747  0.3171
   89MOL   C15830254   1.619   3.586   6.185  0.3034  0.0551 -0.4071
   89MOL   C15930255   1.495   3.544   6.104  0.7794  0.3087 -0.2281
   89MOL   C16030256   1.388   3.645   6.140  0.9631 -0.5299  0.0176
   89MOL   C16130257   1.463   3.763   6.197 -0.2867  0.2747 -0.5399
   89MOL   O16230258   1.412   3.872   6.209 -0.0994 -0.3189 -0.4705
   89MOL   H16330259   1.716   3.908   6.494 -1.6174  1.6882  1.2637
   89MOL   H16430260   1.548   3.910   6.433 -0.1353 -0.3258 -1.1208
   89MOL   H16530261   1.768   3.740   6.309 -0.3469 -0.0749  0.0379
   89MOL   H16630262   1.710   3.578   6.126  0.5049 -0.5833 -0.0174
   89MOL   H16730263   1.637   3.532   6.278 -0.5306 -2.2145 -1.5200
   89MOL   H16830264   1.507   3.563   5.998 -3.4025 -0.2734 -0.8721
   89MOL   H16930265   1.468   3.439   6.118  0.4467  0.5145  0.7678
   89MOL   H17030266   1.339   3.675   6.047  1.3744  0.2343  0.0416
   89MOL   H17130267   1.321   3.603   6.215 -0.4507  0.7396 -0.5119
   89MOL   C17230268   1.730   3.929   6.209 -0.2105 -0.5832  0.2555
   89MOL   C17330269   1.767   3.898   6.064 -0.0387 -0.6563 -0.1189
   89MOL   N17430270   1.770   4.016   5.977  0.0774 -0.5677 -0.3331
   89MOL   C17530271   1.679   4.028   5.873  0.3074  0.4615 -0.6181
   89MOL   C17630272   1.698   4.159   5.800  0.0107 -0.0887  0.6401
   89MOL   C17730273   1.828   4.216   5.863 -0.5035  0.5409 -0.0982
   89MOL   C17830274   1.854   4.120   5.983 -0.6584  0.6120 -0.3088
   89MOL   O17930275   1.956   4.141   6.052 -0.4100 -0.1560  0.0622
   89MOL   H18030276   1.803   3.992   6.260  1.2745 -1.9845 -0.0871
   89MOL   H18130277   1.644   3.997   6.208  0.2515  0.0331 -2.2607
   89MOL   H18230278   1.687   3.836   6.024  0.0285 -0.8563  0.0574
   89MOL   H18330279   1.702   3.947   5.804 -1.2287 -0.0011 -0.6012
   89MOL   H18430280   1.580   4.011   5.914  0.0411  1.3915 -0.8576
   89MOL   H18530281   1.615   4.229   5.806 -0.5132 -0.3047 -3.0013
   89MOL   H18630282   1.735   4.147   5.698  0.5147  3.7469  0.2942
   89MOL   H18730283   1.917   4.218   5.800  0.8714 -3.4019  1.5086
   89MOL   H18830284   1.821   4.320   5.896  1.9888  0.0068  2.3504
   89MOL   C18930285   1.897   3.813   6.042 -0.5513 -0.5014 -0.4744
   89MOL   C19030286   1.936   3.769   5.898  0.3398 -0.7971 -0.8523
   89MOL   N19130287   2.072   3.727   5.900 -0.1504 -0.6181  0.0888
   89MOL   C19230288   2.172   3.807   5.827 -0.0055 -0.0301  0.1229
   89MOL   C19330289   2.308   3.751   5.859 -0.6851  0.0960  0.1575
   89MOL   C19430290   2.278   3.642   5.967 -0.6512 -0.2644 -0.3144
   89MOL   C19530291   2.126   3.629   5.971 -0.3178  0.5949 -0.0339
   89MOL   O19630292   2.069   3.538   6.033 -0.2115  0.1460 -0.2391
   89MOL   H19730293   1.893   3.723   6.105  2.8537 -0.7338 -0.5016
   89MOL   H19830294   1.981   3.867   6.085 -1.1540 -0.6818  0.9728
   89MOL   H19930295   1.940   3.856   5.833  1.1835 -2.6557 -3.3696
   89MOL   H20030296   2.155   3.788   5.721 -0.6076  1.1447  0.0019
   89MOL   H20130297   2.165   3.913   5.852  0.0995  0.4205 -1.7230
   89MOL   H20230298   2.361   3.714   5.772 -2.5209 -2.6078  0.1526
   89MOL   H20330299   2.372   3.822   5.912  0.3516 -1.7572  1.4390
   89MOL   H20430300   2.332   3.552   5.938  0.5443 -0.2842  1.9499
   89MOL   H20530301   2.317   3.661   6.067  1.5288 -1.5153 -0.8925
   89MOL   C20630302   1.841   3.662   5.835 -0.3647  0.1216 -1.4079
   89MOL   C20730303   1.878   3.608   5.692 -1.0254 -0.1007  0.2722
   89MOL   N20830304   1.807   3.480   5.674  0.1768 -0.4288 -0.6947
   89MOL   C20930305   1.877   3.379   5.587  0.4572 -0.1181  0.1602
   89MOL   C21030306   1.781   3.258   5.585 -0.2903  0.1255  0.3492
   89MOL   C21130307   1.651   3.295   5.640  0.3804 -0.5409  0.3514
   89MOL   C21230308   1.679   3.443   5.693 -0.0060 -0.2049  0.3886
   89MOL   O21330309   1.589   3.510   5.740 -0.5513 -0.5082 -0.0529
   89MOL   H21430310   1.738   3.699   5.840 -0.9847 -1.8072  1.8914
   89MOL   H21530311   1.828   3.582   5.908 -0.9571  1.4849  0.0104
   89MOL   H21630312   1.985   3.588   5.680 -0.3861  2.7682  0.8102
   89MOL   H21730313   1.893   3.415   5.486  3.2887 -1.3111  0.1274
   89MOL   H21830314   1.971   3.348   5.633  1.3243  1.4097 -0.5466
   89MOL   H21930315   1.763   3.208   5.490  0.9922 -1.5598  0.9815
   89MOL   H22030316   1.817   3.181   5.653  3.5328  1.7991  0.3742
   89MOL   H22130317   1.574   3.302   5.562  1.0873  2.3613 -0.1520
   89MOL   H22230318   1.625   3.243   5.732 -0.8125 -0.1687  0.2320
   89MOL   C22330319   1.823   3.705   5.585  0.0631  0.0048  0.3785
   89MOL   C22430320   1.935   3.778   5.508 -0.1810 -0.2123 -0.1773
   89MOL   N22530321   1.990   3.684   5.407  0.5192  0.1566 -0.2977
   89MOL   C22630322   1.923   3.654   5.276  0.0650 -0.2482  0.5378
   89MOL   C22730323   2.031   3.580   5.193  0.5818  0.1694 -0.5380
   89MOL   C22830324   2.137   3.543   5.287 -0.1442 -0.2923  0.5051
   89MOL   C22930325   2.108   3.619   5.413  0.2329  0.5719 -0.6425
   89MOL   O23030326   2.183   3.626   5.509 -0.0573  0.1565  0.0365
   89MOL   H23130327   1.762   3.782   5.633  0.5335  0.0912  0.8446
   89MOL   H23230328   1.766   3.650   5.510 -0.7576 -1.0843  1.7620
   89MOL   H23330329   2.007   3.802   5.585 -1.2720 -0.7824  1.0454
   89MOL   H23430330   1.835   3.593   5.296 -1.3880  1.2064 -1.2486
   89MOL   H23530331   1.891   3.740   5.219 -0.5341 -0.3356  0.7408
   89MOL   H23630332   1.992   3.491   5.144  2.7733  0.2818 -2.5356
   89MOL   H23730333   2.077   3.648   5.121 -0.5587  0.5216 -0.9637
   89MOL   H23830334   2.136   3.436   5.308  4.0738 -0.4018  0.5636
   89MOL   H23930335   2.240   3.552   5.253 -0.4234  0.2334 -0.2072
   89MOL   C24030336   1.899   3.916   5.451  0.6994  0.0092  0.5254
   89MOL   C24130337   2.006   3.998   5.372 -0.3874  0.9222 -0.6512
   89MOL   N24230338   1.935   4.096   5.296  0.1166  0.1950 -0.4198
   89MOL   C24330339   1.931   4.096   5.150 -0.2442 -0.0960  0.3752
   89MOL   C24430340   1.864   4.235   5.117 -0.5654 -0.3374 -0.7096
   89MOL   C24530341   1.802   4.292   5.251  0.3735  0.4852  0.9509
   89MOL   C24630342   1.870   4.202   5.353 -0.1907 -0.8881 -1.2241
   89MOL   O24730343   1.857   4.228   5.472  0.1004 -0.0321 -0.4641
   89MOL   H24830344   1.855   3.979   5.529 -2.2922  1.8053 -2.4370
   89MOL   H24930345   1.807   3.905   5.392  1.0241  3.7334 -0.8078
   89MOL   H25030346   2.049   3.930   5.298 -2.7545 -0.1968 -1.0601
   89MOL   H25130347   2.031   4.093   5.108 -0.8843  2.4449 -1.4931
   89MOL   H25230348   1.879   4.015   5.098  1.8747 -0.8317 -0.6825
   89MOL   H25330349   1.935   4.307   5.078  0.1448 -1.0414 -0.7329
   89MOL   H25430350   1.784   4.231   5.043 -1.5747 -0.5813  0.3796
   89MOL   H25530351   1.821   4.399   5.262 -1.6282  0.9958 -0.4017
   89MOL   H25630352   1.695   4.274   5.244  0.4168  0.2500  0.8861
   89MOL   C25730353   2.109   4.045   5.476 -0.1776 -0.3521 -0.4152
   89MOL   C25830354   2.199   4.165   5.455 -0.8217 -0.5336 -0.1644
   89MOL   N25930355   2.277   4.194   5.577 -0.4366 -0.0400 -0.2739
   89MOL   C26030356   2.236   4.304   5.659  0.0281 -0.6440 -0.0208
   89MOL   C26130357   2.316   4.316   5.780  0.1983 -0.5152 -0.3249
   89MOL   C26230358   2.416   4.200   5.763  0.0265 -0.5668 -0.1096
   89MOL   C26330359   2.381   4.130   5.633 -0.4568  0.3673 -0.0267
   89MOL   O26430360   2.428   4.024   5.597  1.0433  0.0366  0.2298
   89MOL   H26530361   2.170   3.955   5.491  0.6394  0.3651  0.6099
   89MOL   H26630362   2.058   4.062   5.571 -0.9899 -2.0250 -0.5308
   89MOL   H26730363   2.133   4.251   5.449 -0.0398  0.1163  0.4154
   89MOL   H26830364   2.252   4.393   5.599 -0.3324 -0.5242  0.0608
   89MOL   H26930365   2.129   4.291   5.679  0.6935 -1.7680  3.0802
   89MOL   H27030366   2.360   4.415   5.788 -3.0652  0.9783  0.0439
   89MOL   H27130367   2.263   4.308   5.874 -2.0905  1.9564 -1.3394
   89MOL   H27230368   2.522   4.225   5.763  0.0229 -0.5335  0.3335
   89MOL   H27330369   2.401   4.129   5.845  0.3611  0.9134  1.2676
   89MOL   C27430370   2.295   4.150   5.335  0.0050 -0.0993 -0.1737
   89MOL   C27530371   2.375   4.279   5.306 -0.1991  0.1947 -0.1757
   89MOL   N27630372   2.486   4.245   5.227 -0.4339  0.5761  0.3140
   89MOL   C27730373   2.627   4.239   5.272 -0.0771  0.0562 -0.1369
   89MOL   C27830374   2.715   4.203   5.157  0.1906 -0.8751  0.7405
   89MOL   C27930375   2.619   4.166   5.040 -0.0408 -0.3862  0.4032
   89MOL   C28030376   2.483   4.213   5.095  0.4220 -0.3062  0.2069
   89MOL   O28130377   2.387   4.226   5.017 -0.7194 -0.3843  0.2598
   89MOL   H28230378   2.244   4.130   5.241 -2.0697  2.1353  0.4326
   89MOL   H28330379   2.353   4.061   5.358 -1.4389 -1.1795 -0.7068
   89MOL   H28430380   2.423   4.317   5.396  2.5162 -2.1524 -0.5858
   89MOL   H28530381   2.658   4.330   5.324  1.0023 -1.2551  1.5283
   89MOL   H28630382   2.631   4.168   5.354 -0.0279  1.0948  0.7832
   89MOL   H28730383   2.769   4.295   5.135  1.4585 -1.9909 -0.8918
   89MOL   H28830384   2.793   4.130   5.180 -0.3964 -1.9206 -0.5559
   89MOL   H28930385   2.651   4.210   4.945  0.4094 -1.6062 -0.0199
   89MOL   H29030386   2.620   4.058   5.026  0.2685 -0.3356 -0.0027
   89MOL   C29130387   2.290   4.403   5.264  0.0930  0.3888 -0.4059
   89MOL   C29230388   2.379   4.534   5.251 -0.2214  0.0478  0.2239
   89MOL   N29330389   2.307   4.640   5.175 -0.4241 -0.5619 -0.3260
   89MOL   C29430390   2.361   4.659   5.035 -0.3419 -0.2304  1.0622
   89MOL   C29530391   2.286   4.781   4.974 -0.7316  0.5181  0.4394
   89MOL   C29630392   2.177   4.822   5.080 -0.5501 -0.1712  0.0895
   89MOL   C29730393   2.212   4.731   5.203  0.0648  0.7280 -0.6237
   89MOL   O29830394   2.155   4.736   5.310  0.5987  0.6515 -0.2970
   89MOL   H29930395   2.211   4.429   5.334  1.0934  0.7509  0.6112
   89MOL   H30030396   2.260   4.397   5.160 -0.1569  0.4811 -0.3389
   89MOL   H30130397   2.468   4.499   5.199  0.0196 -0.2484  0.8237
   89MOL   H30230398   2.469   4.672   5.034 -0.4036  0.3169  1.5791
   89MOL   H30330399   2.347   4.567   4.979  2.2997  0.8781 -1.5334
   89MOL   H30430400   2.348   4.869   4.957 -0.8282  0.4449 -0.3184
   89MOL   H30530401   2.256   4.749   4.875  0.3937  0.2525  0.1828
   89MOL   H30630402   2.185   4.927   5.110  0.6604 -0.5049  0.9365
   89MOL   H30730403   2.076   4.804   5.041 -1.0195  1.7352  0.3650
   89MOL   C30830404   2.426   4.590   5.393  0.6318  0.0435 -0.1767
   89MOL   C30930405   2.494   4.734   5.408  0.5989  0.5477 -0.0051
   89MOL   N31030406   2.456   4.797   5.539 -0.5575 -0.1041 -0.2040
   89MOL   C31130407   2.400   4.930   5.539  0.2904  0.0530 -0.5668
   89MOL   C31230408   2.337   4.942   5.686 -0.0205  0.2053 -0.4836
   89MOL   C31330409   2.403   4.824   5.765  0.0749 -0.1380  0.3104
   89MOL   C31430410   2.471   4.747   5.660 -0.2562 -0.0593  0.0973
   89MOL   O31530411   2.531   4.642   5.686 -0.3375  0.4241 -0.4366
   89MOL   H31630412   2.493   4.515   5.434 -0.4514 -0.5593  0.5076
   89MOL   H31730413   2.335   4.590   5.453  0.9430  4.0931  0.4594
   89MOL   H31830414   2.458   4.796   5.325  0.5920  0.0723 -0.3619
   89MOL   H31930415   2.468   5.010   5.510 -0.1139  0.7120  0.2726
   89MOL   H32030416   2.319   4.934   5.467 -0.4001 -3.5159 -0.0970
   89MOL   H32130417   2.371   5.037   5.728 -2.6371 -0.1067  2.4366
   89MOL   H32230418   2.228   4.939   5.684 -0.0167  0.6303 -1.4671
   89MOL   H32330419   2.476   4.858   5.838 -0.2027  2.4307 -0.5863
   89MOL   H32430420   2.329   4.771   5.826 -0.2227  0.2285  0.2643
   89MOL   C32530421   2.649   4.713   5.401  0.0964 -0.6540  0.0379
   89MOL   C32630422   2.692   4.656   5.273 -0.1661 -0.2209  0.3615
   89MOL   N32730423   2.837   4.670   5.243 -0.0672 -0.5323  0.0036
   89MOL   C32830424   2.874   4.698   5.102  0.5512  0.0250  0.1062
   89MOL   C32930425   3.025   4.722   5.108 -0.6543 -0.0806 -0.2601
   89MOL   C33030426   3.072   4.666   5.242  0.1843  0.2194  0.2473
   89MOL   C33130427   2.947   4.632   5.320  0.1295 -0.3136  0.1593
   89MOL   O33230428   2.950   4.584   5.433 -0.0403  0.9047  0.1975
   89MOL   H33330429   2.677   4.652   5.486  1.5549 -0.2874 -0.1711
   89MOL   H33430430   2.685   4.812   5.429 -1.3313 -0.3203  0.7332
   89MOL   H33530431   2.642   4.706   5.191 -2.5245 -0.8222  1.3843
   89MOL   H33630432   2.843   4.622   5.031  2.3980 -0.7496  0.1061
   89MOL   H33730433   2.824   4.790   5.071 -0.4673  0.0301  1.7082
   89MOL   H33830434   3.082   4.687   5.022 -0.7553 -0.5781 -0.1218
   89MOL   H33930435   3.036   4.831   5.102 -0.5307 -0.2193 -2.9067
   89MOL   H34030436   3.114   4.568   5.222 -1.6754 -0.6568  0.6160
   89MOL   H34130437   3.145   4.732   5.290  1.6999  0.1854 -1.9631
   89MOL   H34230438   2.655   4.555   5.255  0.0077 -0.3995  0.9753
   90MOL     C130439   4.898   2.399   6.013  0.2053  0.1225 -0.6380
   90MOL     C230440   4.930   2.251   5.981  0.7218  0.0940 -0.1289
   90MOL     N330441   5.006   2.194   6.092  0.1539  0.5370 -0.3011
   90MOL     C430442   5.147   2.231   6.107 -0.2391 -0.0965 -0.4057
   90MOL     C530443   5.206   2.132   6.211 -0.0459  0.3744  0.6102
   90MOL     C630444   5.082   2.058   6.271  0.3070 -0.3151 -0.0091
   90MOL     C730445   4.960   2.111   6.187  0.1601  0.0225 -0.1833
   90MOL     O830446   4.846   2.074   6.214  0.1190  0.2083 -0.2650
   90MOL     H930447   4.986   2.449   6.054  0.3061 -0.7852  0.2709
   90MOL    H1030448   4.863   2.466   5.934  0.5723  2.9809  1.5504
   90MOL    H1130449   5.000   2.253   5.898 -0.1181 -1.6825 -0.9074
   90MOL    H1230450   5.204   2.226   6.015 -1.1693 -1.0023 -0.9310
   90MOL    H1330451   5.146   2.335   6.142 -1.0188 -0.6768  1.3435
   90MOL    H1430452   5.277   2.074   6.152  0.7240  4.2877 -2.5491
   90MOL    H1530453   5.265   2.180   6.289  0.6355  0.2725  0.1626
   90MOL    H1630454   5.076   1.951   6.251  0.7791 -0.1377 -1.1566
   90MOL    H1730455   5.061   2.071   6.377 -1.8883  1.2355 -0.6005
   90MOL    H1830456   4.826   2.402   6.095  0.5005 -0.2543 -0.3613
   90MOL    C1930457   4.795   2.174   5.938  0.2944  0.5123  0.2018
   90MOL    C2030458   4.730   2.219   5.804  0.4782  0.5585  0.2085
   90MOL    N2130459   4.824   2.211   5.689  0.0469  0.6562 -0.1671
   90MOL    C2230460   4.829   2.331   5.605 -0.0511 -0.1089 -0.6259
   90MOL    C2330461   4.927   2.292   5.495  0.5766  0.6742 -0.2121
   90MOL    C2430462   4.975   2.147   5.519  0.1075 -0.3647 -0.1726
   90MOL    C2530463   4.907   2.116   5.650  1.0418  0.5278  0.2840
   90MOL    O2630464   4.924   2.004   5.703  0.1386  0.3470  0.3170
   90MOL    H2730465   4.724   2.191   6.019  3.1871  0.1822  2.9098
   90MOL    H2830466   4.812   2.066   5.933 -0.4732  0.2617  2.4764
   90MOL    H2930467   4.715   2.327   5.812  1.9371  0.7658  0.1437
   90MOL    H3030468   4.738   2.353   5.549 -0.2014 -0.7178 -0.6204
   90MOL    H3130469   4.870   2.402   5.678 -0.0564 -0.4083 -0.3335
   90MOL    H3230470   4.894   2.297   5.392  0.5664  0.6669 -0.2088
   90MOL    H3330471   5.024   2.341   5.498 -0.3777  2.5861  0.5856
   90MOL    H3430472   4.929   2.079   5.447 -0.2789  2.0379 -2.2591
   90MOL    H3530473   5.084   2.133   5.518 -0.1528 -2.6170 -2.0193
   90MOL    C3630474   4.602   2.142   5.767  0.6783  0.1167 -0.1210
   90MOL    C3730475   4.486   2.197   5.851  0.0645  0.2077  0.3274
   90MOL    N3830476   4.473   2.341   5.830  0.3272  0.4197 -0.5361
   90MOL    C3930477   4.470   2.422   5.947  0.2513  0.6397 -0.9344
   90MOL    C4030478   4.453   2.567   5.908  0.5465  0.3441  0.4573
   90MOL    C4130479   4.440   2.566   5.752 -0.7394  0.1428 -0.3974
   90MOL    C4230480   4.458   2.414   5.716  0.0415 -0.0307 -0.0740
   90MOL    O4330481   4.449   2.372   5.602  0.5337 -0.2319 -0.0665
   90MOL    H4430482   4.618   2.038   5.797  0.3097  0.1846  0.3126
   90MOL    H4530483   4.574   2.126   5.662 -1.3240 -0.3151  0.4482
   90MOL    H4630484   4.517   2.173   5.953 -2.1116  1.4244  1.3054
   90MOL    H4730485   4.404   2.380   6.022  0.5310 -0.9507 -1.5513
   90MOL    H4830486   4.562   2.394   5.998  0.3665 -2.4991 -2.7164
   90MOL    H4930487   4.362   2.610   5.949 -1.0513 -0.4635 -2.0607
   90MOL    H5030488   4.545   2.620   5.932 -0.8249  1.8697  2.4369
   90MOL    H5130489   4.342   2.596   5.716 -0.2799  2.0470 -0.1244
   90MOL    H5230490   4.516   2.632   5.709 -2.1848  1.0689 -1.5522
   90MOL    C5330491   4.351   2.122   5.820  0.0121  0.8470  0.1325
   90MOL    C5430492   4.338   1.985   5.878 -0.2054  0.7465 -0.3996
   90MOL    N5530493   4.345   1.986   6.027 -0.2374 -0.2396  0.1814
   90MOL    C5630494   4.440   1.894   6.082 -0.5492 -0.1744  0.1926
   90MOL    C5730495   4.433   1.904   6.232  0.3928 -0.3311  0.2411
   90MOL    C5830496   4.310   1.995   6.257 -0.3963 -0.6302 -0.1295
   90MOL    C5930497   4.279   2.054   6.126  0.2916  0.5577 -1.0231
   90MOL    O6030498   4.202   2.154   6.109 -0.0467 -0.2433 -0.8298
   90MOL    H6130499   4.343   2.112   5.712  1.2700 -0.3969  0.1432
   90MOL    H6230500   4.274   2.187   5.862 -2.8141 -0.4073 -2.8872
   90MOL    H6330501   4.409   1.916   5.833  1.6873  1.2283  1.7679
   90MOL    H6430502   4.432   1.791   6.048 -0.2693 -0.4995  1.0731
   90MOL    H6530503   4.527   1.943   6.038 -0.4558 -1.6610 -1.2994
   90MOL    H6630504   4.425   1.808   6.282 -2.2571 -0.5124 -0.4706
   90MOL    H6730505   4.527   1.950   6.262  0.3308 -0.1990  0.2310
   90MOL    H6830506   4.221   1.941   6.291  0.1835 -2.5545 -1.5821
   90MOL    H6930507   4.333   2.086   6.312  1.1199  0.0602 -1.8646
   90MOL    C7030508   4.208   1.933   5.832  0.4818 -0.5146  0.5509
   90MOL    C7130509   4.173   1.788   5.869  0.5145 -0.3675  0.1965
   90MOL    N7230510   4.037   1.766   5.828  0.0417 -0.2858  0.4377
   90MOL    C7330511   3.946   1.759   5.936 -0.1802 -0.4873 -0.2598
   90MOL    C7430512   3.812   1.757   5.872  0.0670 -1.1706 -0.0806
   90MOL    C7530513   3.827   1.732   5.727 -0.4639  0.2177 -0.0477
   90MOL    C7630514   3.972   1.752   5.709 -0.2682 -0.4115  0.3091
   90MOL    O7730515   4.023   1.748   5.596  0.4323  0.9022 -0.6331
   90MOL    H7830516   4.204   1.936   5.723  1.6449 -0.3865  0.5068
   90MOL    H7930517   4.131   2.003   5.865 -0.0927 -0.3186 -1.1834
   90MOL    H8030518   4.181   1.776   5.977  0.5242 -0.7953  0.1520
   90MOL    H8130519   3.955   1.666   5.993 -1.9193  0.1580  1.1068
   90MOL    H8230520   3.965   1.843   6.003 -1.9189  0.0835 -0.4731
   90MOL    H8330521   3.745   1.694   5.931 -1.0412  1.9245  2.0983
   90MOL    H8430522   3.768   1.855   5.890  2.7679  0.0384  0.2132
   90MOL    H8530523   3.802   1.628   5.706  0.5276  0.0847 -0.6141
   90MOL    H8630524   3.762   1.792   5.663 -1.1154 -1.5266 -1.0548
   90MOL    C8730525   4.262   1.682   5.802 -0.3322 -0.4527 -0.0445
   90MOL    C8830526   4.226   1.537   5.838 -0.2360 -0.1082  0.3656
   90MOL    N8930527   4.263   1.446   5.726 -0.7533 -0.2238  0.0875
   90MOL    C9030528   4.166   1.436   5.615 -0.1852  0.7004 -0.0138
   90MOL    C9130529   4.233   1.337   5.518  0.0783 -0.3267 -0.1065
   90MOL    C9230530   4.371   1.300   5.578  0.1608  0.3150  0.2992
   90MOL    C9330531   4.379   1.382   5.703  0.6192  0.6131 -0.1123
   90MOL    O9430532   4.474   1.385   5.777  0.7745 -0.2478 -0.3389
   90MOL    H9530533   4.366   1.696   5.834 -1.5643  1.2493  3.5063
   90MOL    H9630534   4.257   1.700   5.695  0.0687 -0.3270 -0.0441
   90MOL    H9730535   4.119   1.527   5.859 -0.8373  1.6706 -1.6283
   90MOL    H9830536   4.064   1.411   5.644  0.1456  0.0119  0.5610
   90MOL    H9930537   4.153   1.532   5.564  0.2694  0.5715 -0.3795
   90MOL   H10030538   4.176   1.244   5.512 -1.9876  0.9434 -0.8231
   90MOL   H10130539   4.232   1.373   5.415  4.0709 -2.1586 -0.8466
   90MOL   H10230540   4.382   1.197   5.609 -1.5976  0.0118 -0.0463
   90MOL   H10330541   4.442   1.335   5.503  0.2345 -0.4100  0.0355
   90MOL   C10430542   4.283   1.498   5.983  0.3431  0.7315 -0.0105
   90MOL   C10530543   4.246   1.357   6.034 -0.0269 -0.0450 -0.3404
   90MOL   N10630544   4.344   1.326   6.144  0.4869  0.3986 -0.0229
   90MOL   C10730545   4.460   1.245   6.122  0.3878  0.4942 -0.4651
   90MOL   C10830546   4.537   1.244   6.247 -0.6200  0.0519  0.1476
   90MOL   C10930547   4.458   1.327   6.346 -0.2209 -0.5482 -0.1469
   90MOL   C11030548   4.343   1.382   6.263  0.4730 -0.1550 -0.3703
   90MOL   O11130549   4.269   1.470   6.303 -0.4686 -0.0742  0.0945
   90MOL   H11230550   4.254   1.573   6.057  2.0211 -0.0432  1.4471
   90MOL   H11330551   4.390   1.517   5.982  0.2362  1.2985 -1.8039
   90MOL   H11430552   4.262   1.289   5.951 -1.4836 -0.1829 -0.5282
   90MOL   H11530553   4.435   1.142   6.095  2.7925 -0.7369  1.7068
   90MOL   H11630554   4.528   1.289   6.049  3.1022 -1.5926  0.7142
   90MOL   H11730555   4.543   1.143   6.287  1.2831 -0.4335 -1.3015
   90MOL   H11830556   4.636   1.289   6.238 -0.0504 -1.1277  0.4543
   90MOL   H11930557   4.514   1.413   6.382 -0.3899 -0.2653 -0.5441
   90MOL   H12030558   4.417   1.273   6.431 -1.7379 -1.0586 -1.1696
   90MOL   C12130559   4.094   1.344   6.075  0.4552  0.3675 -0.6875
   90MOL   C12230560   4.030   1.211   6.048 -0.2558  0.3794  0.1121
   90MOL   N12330561   4.013   1.179   5.907 -0.1213 -0.8620  0.5019
   90MOL   C12430562   4.095   1.077   5.833 -0.8696  0.3298 -0.0546
   90MOL   C12530563   4.014   1.056   5.704  0.4081 -0.1706 -0.2338
   90MOL   C12630564   3.907   1.167   5.697  0.5177  0.2543  0.0628
   90MOL   C12730565   3.912   1.234   5.834 -0.6678  0.9767  0.8766
   90MOL   O12830566   3.853   1.337   5.858  0.4617  0.3060 -0.0137
   90MOL   H12930567   4.028   1.418   6.030 -1.5294 -2.0102 -1.8288
   90MOL   H13030568   4.090   1.359   6.183 -0.7151 -0.9305 -0.5299
   90MOL   H13130569   3.928   1.226   6.083 -0.0481 -1.1801  1.4397
   90MOL   H13230570   4.101   0.986   5.893 -0.7163  0.5249  0.2260
   90MOL   H13330571   4.195   1.118   5.817 -0.0108 -1.6328  0.0808
   90MOL   H13430572   4.078   1.053   5.616 -0.7932  0.9831 -1.1523
   90MOL   H13530573   3.964   0.961   5.723  0.8341 -0.1766  0.9203
   90MOL   H13630574   3.918   1.240   5.616 -0.0890 -0.3580 -0.5739
   90MOL   H13730575   3.809   1.122   5.687  0.4482  0.5281 -0.5256
   90MOL   C13830576   4.087   1.104   6.144 -0.3620  0.0195  0.0261
   90MOL   C13930577   3.999   0.981   6.189  0.3530  0.4011 -0.4655
   90MOL   N14030578   4.087   0.881   6.244 -0.3291  0.2214 -0.1103
   90MOL   C14130579   4.073   0.746   6.192 -0.4230  0.5278 -0.3959
   90MOL   C14230580   4.194   0.678   6.259  0.3424  0.9303 -0.3512
   90MOL   C14330581   4.266   0.778   6.351 -0.0731 -0.4641  0.5841
   90MOL   C14430582   4.187   0.902   6.335  1.0007 -0.2624 -1.0359
   90MOL   O14530583   4.225   1.010   6.384 -0.2802 -0.0707  0.2906
   90MOL   H14630584   4.096   1.150   6.242 -2.7202  1.6313 -0.4682
   90MOL   H14730585   4.189   1.086   6.111 -0.2730 -0.6934  0.6876
   90MOL   H14830586   3.965   0.944   6.092  1.0389  1.0000 -0.9273
   90MOL   H14930587   3.979   0.695   6.215  0.0829 -0.3633 -0.2694
   90MOL   H15030588   4.092   0.749   6.084 -1.6833 -1.6875 -0.7253
   90MOL   H15130589   4.164   0.583   6.304  2.2069  0.9413  0.9783
   90MOL   H15230590   4.266   0.650   6.182  0.8783 -2.6565  1.3709
   90MOL   H15330591   4.365   0.803   6.312 -0.7741  0.8992 -0.3701
   90MOL   H15430592   4.289   0.741   6.451  3.3914  4.5897  1.8457
   90MOL   C15530593   3.881   1.019   6.282 -0.2296 -0.7856  0.5253
   90MOL   C15630594   3.744   1.058   6.219 -0.0935 -0.4774  0.6001
   90MOL   N15730595   3.701   0.958   6.124 -0.2715 -0.1242  0.1386
   90MOL   C15830596   3.682   1.010   5.991  0.2609  0.4177 -0.2310
   90MOL   C15930597   3.652   0.880   5.911  0.2243 -0.1163  0.3403
   90MOL   C16030598   3.638   0.770   6.012  0.4264 -0.2331 -0.5979
   90MOL   C16130599   3.675   0.831   6.144 -0.0891 -0.3313 -0.7792
   90MOL   O16230600   3.680   0.765   6.249  0.0938 -0.1973  0.1868
   90MOL   H16330601   3.913   1.099   6.349 -1.0302 -1.0303  1.2195
   90MOL   H16430602   3.864   0.941   6.356 -1.0772 -0.9601  0.1518
   90MOL   H16530603   3.765   1.146   6.157  0.7220 -1.3584 -0.3842
   90MOL   H16630604   3.600   1.082   5.988 -1.6980 -1.7728 -1.4981
   90MOL   H16730605   3.773   1.066   5.969 -0.4097  1.7314  0.3210
   90MOL   H16830606   3.561   0.897   5.855  0.7068 -0.0549 -0.4295
   90MOL   H16930607   3.737   0.867   5.844 -0.9084  0.7782 -1.2751
   90MOL   H17030608   3.537   0.729   6.019 -0.0648  0.9048 -0.8372
   90MOL   H17130609   3.698   0.680   5.998  0.6252 -0.0127 -1.1543
   90MOL   C17230610   3.626   1.085   6.323 -0.6596 -0.0364 -0.1139
   90MOL   C17330611   3.642   1.221   6.399  0.9659 -0.0308  0.1597
   90MOL   N17430612   3.683   1.337   6.322  0.1451  0.0858  0.0321
   90MOL   C17530613   3.779   1.442   6.369  0.1415  0.2458  0.3174
   90MOL   C17630614   3.791   1.540   6.256  0.2618  0.1357  0.1205
   90MOL   C17730615   3.696   1.499   6.147  0.2927  0.8931 -0.0674
   90MOL   C17830616   3.620   1.381   6.212 -0.3517 -0.1550 -0.3316
   90MOL   O17930617   3.522   1.327   6.159 -0.8963  0.1174  0.5267
   90MOL   H18030618   3.629   0.997   6.387  0.9856  0.3701  0.3848
   90MOL   H18130619   3.529   1.089   6.274 -0.2301  0.0229 -0.9716
   90MOL   H18230620   3.712   1.205   6.481  1.9184  0.7226 -0.4937
   90MOL   H18330621   3.739   1.485   6.460 -0.6303  3.3328 -1.4403
   90MOL   H18430622   3.871   1.385   6.386 -0.3294 -0.8795 -0.8322
   90MOL   H18530623   3.895   1.538   6.225  0.1578 -0.1017 -0.2200
   90MOL   H18630624   3.778   1.639   6.302 -0.6327  0.2992 -0.4580
   90MOL   H18730625   3.617   1.574   6.134  0.1090  0.8929  1.0060
   90MOL   H18830626   3.749   1.452   6.064  0.4571  2.4957 -0.8900
   90MOL   C18930627   3.512   1.255   6.481 -0.1419 -0.3936 -0.4158
   90MOL   C19030628   3.477   1.162   6.597  0.9671 -0.6013  0.1140
   90MOL   N19130629   3.518   1.219   6.724 -0.7212  0.1733  0.3148
   90MOL   C19230630   3.587   1.133   6.823 -0.1635  0.3017  0.1324
   90MOL   C19330631   3.579   1.199   6.958 -0.1092  0.4154 -0.5766
   90MOL   C19430632   3.494   1.321   6.938  0.1559 -0.1613 -0.4511
   90MOL   C19530633   3.470   1.324   6.788  0.3629  0.0150 -0.2376
   90MOL   O19630634   3.412   1.424   6.733 -0.0892 -0.0965 -0.2522
   90MOL   H19730635   3.434   1.227   6.411 -0.6759 -0.0759  0.0420
   90MOL   H19830636   3.505   1.360   6.509  0.2811 -0.1234 -1.3050
   90MOL   H19930637   3.523   1.064   6.603 -1.9554 -1.9640  0.7116
   90MOL   H20030638   3.529   1.041   6.837  0.3577  0.3273  2.6123
   90MOL   H20130639   3.686   1.098   6.794 -0.3405  0.4425 -0.6619
   90MOL   H20230640   3.527   1.132   7.027 -0.3787 -1.3015 -2.4121
   90MOL   H20330641   3.681   1.215   6.995  0.5130 -0.2387 -1.9684
   90MOL   H20430642   3.394   1.307   6.979 -0.1309  0.4448 -0.9280
   90MOL   H20530643   3.522   1.413   6.989  1.5028  0.6708 -2.5941
   90MOL   C20630644   3.321   1.146   6.608  0.4664  0.4855  0.2305
   90MOL   C20730645   3.244   1.045   6.509  1.1467  0.9640  0.0507
   90MOL   N20830646   3.314   0.915   6.483  0.3283 -0.0711  0.5466
   90MOL   C20930647   3.318   0.849   6.348 -0.1804  0.7232  0.2287
   90MOL   C21030648   3.362   0.704   6.382  0.4140  0.5542 -0.4993
   90MOL   C21130649   3.423   0.711   6.526 -0.3144  0.9096  0.7502
   90MOL   C21230650   3.364   0.840   6.579  0.1082  0.1739  0.1101
   90MOL   O21330651   3.382   0.864   6.700 -0.1357 -0.1122 -0.1317
   90MOL   H21430652   3.265   1.239   6.617  0.3597  0.5155 -0.7016
   90MOL   H21530653   3.309   1.108   6.710  3.1818 -2.4803 -0.4455
   90MOL   H21630654   3.230   1.090   6.410 -1.4003  0.0839 -0.0027
   90MOL   H21730655   3.221   0.829   6.303  0.0778 -3.0709  1.1576
   90MOL   H21830656   3.401   0.895   6.296  0.0279  2.3476  1.9432
   90MOL   H21930657   3.275   0.638   6.386 -1.3245  2.7791 -0.4992
   90MOL   H22030658   3.434   0.667   6.309  0.2880  3.5525 -2.2504
   90MOL   H22130659   3.402   0.627   6.592  0.1978 -1.1359 -1.6021
   90MOL   H22230660   3.532   0.708   6.525 -0.3527 -1.0994  0.4025
   90MOL   C22330661   3.105   1.016   6.579  0.9478 -0.5764 -0.3336
   90MOL   C22430662   3.000   0.922   6.516 -0.2892 -0.3940  0.6018
   90MOL   N22530663   2.975   0.804   6.598  0.1635  0.2482  0.4253
   90MOL   C22630664   3.024   0.675   6.563 -0.4676  0.2594 -0.0947
   90MOL   C22730665   2.953   0.566   6.653 -0.0991 -0.3883 -0.7191
   90MOL   C22830666   2.882   0.651   6.756  0.1409  0.2649 -0.3677
   90MOL   C22930667   2.898   0.798   6.711 -0.3268  0.2908  0.2555
   90MOL   O23030668   2.830   0.886   6.757 -0.1006 -0.0317  0.6139
   90MOL   H23130669   3.056   1.108   6.609  0.1941 -1.2665  0.5988
   90MOL   H23230670   3.123   0.965   6.674  2.9122  0.2615 -0.2452
   90MOL   H23330671   3.041   0.886   6.422  0.3167  0.2906  0.5972
   90MOL   H23430672   2.991   0.651   6.462 -1.3047  0.5597  0.1018
   90MOL   H23530673   3.132   0.672   6.571 -0.3824  3.1489  0.5610
   90MOL   H23630674   2.884   0.514   6.586 -0.9391  0.1689 -0.2978
   90MOL   H23730675   3.023   0.499   6.703  0.7735 -1.4644 -3.3219
   90MOL   H23830676   2.782   0.619   6.784  0.5386 -0.5004  0.2071
   90MOL   H23930677   2.943   0.627   6.844 -0.7330  1.1048  0.4804
   90MOL   C24030678   2.875   0.993   6.466 -0.3361 -0.1022  0.4624
   90MOL   C24130679   2.890   1.103   6.354 -0.0786  0.0831 -0.1429
   90MOL   N24230680   2.978   1.064   6.243  0.0927  0.1311 -0.5568
   90MOL   C24330681   3.059   1.172   6.176  0.0985 -0.1668 -0.3724
   90MOL   C24430682   3.122   1.101   6.065  0.1075 -0.5684 -0.4084
   90MOL   C24530683   3.060   0.959   6.047  0.0770 -0.2991 -0.2599
   90MOL   C24630684   2.967   0.948   6.168 -0.0405  0.2487  0.8014
   90MOL   O24730685   2.904   0.847   6.198  0.0116  0.0591  0.2923
   90MOL   H24830686   2.831   1.029   6.558  0.6085  0.3266  0.7504
   90MOL   H24930687   2.808   0.918   6.423  0.4949 -0.0750 -0.9289
   90MOL   H25030688   2.949   1.179   6.404  1.2692 -1.2010  0.2352
   90MOL   H25130689   2.986   1.245   6.140  0.0026 -0.6188 -1.0886
   90MOL   H25230690   3.138   1.228   6.228 -0.7812 -0.2758  1.1181
   90MOL   H25330691   3.110   1.146   5.966 -0.6417 -2.9192 -1.4193
   90MOL   H25430692   3.229   1.088   6.083  0.0490 -1.9696 -1.0240
   90MOL   H25530693   2.998   0.945   5.959  0.8320 -0.6909 -0.7280
   90MOL   H25630694   3.120   0.868   6.056 -1.6101 -1.5283 -1.2708
   90MOL   C25730695   2.754   1.157   6.310  0.2399  0.1019  0.5431
   90MOL   C25830696   2.674   1.241   6.412 -0.3256 -0.5286 -0.1211
   90MOL   N25930697   2.735   1.371   6.456  0.0162 -0.1293  0.2215
   90MOL   C26030698   2.707   1.434   6.586 -0.6504  0.1715  0.7666
   90MOL   C26130699   2.797   1.549   6.607  0.4033 -0.2357  0.0721
   90MOL   C26230700   2.864   1.569   6.472 -1.0367  0.1441  0.0913
   90MOL   C26330701   2.820   1.453   6.389 -0.5419  0.2699 -0.3950
   90MOL   O26430702   2.851   1.438   6.271 -0.5728 -0.1408  0.2241
   90MOL   H26530703   2.690   1.080   6.267 -0.5651  1.2991 -0.4268
   90MOL   H26630704   2.769   1.211   6.217 -1.8197  1.1588  0.8104
   90MOL   H26730705   2.674   1.183   6.505 -0.4815  1.1233  0.9312
   90MOL   H26830706   2.601   1.457   6.596 -0.7392  0.4773 -0.7996
   90MOL   H26930707   2.731   1.356   6.659 -0.8615  0.2706  0.9429
   90MOL   H27030708   2.750   1.645   6.629  1.2115 -0.1539  1.4586
   90MOL   H27130709   2.866   1.533   6.690 -0.1676 -1.6842  0.2745
   90MOL   H27230710   2.831   1.664   6.431  2.3289  1.5903  0.6246
   90MOL   H27330711   2.972   1.574   6.466 -1.1317  3.6702  0.5221
   90MOL   C27430712   2.527   1.259   6.371 -0.6301 -0.8481  0.4714
   90MOL   C27530713   2.438   1.142   6.404  0.4602  0.3921 -0.0588
   90MOL   N27630714   2.422   1.128   6.542  0.3431  0.3850  0.5058
   90MOL   C27730715   2.486   1.009   6.603  0.2891 -0.5101  1.3867
   90MOL   C27830716   2.465   1.025   6.750  0.6506 -0.0826 -0.2864
   90MOL   C27930717   2.379   1.152   6.772 -0.7463  0.6779 -0.2830
   90MOL   C28030718   2.379   1.215   6.634 -0.2421  0.1909  0.2109
   90MOL   O28130719   2.330   1.329   6.611  0.4621 -0.1341 -0.3057
   90MOL   H28230720   2.514   1.301   6.271  0.4356 -1.5924  0.0078
   90MOL   H28330721   2.486   1.339   6.431  1.8793  0.3764  0.5939
   90MOL   H28430722   2.492   1.055   6.367 -0.9941 -0.4025 -0.3661
   90MOL   H28530723   2.443   0.916   6.564  0.0845  0.7917 -1.5822
   90MOL   H28630724   2.594   1.002   6.586  0.1540 -0.2466  0.4020
   90MOL   H28730725   2.422   0.937   6.799  2.0556 -1.6860 -1.8926
   90MOL   H28830726   2.557   1.037   6.808 -0.9972 -0.2766  2.4576
   90MOL   H28930727   2.287   1.103   6.805  0.1936 -0.7009  0.3526
   90MOL   H29030728   2.411   1.221   6.849 -0.1730  0.6678 -0.5126
   90MOL   C29130729   2.295   1.154   6.338 -0.0805  0.5797  0.2797
   90MOL   C29230730   2.297   1.125   6.190  0.2378  0.2381 -0.3004
   90MOL   N29330731   2.361   0.994   6.152 -0.4419  0.4130 -0.2075
   90MOL   C29430732   2.315   0.866   6.205 -0.3353  0.1750 -0.1226
   90MOL   C29530733   2.408   0.763   6.131  0.3987  0.0416 -0.3127
   90MOL   C29630734   2.524   0.848   6.069 -0.0180 -0.5517  0.2169
   90MOL   C29730735   2.469   0.983   6.072  0.2729  0.4673  0.2080
   90MOL   O29830736   2.533   1.080   6.026  0.1745 -0.0124 -0.0988
   90MOL   H29930737   2.262   1.257   6.351 -1.4005  0.3202 -0.8522
   90MOL   H30030738   2.223   1.095   6.394 -0.7733  0.9172 -0.2431
   90MOL   H30130739   2.359   1.204   6.149 -0.4588  0.9103 -0.0711
   90MOL   H30230740   2.334   0.855   6.312  0.3901 -0.1405 -0.2792
   90MOL   H30330741   2.210   0.850   6.184 -0.0136 -0.1000 -1.5619
   90MOL   H30430742   2.448   0.696   6.207  2.1944  1.2320 -0.1749
   90MOL   H30530743   2.352   0.702   6.060 -0.5843  0.0964  0.4085
   90MOL   H30630744   2.623   0.846   6.113  0.2926 -1.1916 -0.5009
   90MOL   H30730745   2.530   0.807   5.969  1.6467  1.0342 -0.3528
   90MOL   C30830746   2.155   1.132   6.140 -0.1446  0.0805  0.5294
   90MOL   C30930747   2.150   1.151   5.979  0.7851 -0.3765 -0.6028
   90MOL   N31030748   2.137   1.024   5.909 -0.0597 -0.2431  0.5506
   90MOL   C31130749   2.227   0.996   5.803 -1.0103  0.3490 -0.0278
   90MOL   C31230750   2.206   0.852   5.760  0.4036 -0.4938 -0.4092
   90MOL   C31330751   2.068   0.812   5.832 -0.5541 -0.0629  0.4737
   90MOL   C31430752   2.045   0.929   5.929  1.4762  0.0863  0.6408
   90MOL   O31530753   1.950   0.934   6.006 -0.4831  0.2112  1.1541
   90MOL   H31630754   2.107   1.218   6.187 -2.1137 -0.6512 -0.0771
   90MOL   H31730755   2.096   1.044   6.164  0.0066  0.0150  0.6599
   90MOL   H31830756   2.243   1.204   5.956  0.1225  1.4883  0.8700
   90MOL   H31930757   2.213   1.058   5.714  0.1348 -0.3731 -0.7215
   90MOL   H32030758   2.329   1.026   5.825 -1.7596  2.4966  0.7179
   90MOL   H32130759   2.200   0.845   5.651  0.6587 -0.7488 -0.4054
   90MOL   H32230760   2.281   0.788   5.807 -2.6318 -2.0684  2.5151
   90MOL   H32330761   1.976   0.796   5.775 -1.3454  1.4957  1.2540
   90MOL   H32430762   2.074   0.725   5.896  0.4199 -0.8353 -0.6522
   90MOL   C32530763   2.040   1.250   5.929  0.0743  0.3699 -0.4770
   90MOL   C32630764   2.081   1.395   5.923 -0.2216 -0.0120  0.7211
   90MOL   N32730765   2.115   1.452   6.055  0.6186  0.0239  0.1748
   90MOL   C32830766   2.250   1.514   6.077 -0.0551  0.3417  0.6266
   90MOL   C32930767   2.251   1.597   6.206  0.5118  0.2299 -0.1282
   90MOL   C33030768   2.109   1.563   6.259  0.1144 -0.5771  0.2811
   90MOL   C33130769   2.028   1.502   6.150 -0.2169  0.9090  0.5274
   90MOL   O33230770   1.907   1.488   6.148  0.0567  0.3523 -0.0147
   90MOL   H33330771   1.946   1.235   5.982  0.0100  0.9185 -0.4338
   90MOL   H33430772   2.014   1.224   5.826  2.3190 -0.8123 -0.7862
   90MOL   H33530773   2.005   1.448   5.866  0.1340 -0.6105 -0.3218
   90MOL   H33630774   2.327   1.437   6.080  1.6550  1.9027 -1.5966
   90MOL   H33730775   2.282   1.579   5.995  0.6263  0.8702  1.2999
   90MOL   H33830776   2.326   1.579   6.283  0.6167 -0.3906 -0.3739
   90MOL   H33930777   2.256   1.703   6.180  1.6539  0.0257 -0.7397
   90MOL   H34030778   2.103   1.478   6.327  1.2742 -1.8276 -1.1390
   90MOL   H34130779   2.067   1.642   6.320  0.3002 -1.3294  1.3975
   90MOL   H34230780   2.173   1.409   5.867 -0.3065  2.7141  1.2126
   91MOL     C130781   4.041   2.311   5.729  1.2309  0.6428  0.2217
   91MOL     C230782   4.048   2.281   5.577  0.3008  0.0438  0.0648
   91MOL     N330783   3.943   2.192   5.528  0.0603  0.1833 -1.1100
   91MOL     C430784   3.972   2.060   5.485  0.3159 -0.1188  0.3432
   91MOL     C530785   3.838   2.002   5.428  0.1077 -0.6806 -0.4351
   91MOL     C630786   3.732   2.090   5.484  0.3802 -0.2069 -0.1601
   91MOL     C730787   3.813   2.211   5.536 -0.0472 -0.3058  0.1302
   91MOL     O830788   3.762   2.307   5.582 -0.7458  0.0818 -0.4121
   91MOL     H930789   3.941   2.347   5.754  0.1870 -0.8528 -1.6700
   91MOL    H1030790   4.066   2.211   5.764 -1.9571 -0.5783 -0.7552
   91MOL    H1130791   4.142   2.225   5.576  0.0249 -0.4089 -0.9334
   91MOL    H1230792   4.055   2.061   5.414 -1.7899 -0.7069 -2.2307
   91MOL    H1330793   3.995   1.997   5.570  2.0054 -1.7446 -1.2698
   91MOL    H1430794   3.841   2.006   5.320  1.2475 -1.4622 -0.4344
   91MOL    H1530795   3.817   1.898   5.454 -2.0205 -0.1735 -0.0180
   91MOL    H1630796   3.672   2.137   5.406  0.9759  0.0851 -0.4448
   91MOL    H1730797   3.674   2.036   5.559 -1.3455  0.6030 -0.8851
   91MOL    H1830798   4.127   2.375   5.746  2.1038 -0.5545  0.3841
   91MOL    C1930799   4.048   2.412   5.497 -0.3175  0.4431 -0.5822
   91MOL    C2030800   4.084   2.383   5.352  0.0353  0.1379  0.8684
   91MOL    N2130801   4.017   2.482   5.268  0.0330  0.4677  0.4592
   91MOL    C2230802   4.061   2.619   5.263  0.4875  0.5026 -0.2866
   91MOL    C2330803   3.956   2.685   5.172  0.4269  0.3281 -0.4916
   91MOL    C2430804   3.844   2.587   5.153  0.0261  0.3194  0.8486
   91MOL    C2530805   3.897   2.458   5.196 -0.8413  0.0205 -0.1803
   91MOL    O2630806   3.843   2.348   5.187 -0.4425  0.6373 -0.0449
   91MOL    H2730807   4.125   2.482   5.529 -0.8504  1.1184 -0.7831
   91MOL    H2830808   3.949   2.458   5.494  0.9952  3.3290 -0.6030
   91MOL    H2930809   4.044   2.284   5.331 -0.7661  0.3268  1.4772
   91MOL    H3030810   4.068   2.663   5.362  0.6181  0.0566 -0.0942
   91MOL    H3130811   4.151   2.638   5.205  1.6989 -1.3486  0.9499
   91MOL    H3230812   3.908   2.771   5.218 -0.5937  1.4814 -3.5536
   91MOL    H3330813   4.005   2.710   5.078  0.7099  1.3707 -0.0673
   91MOL    H3430814   3.761   2.608   5.220 -0.1491  2.0138  0.1373
   91MOL    H3530815   3.806   2.573   5.052 -0.1951 -0.0138  0.9788
   91MOL    C3630816   4.234   2.380   5.320  0.7298 -0.0968  0.1159
   91MOL    C3730817   4.273   2.253   5.237  1.5994  0.3812 -0.2931
   91MOL    N3830818   4.191   2.239   5.115 -0.1998  0.0920  0.2855
   91MOL    C3930819   4.096   2.136   5.094  0.0536  0.0554  0.3607
   91MOL    C4030820   4.030   2.169   4.955 -0.2253 -0.0065 -0.0064
   91MOL    C4130821   4.093   2.299   4.907 -0.3344  0.4375 -0.1764
   91MOL    C4230822   4.199   2.329   5.014 -0.2455 -0.2341 -0.3011
   91MOL    O4330823   4.286   2.413   4.993 -0.1870  0.1873 -0.0590
   91MOL    H4430824   4.288   2.381   5.414  0.4948  2.2019  0.2401
   91MOL    H4530825   4.280   2.464   5.268  1.0285  0.7421  1.7256
   91MOL    H4630826   4.242   2.165   5.294  2.9205  0.3979  0.4728
   91MOL    H4730827   4.155   2.046   5.080  1.6230  0.8242  1.8621
   91MOL    H4830828   4.030   2.123   5.180  1.2274 -1.6466  1.0271
   91MOL    H4930829   4.049   2.099   4.873  0.2665  1.0511 -0.8053
   91MOL    H5030830   3.927   2.198   4.970 -0.4736 -0.7122 -0.3113
   91MOL    H5130831   4.145   2.280   4.813 -1.8173  0.8415 -1.0878
   91MOL    H5230832   4.027   2.385   4.897  1.3953  1.9300  0.9277
   91MOL    C5330833   4.428   2.237   5.204 -0.2335  0.1199  0.8135
   91MOL    C5430834   4.475   2.094   5.164 -0.0750  0.8767  0.0660
   91MOL    N5530835   4.589   2.117   5.079  0.3730 -0.8720 -0.3349
   91MOL    C5630836   4.557   2.140   4.940  0.4200  0.2196 -0.2445
   91MOL    C5730837   4.682   2.210   4.876 -0.2651  0.0964 -0.2476
   91MOL    C5830838   4.789   2.190   4.981  0.5922 -0.3461  0.4232
   91MOL    C5930839   4.721   2.147   5.111  0.1771 -0.4644 -0.0319
   91MOL    O6030840   4.780   2.133   5.221 -0.7435  0.1500 -0.4510
   91MOL    H6130841   4.483   2.276   5.290 -0.8946  0.2528  1.1786
   91MOL    H6230842   4.447   2.306   5.121 -1.0129  1.5521  1.8063
   91MOL    H6330843   4.395   2.046   5.107  0.8112 -0.8678  0.2768
   91MOL    H6430844   4.545   2.045   4.888 -1.9729 -0.3474  1.2764
   91MOL    H6530845   4.471   2.204   4.926  0.7486  0.3885 -1.6065
   91MOL    H6630846   4.711   2.164   4.781 -1.8174  2.0126 -1.6956
   91MOL    H6730847   4.657   2.314   4.854  0.1292  0.1059 -0.6560
   91MOL    H6830848   4.870   2.127   4.944  0.3950  1.0759 -2.6003
   91MOL    H6930849   4.829   2.286   5.014 -1.1816  0.0745  1.3848
   91MOL    C7030850   4.502   2.000   5.296  0.5917 -0.5507  0.6050
   91MOL    C7130851   4.573   1.864   5.263 -0.8700  0.0199  0.1752
   91MOL    N7230852   4.598   1.800   5.398  0.2321 -0.3016 -0.0981
   91MOL    C7330853   4.718   1.825   5.474  0.8038 -0.4040 -0.0309
   91MOL    C7430854   4.703   1.762   5.607 -0.1560  0.4485 -0.4090
   91MOL    C7530855   4.564   1.711   5.612 -0.0296  0.4141 -0.6386
   91MOL    C7630856   4.518   1.713   5.470 -0.4079  0.5378 -0.6124
   91MOL    O7730857   4.408   1.663   5.439 -0.4892  0.6421 -0.2151
   91MOL    H7830858   4.403   1.978   5.336  0.3555 -1.6323 -0.5294
   91MOL    H7930859   4.559   2.057   5.370 -0.0601 -1.0387  1.4932
   91MOL    H8030860   4.673   1.892   5.229 -1.5740  2.2801 -0.0544
   91MOL    H8130861   4.814   1.793   5.432 -0.1780  0.1296 -2.8082
   91MOL    H8230862   4.734   1.931   5.493 -3.4872  0.7146 -2.0108
   91MOL    H8330863   4.777   1.683   5.621 -0.0994  0.5074 -0.3761
   91MOL    H8430864   4.729   1.829   5.689 -2.8806  1.5082 -0.3540
   91MOL    H8530865   4.555   1.615   5.663  0.9806 -0.0699 -1.3255
   91MOL    H8630866   4.492   1.776   5.660 -1.7576 -2.9063  1.4592
   91MOL    C8730867   4.509   1.767   5.155 -0.5035  0.1374 -0.5281
   91MOL    C8830868   4.607   1.647   5.130  0.1868  0.3373 -0.1229
   91MOL    N8930869   4.535   1.524   5.118 -0.4861 -0.2398 -1.0430
   91MOL    C9030870   4.576   1.411   5.202 -0.6305  0.1008  0.2623
   91MOL    C9130871   4.466   1.302   5.193  0.0252  0.4492 -0.5185
   91MOL    C9230872   4.382   1.359   5.075 -0.3802  0.1061 -0.3121
   91MOL    C9330873   4.423   1.499   5.051  0.2707 -0.7240  0.8108
   91MOL    O9430874   4.366   1.583   4.975  0.2013 -0.7673 -0.4917
   91MOL    H9530875   4.487   1.819   5.062 -0.7921 -0.1101 -0.5987
   91MOL    H9630876   4.417   1.728   5.200 -1.2923 -0.3044 -2.4607
   91MOL    H9730877   4.669   1.637   5.219 -0.1756 -0.0682  0.0821
   91MOL    H9830878   4.672   1.377   5.165 -1.2147 -0.0894 -1.1062
   91MOL    H9930879   4.590   1.441   5.306 -0.4536  0.3330  0.1734
   91MOL   H10030880   4.497   1.199   5.176 -1.4845 -0.4251  1.8037
   91MOL   H10130881   4.416   1.298   5.290  1.2550 -0.4128  0.0988
   91MOL   H10230882   4.408   1.306   4.983 -0.1400  1.7486 -1.2034
   91MOL   H10330883   4.275   1.350   5.092 -0.2979 -3.2546 -1.0875
   91MOL   C10430884   4.685   1.675   5.002 -0.0666 -0.6871  0.9537
   91MOL   C10530885   4.807   1.584   4.966 -0.1267 -0.0412  0.3785
   91MOL   N10630886   4.846   1.622   4.829 -0.0202 -0.4386  0.3374
   91MOL   C10730887   4.843   1.521   4.723  0.5483 -0.3496  0.0867
   91MOL   C10830888   4.829   1.608   4.594 -0.4236 -0.6208 -0.4498
   91MOL   C10930889   4.884   1.745   4.631 -0.0180  0.2042  0.0966
   91MOL   C11030890   4.870   1.745   4.781  0.0217  0.3174 -0.1720
   91MOL   O11130891   4.879   1.849   4.848  0.4533 -0.5171 -0.0649
   91MOL   H11230892   4.713   1.781   5.000  0.2360 -0.7729  0.5766
   91MOL   H11330893   4.606   1.668   4.926  1.3942  0.9621 -0.7578
   91MOL   H11430894   4.780   1.479   4.978 -0.6726 -0.1890 -1.8386
   91MOL   H11530895   4.939   1.469   4.715  1.0120  0.5203 -0.1027
   91MOL   H11630896   4.764   1.446   4.727  0.5903 -0.3008  3.0431
   91MOL   H11730897   4.884   1.560   4.513 -0.6934  0.0151 -1.0032
   91MOL   H11830898   4.728   1.602   4.553  0.1779  3.1421 -2.6552
   91MOL   H11930899   4.823   1.825   4.590 -0.8896  0.2195  1.4021
   91MOL   H12030900   4.988   1.754   4.601  0.4939  1.3185  2.1410
   91MOL   C12130901   4.923   1.596   5.071  0.4144  0.4566 -0.4444
   91MOL   C12230902   5.058   1.536   5.021  0.5235  1.3901  0.1196
   91MOL   N12330903   5.161   1.597   5.120 -0.0542 -0.1605  0.0173
   91MOL   C12430904   5.223   1.728   5.092  0.3105 -0.0662 -0.7718
   91MOL   C12530905   5.278   1.780   5.227  0.1145 -0.4960 -0.0440
   91MOL   C12630906   5.262   1.667   5.326  0.2982  0.4287  0.5078
   91MOL   C12730907   5.179   1.564   5.248  0.1022  0.6572  0.0516
   91MOL   O12830908   5.133   1.468   5.303  0.3965  0.4042  0.2075
   91MOL   H12930909   4.892   1.545   5.162 -1.7428  0.9182 -0.8956
   91MOL   H13030910   4.933   1.699   5.103 -2.1008  0.1021  1.6558
   91MOL   H13130911   5.077   1.578   4.922  1.5707 -1.3997 -0.9122
   91MOL   H13230912   5.151   1.800   5.054  0.6134 -0.2721 -1.7301
   91MOL   H13330913   5.297   1.725   5.013 -0.3355  2.3517 -1.5146
   91MOL   H13430914   5.380   1.816   5.211  0.7511 -2.5472 -0.6947
   91MOL   H13530915   5.233   1.875   5.256 -0.2028 -0.5748 -0.2733
   91MOL   H13630916   5.361   1.626   5.347  0.5105 -0.2645 -1.7301
   91MOL   H13730917   5.207   1.694   5.416  2.2888  0.0947  1.8775
   91MOL   C13830918   5.057   1.380   5.005 -0.1565  0.0595  0.3048
   91MOL   C13930919   5.185   1.317   4.939 -0.7984  0.1481 -0.0053
   91MOL   N14030920   5.317   1.384   4.969 -0.4805  0.5075  0.6790
   91MOL   C14130921   5.401   1.334   5.082 -0.0206 -0.2692 -0.4085
   91MOL   C14230922   5.503   1.453   5.102 -0.2146 -0.0395 -0.0518
   91MOL   C14330923   5.505   1.520   4.961  0.2721 -0.1494 -0.5635
   91MOL   C14430924   5.385   1.468   4.895  0.0105 -0.4783  0.5912
   91MOL   O14530925   5.355   1.491   4.781  0.9041 -0.4299  0.2843
   91MOL   H14630926   4.976   1.337   4.948 -0.2994 -0.8424  1.1774
   91MOL   H14730927   5.057   1.342   5.107 -2.7903 -0.1537  0.2514
   91MOL   H14830928   5.166   1.338   4.834  4.0388  0.6354 -0.9097
   91MOL   H14930929   5.337   1.339   5.170 -0.2305 -0.4593 -0.5506
   91MOL   H15030930   5.439   1.233   5.068  0.9166 -0.0217  0.3278
   91MOL   H15130931   5.464   1.529   5.170 -2.4601 -2.4637  1.4516
   91MOL   H15230932   5.593   1.402   5.138 -1.5142 -1.7611  0.8029
   91MOL   H15330933   5.596   1.490   4.909  1.4846 -0.8086  1.8552
   91MOL   H15430934   5.505   1.629   4.969 -1.2202 -0.1357 -0.6215
   91MOL   C15530935   5.206   1.161   4.945 -0.0691 -0.1419  0.1564
   91MOL   C15630936   5.106   1.077   4.858 -0.0124 -0.1162 -0.1167
   91MOL   N15730937   5.102   1.123   4.720 -0.1982 -0.1065 -0.2868
   91MOL   C15830938   4.973   1.146   4.657 -0.3747 -0.1937 -0.7115
   91MOL   C15930939   5.001   1.148   4.507  0.5817 -0.0037  0.3593
   91MOL   C16030940   5.149   1.125   4.489 -0.1642 -0.4304  0.1844
   91MOL   C16130941   5.201   1.111   4.629  0.7740 -0.0079  0.2803
   91MOL   O16230942   5.318   1.081   4.656  0.5659  0.6636 -0.0508
   91MOL   H16330943   5.206   1.136   5.051 -0.4510  0.1843  0.2331
   91MOL   H16430944   5.304   1.125   4.912 -0.7816 -0.0891 -2.1124
   91MOL   H16530945   5.008   1.102   4.900  0.5264  0.8372  0.5864
   91MOL   H16630946   4.900   1.067   4.672  0.6418 -1.2888 -1.4258
   91MOL   H16730947   4.930   1.235   4.703  1.3488  0.1216  0.3363
   91MOL   H16830948   4.939   1.080   4.448  0.8098  0.6780 -0.6754
   91MOL   H16930949   4.980   1.248   4.470 -1.6089  0.3892  2.5595
   91MOL   H17030950   5.175   1.040   4.425  0.0603 -0.6944  0.6259
   91MOL   H17130951   5.198   1.207   4.436 -0.8435 -0.4936 -0.5611
   91MOL   C17230952   5.122   0.917   4.873 -0.5699 -0.7118 -0.6697
   91MOL   C17330953   5.080   0.859   5.011  0.4398  0.0666  0.0349
   91MOL   N17430954   4.945   0.910   5.061 -0.3285  0.1277 -0.0940
   91MOL   C17530955   4.935   0.988   5.182 -0.0622  0.4300  1.4736
   91MOL   C17630956   4.797   1.063   5.173 -0.6318 -1.2477 -0.2969
   91MOL   C17730957   4.718   0.991   5.063  0.1788  0.3961  0.2640
   91MOL   C17830958   4.822   0.906   4.997  0.7127 -0.1993 -0.6926
   91MOL   O17930959   4.795   0.844   4.897 -0.4508  0.6082  0.6538
   91MOL   H18030960   5.230   0.900   4.864 -0.3222  1.0130 -1.2963
   91MOL   H18130961   5.063   0.881   4.788 -0.0712 -0.8033 -0.9819
   91MOL   H18230962   5.144   0.894   5.092  2.1888 -0.1664 -1.2351
   91MOL   H18330963   4.953   0.925   5.269  1.5531 -3.0564 -1.2788
   91MOL   H18430964   5.012   1.065   5.176  1.1187 -0.9227 -1.2699
   91MOL   H18530965   4.811   1.169   5.150 -0.4163 -1.1963  0.0706
   91MOL   H18630966   4.754   1.054   5.273 -0.3257 -0.2457 -0.0633
   91MOL   H18730967   4.637   0.930   5.103 -0.2335  0.6505 -0.1908
   91MOL   H18830968   4.670   1.056   4.991  1.0714  1.0600  0.2576
   91MOL   C18930969   5.079   0.706   5.011 -0.1156  0.0634 -0.0596
   91MOL   C19030970   5.202   0.624   4.977 -0.2155 -0.0762  0.6490
   91MOL   N19130971   5.292   0.620   5.092  0.0573 -0.1041 -0.2046
   91MOL   C19230972   5.410   0.699   5.078 -0.7588  0.2553  0.5519
   91MOL   C19330973   5.470   0.704   5.222  0.2858 -0.3235  0.3262
   91MOL   C19430974   5.398   0.599   5.301 -0.0427  0.2994  0.3484
   91MOL   C19530975   5.286   0.560   5.208 -0.0735 -0.9307  0.4828
   91MOL   O19630976   5.191   0.491   5.244 -0.2456  0.0267  0.4225
   91MOL   H19730977   4.992   0.664   4.962 -0.5129 -0.7535  1.2952
   91MOL   H19830978   5.055   0.672   5.112 -1.6040 -1.4738 -0.9033
   91MOL   H19930979   5.250   0.684   4.900  3.2105  0.3510  3.0094
   91MOL   H20030980   5.481   0.655   5.007 -1.5742 -2.5791  1.4118
   91MOL   H20130981   5.393   0.802   5.049  1.9845  0.7132  0.4317
   91MOL   H20230982   5.574   0.683   5.198  0.3314 -0.2961  0.5008
   91MOL   H20330983   5.470   0.801   5.273  0.9865  0.0435 -0.3499
   91MOL   H20430984   5.457   0.508   5.307  0.9124  0.8898  0.0612
   91MOL   H20530985   5.356   0.625   5.398  0.5734 -0.5166  0.8354
   91MOL   C20630986   5.169   0.484   4.925  0.2462  0.1771  0.4779
   91MOL   C20730987   5.104   0.476   4.789  0.4693  0.4343 -0.1372
   91MOL   N20830988   5.203   0.520   4.687 -0.3257  0.0554  0.1399
   91MOL   C20930989   5.166   0.638   4.604  0.4382  0.1535 -0.5228
   91MOL   C21030990   5.273   0.641   4.491 -0.4960 -0.4279 -0.2164
   91MOL   C21130991   5.354   0.516   4.513 -0.5831  0.4445  0.4153
   91MOL   C21230992   5.313   0.458   4.649  0.2584 -0.4636 -0.0660
   91MOL   O21330993   5.364   0.364   4.700  0.0058 -0.3644 -0.9284
   91MOL   H21430994   5.099   0.440   4.996 -0.6352  0.2559 -0.3490
   91MOL   H21530995   5.252   0.413   4.931 -0.5583 -0.9124 -0.9942
   91MOL   H21630996   5.019   0.542   4.802  0.8687  1.3494 -1.9577
   91MOL   H21730997   5.068   0.637   4.558 -1.1436 -0.7520  2.6957
   91MOL   H21830998   5.193   0.728   4.659  0.9430 -0.4215  0.1892
   91MOL   H21930999   5.247   0.655   4.386  0.6828 -0.8701 -0.5780
   91MOL   H22031000   5.336   0.723   4.528  0.3892 -1.7947  1.3815
   91MOL   H22131001   5.332   0.446   4.432 -0.2812  1.2121 -0.3343
   91MOL   H22231002   5.462   0.532   4.508 -0.7020  1.0154 -0.3586
   91MOL   C22331003   5.041   0.342   4.746 -1.3285 -0.5963 -0.1391
   91MOL   C22431004   4.927   0.285   4.829 -0.3469  0.3807 -0.0171
   91MOL   N22531005   4.846   0.389   4.897 -0.2517  0.0889 -0.1014
   91MOL   C22631006   4.828   0.387   5.041 -0.2985 -0.3554 -0.4202
   91MOL   C22731007   4.738   0.507   5.071 -0.1866  0.4126  0.3274
   91MOL   C22831008   4.667   0.532   4.946  0.8327 -0.6906 -0.4005
   91MOL   C22931009   4.755   0.469   4.844 -0.0883 -0.1408 -0.4570
   91MOL   O23031010   4.747   0.495   4.721 -0.0728 -0.4552  0.2804
   91MOL   H23131011   5.122   0.270   4.736 -1.2448 -0.5854  0.4519
   91MOL   H23231012   5.010   0.347   4.642 -3.2927  0.2341  0.4670
   91MOL   H23331013   4.983   0.224   4.901  0.8070 -1.4802 -2.4269
   91MOL   H23431014   4.782   0.290   5.056  1.9335 -1.7914 -2.4932
   91MOL   H23531015   4.920   0.382   5.099 -0.8595  2.3630  0.8079
   91MOL   H23631016   4.676   0.503   5.160  0.9782 -1.5017  1.0766
   91MOL   H23731017   4.805   0.591   5.086 -0.4932  0.4546  1.4626
   91MOL   H23831018   4.571   0.480   4.949  0.2595  0.3392 -0.8604
   91MOL   H23931019   4.660   0.637   4.919 -0.8129 -1.0046 -1.2343
   91MOL   C24031020   4.842   0.196   4.736  0.2245 -0.2398 -0.4068
   91MOL   C24131021   4.720   0.119   4.787 -0.5013 -0.8402  0.4151
   91MOL   N24231022   4.617   0.107   4.683 -0.1966  0.8056 -0.0617
   91MOL   C24331023   4.494   0.187   4.685 -0.2351  0.0998  0.9397
   91MOL   C24431024   4.416   0.150   4.555  0.9159  0.1151  0.1487
   91MOL   C24531025   4.503   0.053   4.479  0.1433  0.4285 -0.2357
   91MOL   C24631026   4.624   0.036   4.568  0.1458 -0.3019 -0.2567
   91MOL   O24731027   4.718   7.872   4.538 -0.0018  0.1731 -0.4619
   91MOL   H24831028   4.908   0.123   4.690  0.7756  1.7145 -2.8617
   91MOL   H24931029   4.820   0.250   4.644 -0.0015 -0.2564 -0.3614
   91MOL   H25031030   4.676   0.183   4.863  2.8668 -0.6312  2.2718
   91MOL   H25131031   4.431   0.165   4.771 -0.4476 -1.0298  0.5099
   91MOL   H25231032   4.511   0.295   4.679 -3.0117  0.5343  0.4168
   91MOL   H25331033   4.328   0.090   4.577  0.6348  0.6943  0.6101
   91MOL   H25431034   4.387   0.231   4.488 -1.5486 -1.8024 -1.1954
   91MOL   H25531035   4.447   7.868   4.459  0.0682  0.6316 -0.9579
   91MOL   H25631036   4.546   0.079   4.382  0.0472 -0.5020 -0.5268
   91MOL   C25731037   4.764   7.895   4.850 -0.3719  0.0854  0.3946
   91MOL   C25831038   4.704   7.887   5.001  0.5017 -0.2121  0.1731
   91MOL   N25931039   4.554   7.882   5.007 -0.3131  0.4266 -0.0234
   91MOL   C26031040   4.489   0.062   5.108  0.4620 -0.2277 -0.1297
   91MOL   C26131041   4.338   0.028   5.095  0.0601  0.2072 -0.8662
   91MOL   C26231042   4.321   7.826   4.983 -0.6323 -0.2672 -0.7757
   91MOL   C26331043   4.463   7.814   4.931 -0.4840 -0.0334 -0.2630
   91MOL   O26431044   4.489   7.741   4.838 -0.2458 -0.1848 -0.2595
   91MOL   H26531045   4.873   7.889   4.858 -0.4078 -1.9760 -0.2879
   91MOL   H26631046   4.737   7.809   4.788  0.5825 -0.2963  0.4946
   91MOL   H26731047   4.741   0.066   5.059 -1.4152  0.6596  0.1805
   91MOL   H26831048   4.521   0.039   5.210  1.3241 -0.7173 -0.5027
   91MOL   H26931049   4.512   0.167   5.092 -1.1156  0.6449  2.9068
   91MOL   H27031050   4.305   7.903   5.194  1.0875  1.9004  0.0292
   91MOL   H27131051   4.275   0.114   5.071 -1.7842 -1.1155 -0.8544
   91MOL   H27231052   4.280   7.735   5.026 -0.5395 -0.8845 -1.9728
   91MOL   H27331053   4.251   7.862   4.909  1.7575  0.9214 -2.5308
   91MOL   C27431054   4.752   7.773   5.098 -0.2327  0.2528 -0.5197
   91MOL   C27531055   4.898   7.730   5.088 -0.0378 -0.2525 -0.1553
   91MOL   N27631056   4.990   7.837   5.137  0.4244  0.1363  0.1542
   91MOL   C27731057   4.987   7.892   5.269 -0.0270  0.3553  0.1109
   91MOL   C27831058   5.112   0.080   5.277 -0.1635 -0.5950 -0.0101
   91MOL   C27931059   5.142   0.123   5.139 -0.3374 -0.1958  0.2186
   91MOL   C28031060   5.072   0.005   5.062  0.1081  0.5015 -0.1049
   91MOL   O28131061   5.097   7.889   4.941 -0.2244 -0.2821 -0.4562
   91MOL   H28231062   4.689   7.686   5.081 -0.2345 -0.4488  2.8741
   91MOL   H28331063   4.729   7.809   5.198 -1.4578 -0.6794 -0.4570
   91MOL   H28431064   4.905   7.718   4.980 -0.8583  1.8439 -0.4650
   91MOL   H28531065   4.902   0.053   5.283 -0.7487 -0.5525  0.0742
   91MOL   H28631066   4.979   7.815   5.345  0.9377  2.4617  2.3993
   91MOL   H28731067   5.114   0.172   5.335  0.9927 -0.2790 -0.5408
   91MOL   H28831068   5.191   0.016   5.316  0.4649 -0.1235 -0.4966
   91MOL   H28931069   5.090   0.217   5.121  2.8653  1.5988 -0.0307
   91MOL   H29031070   5.247   0.149   5.126 -0.0916 -1.2510  0.0371
   91MOL   C29131071   4.925   7.598   5.167  0.4512  0.5662  0.8229
   91MOL   C29231072   4.961   7.483   5.083 -0.0770  0.8931 -0.2666
   91MOL   N29331073   5.026   7.371   5.157 -0.1407 -0.2047 -0.0873
   91MOL   C29431074   5.149   7.305   5.111 -0.4146 -0.9458  0.0386
   91MOL   C29531075   5.209   7.238   5.235 -0.3541 -0.4733 -0.2951
   91MOL   C29631076   5.087   7.210   5.318 -0.3321 -0.3773 -0.1699
   91MOL   C29731077   4.986   7.319   5.275  0.3594 -0.1222 -0.4819
   91MOL   O29831078   4.888   7.364   5.342  0.1876  0.6225 -0.3638
   91MOL   H29931079   4.845   7.581   5.238  0.7286  1.6632  1.4184
   91MOL   H30031080   5.017   7.609   5.226  1.2880 -2.2144  0.1137
   91MOL   H30131081   5.021   7.516   4.999 -0.6519  0.7660 -0.7260
   91MOL   H30231082   5.120   7.231   5.036 -0.2535 -1.7473  0.7583
   91MOL   H30331083   5.218   7.380   5.074 -2.8470  2.5667  2.3264
   91MOL   H30431084   5.259   7.144   5.211 -1.0475 -0.8926 -0.1049
   91MOL   H30531085   5.279   7.301   5.291 -0.2295 -0.6602 -0.2401
   91MOL   H30631086   5.040   7.116   5.290  1.1777 -0.1946 -3.5787
   91MOL   H30731087   5.107   7.214   5.425  0.0009 -1.0038 -0.2029
   91MOL   C30831088   4.839   7.415   5.002 -0.0396  0.4918 -0.3599
   91MOL   C30931089   4.800   7.473   4.866  0.0555 -0.5393  0.3226
   91MOL   N31031090   4.915   7.480   4.773  0.4783  0.6644 -0.0442
   91MOL   C31131091   4.940   7.603   4.700  0.9446  0.1541  0.3441
   91MOL   C31231092   5.047   7.575   4.589  0.0592 -0.0042  0.0102
   91MOL   C31331093   5.090   7.430   4.621  0.0371 -0.1606  0.0586
   91MOL   C31431094   5.014   7.391   4.746  0.2506 -0.1363 -0.5518
   91MOL   O31531095   5.032   7.283   4.804 -0.0683  0.0708  0.3338
   91MOL   H31631096   4.757   7.418   5.074  1.1059  1.2792  0.9436
   91MOL   H31731097   4.859   7.309   4.988 -1.8757  0.0033  0.5347
   91MOL   H31831098   4.775   7.577   4.881  0.1647 -0.2461 -1.3458
   91MOL   H31931099   4.848   7.651   4.666 -0.1749 -1.7512  0.6155
   91MOL   H32031100   4.978   7.675   4.773 -1.2390 -1.5561  3.2782
   91MOL   H32131101   5.004   7.579   4.489  0.7752  3.6819 -0.2115
   91MOL   H32231102   5.125   7.650   4.596 -0.5718  0.4816  2.4309
   91MOL   H32331103   5.062   7.359   4.543  0.2613  0.9117 -1.0189
   91MOL   H32431104   5.197   7.418   4.636  0.5925  1.2210 -2.5110
   91MOL   C32531105   4.671   7.420   4.794 -0.2441  0.5584  0.4315
   91MOL   C32631106   4.551   7.407   4.887  0.1820 -0.4552 -0.7429
   91MOL   N32731107   4.423   7.374   4.818 -0.1064  0.3885 -0.0465
   91MOL   C32831108   4.334   7.479   4.763  0.3789  0.9535 -0.3840
   91MOL   C32931109   4.215   7.402   4.706  0.6947  0.0223  0.4805
   91MOL   C33031110   4.234   7.253   4.744  0.6077 -0.0640 -0.1291
   91MOL   C33131111   4.372   7.252   4.807  0.2530  0.0342  0.6475
   91MOL   O33231112   4.425   7.143   4.847 -0.2644  0.0830  0.4970
   91MOL   H33331113   4.696   7.321   4.756  1.0010  0.3107  1.8853
   91MOL   H33431114   4.652   7.477   4.703 -1.3534 -0.4169  0.0309
   91MOL   H33531115   4.549   7.502   4.939  0.1024 -1.0820  0.4106
   91MOL   H33631116   4.309   7.557   4.835  1.8969 -0.1660  1.4084
   91MOL   H33731117   4.393   7.522   4.682 -0.0763 -0.2470 -1.3597
   91MOL   H33831118   4.117   7.442   4.734  0.1830  0.3298 -1.6503
   91MOL   H33931119   4.219   7.414   4.598  2.1870  1.6967  0.6989
   91MOL   H34031120   4.163   7.220   4.820 -1.3837  0.8732 -1.5255
   91MOL   H34131121   4.227   7.189   4.656 -1.7614  0.5138 -0.4009
   91MOL   H34231122   4.572   7.325   4.955  1.1528  0.7017  0.3850
   92MOL     C131123   6.463   4.575   6.786  0.1357  0.5420 -0.2723
   92MOL     C231124   6.542   4.444   6.748  0.5216  0.0083  0.0781
   92MOL     N331125   6.501   4.387   6.622  0.1672 -0.4248  0.4438
   92MOL     C431126   6.500   4.241   6.608  0.2722 -0.1826 -0.0382
   92MOL     C531127   6.504   4.214   6.455  0.3700  0.4086  0.1897
   92MOL     C631128   6.491   4.350   6.390  0.0604  0.3362  0.0115
   92MOL     C731129   6.495   4.450   6.499  0.2112 -0.1010 -0.3525
   92MOL     O831130   6.486   4.572   6.478 -0.4564  0.2185  0.1751
   92MOL     H931131   6.358   4.565   6.760  0.3495 -2.7178 -0.1459
   92MOL    H1031132   6.444   4.591   6.892 -0.0779 -1.9325  0.0936
   92MOL    H1131133   6.522   4.366   6.822 -1.3551  0.9897  0.6222
   92MOL    H1231134   6.579   4.196   6.669 -0.1938 -0.0835  0.6483
   92MOL    H1331135   6.406   4.207   6.653 -0.8920  1.5917 -1.0733
   92MOL    H1431136   6.600   4.167   6.432 -0.2467 -1.1190  0.6827
   92MOL    H1531137   6.437   4.135   6.421 -0.0704  0.4445  0.9704
   92MOL    H1631138   6.563   4.364   6.309  2.0654  0.0972  1.7017
   92MOL    H1731139   6.393   4.339   6.344  0.0601  1.7094 -0.3234
   92MOL    H1831140   6.497   4.665   6.734  0.3978  1.1737  0.9680
   92MOL    C1931141   6.691   4.480   6.745  0.4827  0.4927  0.5499
   92MOL    C2031142   6.792   4.366   6.705  0.7999 -0.6295  0.5443
   92MOL    N2131143   6.922   4.422   6.657  0.3746 -0.3739 -0.3323
   92MOL    C2231144   6.959   4.419   6.516 -0.0410  0.3208  0.1634
   92MOL    C2331145   7.101   4.474   6.507 -0.0618  0.2306  0.0342
   92MOL    C2431146   7.127   4.539   6.642  0.4948 -0.1194 -0.5698
   92MOL    C2531147   7.014   4.491   6.728 -0.0019 -0.4897 -0.4145
   92MOL    O2631148   7.002   4.518   6.848 -0.2551  0.6115  0.4831
   92MOL    H2731149   6.719   4.525   6.841  1.3888 -1.3858  1.1985
   92MOL    H2831150   6.710   4.570   6.687  0.5549 -0.0993 -0.3529
   92MOL    H2931151   6.752   4.315   6.618  1.4651  0.3037 -0.3198
   92MOL    H3031152   6.955   4.315   6.483  2.7485 -0.5211  2.2725
   92MOL    H3131153   6.888   4.476   6.457  1.1043  0.3180 -1.2722
   92MOL    H3231154   7.171   4.395   6.478 -2.1029 -1.8994  0.7688
   92MOL    H3331155   7.096   4.556   6.436  0.3763  0.9829  0.8570
   92MOL    H3431156   7.223   4.517   6.689  0.8255  3.6183  0.6787
   92MOL    H3531157   7.123   4.648   6.630 -2.7188 -0.1743 -0.4895
   92MOL    C3631158   6.810   4.267   6.824 -0.1741 -0.5372  0.5355
   92MOL    C3731159   6.908   4.156   6.783 -0.0573  0.7995 -0.1268
   92MOL    N3831160   6.967   4.095   6.904  0.0846 -0.6355 -0.4560
   92MOL    C3931161   7.093   4.149   6.951  0.2049  0.3983  0.5577
   92MOL    C4031162   7.146   4.045   7.044 -0.1701  0.3242  0.1752
   92MOL    C4131163   7.042   3.935   7.061  0.0495 -0.9072  0.0017
   92MOL    C4231164   6.929   3.985   6.969  0.3123 -0.4869 -0.6247
   92MOL    O4331165   6.831   3.923   6.946 -0.1855 -0.0353 -0.3048
   92MOL    H4431166   6.716   4.230   6.864  1.0445 -2.3780  1.7801
   92MOL    H4531167   6.857   4.322   6.905 -1.2773 -1.3543  1.7345
   92MOL    H4631168   7.001   4.197   6.742  0.7855  0.0549  1.0056
   92MOL    H4731169   7.159   4.172   6.868  0.5740 -2.1730  0.0746
   92MOL    H4831170   7.072   4.239   7.008 -0.6917 -0.8688  2.2715
   92MOL    H4931171   7.237   4.003   7.001  0.2781 -0.7041  2.0687
   92MOL    H5031172   7.169   4.086   7.142  0.0273 -0.2013  0.3517
   92MOL    H5131173   7.076   3.832   7.048  0.3132 -0.7947 -0.2030
   92MOL    H5231174   7.001   3.942   7.161 -1.3551  2.5676 -0.7715
   92MOL    C5331175   6.850   4.072   6.670  0.1086 -0.3159  0.0130
   92MOL    C5431176   6.938   3.957   6.618 -0.9061 -0.5000 -0.0979
   92MOL    N5531177   6.873   3.886   6.509 -0.2106 -0.3111  0.4582
   92MOL    C5631178   6.764   3.794   6.549  0.3914  0.0741 -0.2333
   92MOL    C5731179   6.674   3.777   6.429  0.1726 -0.2468 -0.6126
   92MOL    C5831180   6.749   3.847   6.313  0.1598  0.2465 -0.3489
   92MOL    C5931181   6.872   3.917   6.379 -0.5329  0.5559 -0.8103
   92MOL    O6031182   6.948   3.997   6.322 -0.3419 -0.7065 -0.2415
   92MOL    H6131183   6.831   4.127   6.578 -0.9064 -1.8368 -0.7006
   92MOL    H6231184   6.760   4.019   6.701 -0.6455  1.5025  0.9683
   92MOL    H6331185   6.930   3.878   6.693  2.6766  1.0918  2.0776
   92MOL    H6431186   6.804   3.697   6.580 -0.9510 -0.0675  1.1027
   92MOL    H6531187   6.695   3.832   6.624  0.3661  0.6559 -0.5540
   92MOL    H6631188   6.651   3.673   6.408  2.0701 -0.7315 -0.4556
   92MOL    H6731189   6.578   3.824   6.445 -0.4190 -1.2760 -1.0953
   92MOL    H6831190   6.764   3.771   6.235  1.2042 -0.2448  0.3149
   92MOL    H6931191   6.673   3.905   6.261  0.3415 -1.1057 -2.1951
   92MOL    C7031192   7.093   3.986   6.606 -0.3796  0.1698  0.9927
   92MOL    C7131193   7.177   3.862   6.586 -0.1456  0.2009 -0.6434
   92MOL    N7231194   7.312   3.917   6.556  0.1536  0.1821 -0.1471
   92MOL    C7331195   7.360   3.909   6.419  0.7910 -0.4060  0.7190
   92MOL    C7431196   7.505   3.962   6.415  0.0989  0.4045 -0.3075
   92MOL    C7531197   7.521   4.030   6.552  1.1610  0.4300  0.2732
   92MOL    C7631198   7.400   3.988   6.628  0.2907 -0.4589 -0.0639
   92MOL    O7731199   7.387   4.013   6.753  0.6502 -0.8533 -0.2133
   92MOL    H7831200   7.126   4.037   6.696 -0.6873  0.7120  0.8057
   92MOL    H7931201   7.114   4.057   6.525 -0.7971  1.9684  2.4334
   92MOL    H8031202   7.128   3.818   6.500  0.4211  2.3660 -2.1371
   92MOL    H8131203   7.348   3.809   6.379 -1.6577  0.4977 -0.8862
   92MOL    H8231204   7.292   3.966   6.356  1.0632 -1.6847 -0.7529
   92MOL    H8331205   7.581   3.884   6.407 -0.9066 -0.7580  1.1221
   92MOL    H8431206   7.511   4.042   6.341 -0.3917  1.1666  0.4685
   92MOL    H8531207   7.619   4.012   6.596  1.2802 -0.0334 -0.1744
   92MOL    H8631208   7.515   4.139   6.544  0.1871  0.2774 -1.2848
   92MOL    C8731209   7.172   3.754   6.700  0.0265 -0.1966 -0.3882
   92MOL    C8831210   7.105   3.619   6.662 -0.1940  0.1921  0.4347
   92MOL    N8931211   7.152   3.559   6.530  0.2968 -0.1820  0.5367
   92MOL    C9031212   7.288   3.517   6.503 -0.1490 -0.5182 -0.2760
   92MOL    C9131213   7.283   3.444   6.370  0.5001  0.3599  0.2910
   92MOL    C9231214   7.144   3.462   6.304 -0.1331 -0.2537  0.7842
   92MOL    C9331215   7.072   3.545   6.418 -0.1568  0.6697  0.6511
   92MOL    O9431216   6.953   3.574   6.417 -1.2176 -0.1569  0.2106
   92MOL    H9531217   7.132   3.798   6.791 -0.5256 -1.5225  0.0094
   92MOL    H9631218   7.276   3.732   6.722  0.2573  0.1061 -1.1648
   92MOL    H9731219   6.999   3.644   6.665  0.0344  1.2678 -0.1491
   92MOL    H9831220   7.352   3.605   6.497  1.7330 -1.7486  1.3361
   92MOL    H9931221   7.329   3.462   6.587  0.9609  0.6746 -0.0131
   92MOL   H10031222   7.370   3.475   6.310  0.2394 -1.0424 -0.8461
   92MOL   H10131223   7.301   3.337   6.375 -0.1726  0.3198  2.1021
   92MOL   H10231224   7.151   3.524   6.215  1.4723 -1.3986  0.0882
   92MOL   H10331225   7.089   3.369   6.290 -1.8612  0.9752 -0.7873
   92MOL   C10431226   7.129   3.512   6.775  0.2092 -0.4318  0.4579
   92MOL   C10531227   7.013   3.513   6.883  0.9875  0.5221  0.1884
   92MOL   N10631228   6.876   3.493   6.833 -1.0230 -0.1980 -0.7565
   92MOL   C10731229   6.771   3.589   6.862  0.5308 -0.0341 -0.2046
   92MOL   C10831230   6.647   3.518   6.788 -0.1963 -0.2323 -0.0614
   92MOL   C10931231   6.696   3.409   6.697 -0.6079 -0.3327  0.1016
   92MOL   C11031232   6.832   3.389   6.755  0.3965  0.0429 -0.0855
   92MOL   O11131233   6.896   3.292   6.727 -0.5264  0.5420 -0.0482
   92MOL   H11231234   7.227   3.531   6.819  0.3025  0.6064 -0.1719
   92MOL   H11331235   7.131   3.410   6.738 -0.8495 -0.3306  0.1111
   92MOL   H11431236   7.010   3.614   6.925 -1.1489  0.9214 -0.8901
   92MOL   H11531237   6.743   3.586   6.968 -0.2037 -0.5398 -0.4111
   92MOL   H11631238   6.788   3.694   6.838 -3.7704  1.0944  1.2710
   92MOL   H11731239   6.573   3.483   6.861  2.1291  1.4905  3.2762
   92MOL   H11831240   6.593   3.599   6.739  1.3440  1.7543  1.4280
   92MOL   H11931241   6.706   3.446   6.594 -0.2030 -0.6129  0.0388
   92MOL   H12031242   6.631   3.322   6.698 -2.3975  0.9791 -0.2661
   92MOL   C12131243   7.041   3.414   7.002 -0.2821 -0.5445 -0.5179
   92MOL   C12231244   7.124   3.487   7.118  0.1635 -0.0342 -0.5707
   92MOL   N12331245   7.124   3.388   7.225 -0.2389 -0.0540 -0.1654
   92MOL   C12431246   7.011   3.403   7.316 -1.0023 -0.1546 -0.0019
   92MOL   C12531247   6.982   3.261   7.367 -1.0864  0.2179  0.5288
   92MOL   C12631248   7.095   3.165   7.318  0.1316 -0.5065 -0.0470
   92MOL   C12731249   7.174   3.258   7.225  0.8605 -0.6695 -0.6214
   92MOL   O12831250   7.270   3.220   7.156 -0.4381 -0.2494 -0.6672
   92MOL   H12931251   7.098   3.326   6.971  0.3077 -0.3982  0.1465
   92MOL   H13031252   6.945   3.384   7.042 -0.2934 -1.1894 -1.0072
   92MOL   H13131253   7.064   3.572   7.151 -2.1186 -0.9648 -2.1939
   92MOL   H13231254   6.919   3.431   7.265 -0.5806  0.1888 -0.5740
   92MOL   H13331255   7.039   3.468   7.399 -1.8150 -0.3278  0.4175
   92MOL   H13431256   6.999   3.272   7.474  2.8266  1.1709 -0.0929
   92MOL   H13531257   6.882   3.223   7.346 -0.5678 -0.0079 -1.7454
   92MOL   H13631258   7.151   3.124   7.402  1.3639  0.4788 -0.3773
   92MOL   H13731259   7.045   3.083   7.266 -0.9014  0.3585 -0.4222
   92MOL   C13831260   7.267   3.530   7.081 -0.2535  0.3470  0.2292
   92MOL   C13931261   7.356   3.596   7.191 -0.0081  0.2524 -0.0109
   92MOL   N14031262   7.478   3.642   7.120  0.1002 -0.0217  0.3596
   92MOL   C14131263   7.585   3.549   7.109  0.1122 -0.1165  0.9360
   92MOL   C14231264   7.677   3.605   7.000 -0.4333  0.4887 -0.8589
   92MOL   C14331265   7.624   3.735   6.966 -0.2461  0.9865  0.4636
   92MOL   C14431266   7.496   3.748   7.039 -0.3185  0.6855 -0.7682
   92MOL   O14531267   7.427   3.848   7.029  0.4835 -0.1465  0.2976
   92MOL   H14631268   7.256   3.609   7.007  2.1740  0.3983 -0.1223
   92MOL   H14731269   7.322   3.448   7.035  0.2346  0.9856 -0.3536
   92MOL   H14831270   7.403   3.524   7.258  2.9077  0.5298 -1.6751
   92MOL   H14931271   7.639   3.542   7.204  1.1918  0.6134  0.3872
   92MOL   H15031272   7.567   3.445   7.082 -0.4384 -0.2004  1.5929
   92MOL   H15131273   7.777   3.617   7.041  0.0937  0.7285 -2.1998
   92MOL   H15231274   7.684   3.543   6.911  1.8429 -0.7292  0.1107
   92MOL   H15331275   7.592   3.739   6.862 -0.2191 -1.3676  0.3458
   92MOL   H15431276   7.701   3.811   6.981 -1.1199  1.9586  0.0467
   92MOL   C15531277   7.286   3.683   7.297  0.1236  0.1086  0.3396
   92MOL   C15631278   7.373   3.785   7.374 -0.8007 -0.4528 -0.1074
   92MOL   N15731279   7.282   3.867   7.458  0.3536 -0.5497 -0.4262
   92MOL   C15831280   7.291   4.014   7.440  0.6740  0.4929  0.7587
   92MOL   C15931281   7.186   4.072   7.531 -0.1579 -0.3689  0.4308
   92MOL   C16031282   7.119   3.959   7.609  0.1427 -0.5769 -0.1065
   92MOL   C16131283   7.188   3.835   7.551 -0.8866  0.1744  0.1458
   92MOL   O16231284   7.170   3.720   7.588  0.8043 -0.3040  0.1294
   92MOL   H16331285   7.226   3.620   7.363  0.6819  0.7789  1.5108
   92MOL   H16431286   7.212   3.743   7.244  1.0662  1.7440  0.8102
   92MOL   H16531287   7.419   3.849   7.298 -0.6411  0.3499  0.6513
   92MOL   H16631288   7.393   4.039   7.470  0.8759  0.5401  0.0467
   92MOL   H16731289   7.272   4.041   7.336  1.0753  0.4955  0.6839
   92MOL   H16831290   7.230   4.139   7.605  0.3486 -0.3564  0.1202
   92MOL   H16931291   7.122   4.130   7.465  0.1733 -0.8678 -0.3406
   92MOL   H17031292   7.151   3.967   7.713 -1.4163  1.4056  0.2458
   92MOL   H17131293   7.012   3.951   7.591  0.4018 -0.2417 -1.9779
   92MOL   C17231294   7.489   3.714   7.449  0.2024 -0.0865 -0.2721
   92MOL   C17331295   7.608   3.808   7.466  0.2660  0.4861  0.1819
   92MOL   N17431296   7.651   3.813   7.602 -0.2067  0.0079  0.0630
   92MOL   C17531297   7.628   3.931   7.674 -0.0012 -0.0735  0.2565
   92MOL   C17631298   7.669   3.908   7.816 -0.3300  0.6403 -0.2640
   92MOL   C17731299   7.723   3.763   7.817  0.2608 -0.4468 -0.1420
   92MOL   C17831300   7.711   3.718   7.675  0.0861  0.0224 -0.1110
   92MOL   O17931301   7.738   3.603   7.644 -0.2301  0.1285 -0.1259
   92MOL   H18031302   7.515   3.624   7.394  0.6948  0.2261 -0.5494
   92MOL   H18131303   7.459   3.667   7.543  0.8437  0.8969  0.4308
   92MOL   H18231304   7.578   3.911   7.443 -0.7617  0.5937  1.9724
   92MOL   H18331305   7.697   4.005   7.632 -1.7543  1.6719  0.4079
   92MOL   H18431306   7.529   3.976   7.675 -0.8001 -1.7984  0.8827
   92MOL   H18531307   7.583   3.919   7.882  0.2723 -1.6490  0.9407
   92MOL   H18631308   7.753   3.969   7.849  0.1712 -0.4979  0.5573
   92MOL   H18731309   7.825   3.763   7.854 -0.4032 -1.5928  1.7962
   92MOL   H18831310   7.674   3.693   7.886 -0.9326 -2.3027 -2.8083
   92MOL   C18931311   7.736   3.793   7.368 -0.5770 -0.9882 -0.2860
   92MOL   C19031312   7.822   3.926   7.342  0.1773 -0.2484 -0.0582
   92MOL   N19131313   0.052   3.889   7.300 -0.4453 -0.1786  0.0114
   92MOL   C19231314   0.156   3.898   7.405 -0.8563  0.4067 -0.4520
   92MOL   C19331315   0.291   3.865   7.341  0.0917  0.3370 -0.6722
   92MOL   C19431316   0.253   3.807   7.200  0.0117 -0.0621  0.1510
   92MOL   C19531317   0.104   3.833   7.192 -0.6156 -0.9333  0.3165
   92MOL   O19631318   0.033   3.808   7.093  0.7259  0.0323  0.1118
   92MOL   H19731319   7.701   3.758   7.270  0.1072  0.1861 -0.9633
   92MOL   H19831320   7.810   3.725   7.408 -0.9142 -1.1626  0.0360
   92MOL   H19931321   7.830   3.978   7.437 -1.2104  0.2257 -0.1854
   92MOL   H20031322   0.163   3.998   7.449 -2.4026  0.0282  0.6875
   92MOL   H20131323   0.129   3.822   7.478 -0.7804  0.1548 -0.6883
   92MOL   H20231324   0.354   3.954   7.340  0.0182  0.4592  1.9517
   92MOL   H20331325   0.344   3.791   7.401  1.3458  1.1021 -0.8164
   92MOL   H20431326   0.295   3.855   7.112  0.7526  0.1073  0.5962
   92MOL   H20531327   0.274   3.700   7.201 -0.1199 -0.0901  1.5727
   92MOL   C20631328   7.752   4.023   7.245  0.1315 -0.4172  0.5994
   92MOL   C20731329   7.844   4.129   7.176 -0.1700 -0.3449 -0.2214
   92MOL   N20831330   7.767   4.198   7.068 -0.1784  0.1642  0.0780
   92MOL   C20931331   7.765   4.153   6.930 -1.3437  0.4214 -0.5996
   92MOL   C21031332   7.652   4.231   6.863 -0.1359 -0.9144  0.3818
   92MOL   C21131333   7.588   4.322   6.975 -0.4957  0.3318  0.0853
   92MOL   C21231334   7.672   4.291   7.091  0.8488 -0.7482  0.1135
   92MOL   O21331335   7.651   4.349   7.198  0.8738 -0.0983 -0.3741
   92MOL   H21431336   7.675   4.077   7.300  0.9921  2.2891 -0.8051
   92MOL   H21531337   7.695   3.974   7.167 -1.0609 -0.4744  1.4922
   92MOL   H21631338   0.021   4.080   7.124 -0.2397  1.3178 -1.9489
   92MOL   H21731339   7.859   4.168   6.878 -1.4843 -2.8488 -1.9386
   92MOL   H21831340   7.753   4.045   6.940  3.1302  0.0858  2.2343
   92MOL   H21931341   7.686   4.295   6.782 -0.1648 -0.2979  0.8526
   92MOL   H22031342   7.574   4.164   6.828  1.2438 -1.8707 -0.9238
   92MOL   H22131343   7.582   4.420   6.928 -0.0306 -0.3095 -1.3561
   92MOL   H22231344   7.489   4.286   7.000 -0.1848 -0.1914  0.5684
   92MOL   C22331345   0.021   4.228   7.266  0.0387  0.0700 -0.4899
   92MOL   C22431346   0.119   4.324   7.190 -0.3516 -0.4913  0.2998
   92MOL   N22531347   0.172   4.420   7.285 -0.1624  0.0743  0.1925
   92MOL   C22631348   0.086   4.541   7.294 -0.2866 -0.2187  0.0047
   92MOL   C22731349   0.152   4.619   7.410 -0.2660  0.1046  0.7296
   92MOL   C22831350   0.253   4.527   7.477  0.2735 -0.2826  0.3901
   92MOL   C22931351   0.250   4.403   7.387 -0.1242  0.1788 -0.1621
   92MOL   O23031352   0.317   4.303   7.420 -0.3074 -0.0807  0.0349
   92MOL   H23131353   0.075   4.170   7.341 -0.6651  1.1149  0.8314
   92MOL   H23231354   7.856   4.278   7.331  0.1253 -2.1476  1.3586
   92MOL   H23331355   0.063   4.385   7.119  1.4547  0.3701 -0.4214
   92MOL   H23431356   0.088   4.604   7.206  2.9826  0.4483  0.4762
   92MOL   H23531357   7.892   4.517   7.331 -0.9553  0.0865 -1.5866
   92MOL   H23631358   0.197   4.711   7.374  0.1146 -1.5690 -3.2906
   92MOL   H23731359   0.080   4.648   7.487  0.2361  1.1611  0.8132
   92MOL   H23831360   0.351   4.574   7.466  0.5240 -1.2257 -1.7708
   92MOL   H23931361   0.223   4.507   7.579 -4.4501  2.9579 -0.1674
   92MOL   C24031362   0.240   4.251   7.116  0.3910 -0.2402 -0.1911
   92MOL   C24131363   0.351   4.345   7.047 -0.4108 -0.3171 -0.1483
   92MOL   N24231364   0.470   4.266   7.018 -0.5364  0.1461 -0.1065
   92MOL   C24331365   0.608   4.321   7.022  0.7582 -1.1014 -0.3940
   92MOL   C24431366   0.702   4.204   7.037  0.1191 -0.3352  0.4785
   92MOL   C24531367   0.626   4.086   6.976  0.2740  0.1995  0.1062
   92MOL   C24631368   0.478   4.140   6.974  0.5589 -0.3804 -0.6402
   92MOL   O24731369   0.388   4.059   6.947 -0.1772  0.8502 -0.9955
   92MOL   H24831370   0.205   4.181   7.040 -0.1897  1.3210 -1.3957
   92MOL   H24931371   0.293   4.184   7.184 -2.0164  0.6965  2.6860
   92MOL   H25031372   0.380   4.409   7.130  1.6022 -0.3762 -0.7591
   92MOL   H25131373   0.622   4.380   6.932 -0.3361  0.8385  0.6781
   92MOL   H25231374   0.627   4.392   7.103 -0.5961 -0.9019 -0.2306
   92MOL   H25331375   0.798   4.221   6.987  0.4660 -3.5097 -0.0540
   92MOL   H25431376   0.739   4.185   7.138  1.1489 -0.4115  0.0980
   92MOL   H25531377   0.664   4.059   6.877  0.1843 -0.9029  0.3648
   92MOL   H25631378   0.638   3.997   7.038 -1.0075  0.5937  0.9280
   92MOL   C25731379   0.303   4.427   6.932 -0.0838 -0.5396  0.0116
   92MOL   C25831380   0.287   4.577   6.962  0.1471 -0.1149  0.0734
   92MOL   N25931381   0.411   4.635   7.017 -0.2933 -0.2997 -0.7967
   92MOL   C26031382   0.405   4.700   7.142 -0.5664 -0.3626 -0.3641
   92MOL   C26131383   0.551   4.748   7.165 -0.0532 -0.1305 -0.7209
   92MOL   C26231384   0.640   4.691   7.058 -0.1102  0.4502 -0.3284
   92MOL   C26331385   0.532   4.642   6.961 -0.3059 -0.1353 -0.4233
   92MOL   O26431386   0.556   4.610   6.845  0.3713  0.0411 -0.2594
   92MOL   H26531387   0.208   4.388   6.896  0.3275 -1.5453  0.0057
   92MOL   H26631388   0.367   4.408   6.846 -0.7340 -1.8587 -0.1925
   92MOL   H26731389   0.202   4.590   7.029 -1.6787 -0.0486 -2.2001
   92MOL   H26831390   0.332   4.781   7.141 -1.3525 -1.0666 -2.1575
   92MOL   H26931391   0.373   4.635   7.224 -1.6373  1.8322  0.9949
   92MOL   H27031392   0.562   4.857   7.165  2.2640 -0.3261 -1.7216
   92MOL   H27131393   0.583   4.730   7.268 -0.6343 -2.4384 -0.9295
   92MOL   H27231394   0.693   4.779   7.022  0.7594  0.8762  1.9028
   92MOL   H27331395   0.710   4.612   7.082  1.0764  1.3703 -0.7360
   92MOL   C27431396   0.262   4.656   6.834  0.7388 -0.3897  0.4254
   92MOL   C27531397   0.122   4.646   6.770  0.3495  0.4058  0.0741
   92MOL   N27631398   0.018   4.676   6.867 -0.3254  1.2121  0.0916
   92MOL   C27731399   7.825   4.569   6.909 -0.1311  0.0061 -0.8270
   92MOL   C27831400   7.745   4.641   7.026 -0.1290 -0.8986 -0.0140
   92MOL   C27931401   7.793   4.786   7.028 -0.0889 -0.1124 -0.4222
   92MOL   C28031402   0.005   4.788   6.931  0.2846  0.0214 -0.3785
   92MOL   O28131403   0.071   4.894   6.909 -0.6361  0.0817  0.4857
   92MOL   H28231404   0.337   4.632   6.758 -0.5165 -0.2432 -0.8860
   92MOL   H28331405   0.282   4.756   6.872 -0.8822 -0.1446  0.6728
   92MOL   H28431406   0.115   4.543   6.735 -0.6357  0.3834  0.3370
   92MOL   H28531407   7.767   4.552   6.819  0.6119  1.0867 -1.5235
   92MOL   H28631408   7.863   4.469   6.927 -1.5236 -0.4983 -0.6912
   92MOL   H28731409   7.639   4.624   7.009  0.0261 -0.9145 -1.0072
   92MOL   H28831410   7.781   4.594   7.118 -0.9115 -1.7286 -0.1298
   92MOL   H28931411   7.723   4.866   7.002  0.1746 -0.2483 -1.5745
   92MOL   H29031412   7.818   4.808   7.132  0.6097 -0.0453 -0.6016
   92MOL   C29131413   0.100   4.734   6.644 -0.1854 -0.2671 -0.2753
   92MOL   C29231414   7.879   4.699   6.564 -0.0008  1.1128 -0.9421
   92MOL   N29331415   7.868   4.814   6.472  0.2270  0.2057 -1.1847
   92MOL   C29431416   7.783   4.928   6.521 -0.3109  0.0363  0.5334
   92MOL   C29531417   7.805   5.037   6.416  0.3516 -0.3994  0.3535
   92MOL   C29631418   7.874   4.967   6.297 -0.1275 -0.1270  0.0160
   92MOL   C29731419   0.006   4.833   6.353  0.2977  0.0362  0.2544
   92MOL   O29831420   0.076   4.754   6.290 -0.3959  0.3890 -0.1862
   92MOL   H29931421   0.186   4.716   6.580 -0.1548 -2.6695  0.3884
   92MOL   H30031422   0.105   4.840   6.668  0.3546 -0.3120 -0.1847
   92MOL   H30131423   7.795   4.701   6.634  1.8311 -2.0384  1.4711
   92MOL   H30231424   7.679   4.900   6.533 -0.5235  0.8499  0.5904
   92MOL   H30331425   7.817   4.965   6.618 -1.4384  4.4393 -0.6139
   92MOL   H30431426   7.709   5.069   6.375 -0.3527  1.4808  3.2821
   92MOL   H30531427   7.867   5.114   6.462 -0.9305  1.3802 -0.8334
   92MOL   H30631428   7.796   4.933   6.228 -0.0814 -2.0799  0.8946
   92MOL   H30731429   0.044   5.030   6.250  0.2764  0.5335  1.5512
   92MOL   C30831430   7.869   4.559   6.496  0.0830  0.1651 -0.4197
   92MOL   C30931431   7.737   4.532   6.419  0.1301  0.4876 -0.6543
   92MOL   N31031432   7.764   4.415   6.330 -0.5927  0.5597 -0.0320
   92MOL   C31131433   7.785   4.436   6.191  0.2900 -0.2871  0.4081
   92MOL   C31231434   7.763   4.307   6.123  0.4170  0.4161  0.4240
   92MOL   C31331435   7.795   4.201   6.234 -0.2593 -0.1709 -0.3753
   92MOL   C31431436   7.784   4.287   6.364 -0.7241  0.0846  0.0490
   92MOL   O31531437   7.786   4.239   6.478  0.4307 -0.7182  0.0510
   92MOL   H31631438   0.003   4.484   6.563  1.4921  0.1427 -1.2565
   92MOL   H31731439   0.042   4.563   6.421 -0.7608 -0.6501 -1.3693
   92MOL   H31831440   7.719   4.628   6.369 -0.6455  0.8642  0.3291
   92MOL   H31931441   7.726   4.519   6.154  1.5893  0.4957  0.0615
   92MOL   H32031442   7.885   4.477   6.178  1.2669 -2.0017  2.1824
   92MOL   H32131443   7.665   4.293   6.076 -0.5335  1.7053  1.9626
   92MOL   H32231444   7.834   4.295   6.041  1.2651  0.6309  1.1259
   92MOL   H32331445   7.726   4.116   6.237 -0.2743 -0.2265 -2.0136
   92MOL   H32431446   7.897   4.169   6.213  0.4277  2.3992 -1.1698
   92MOL   C32531447   7.615   4.506   6.509 -0.5068 -0.2816 -1.0200
   92MOL   C32631448   7.509   4.618   6.504 -0.7074  0.0847  0.1535
   92MOL   N32731449   7.443   4.636   6.373 -0.0910  0.5376  0.0580
   92MOL   C32831450   7.392   4.765   6.336  0.4683  0.0345 -0.1289
   92MOL   C32931451   7.331   4.745   6.196  0.1468 -0.2197  0.1570
   92MOL   C33031452   7.326   4.593   6.170 -0.2620  0.2647  0.2146
   92MOL   C33131453   7.397   4.537   6.297 -0.6040 -0.6840 -0.4348
   92MOL   O33231454   7.400   4.412   6.307 -0.1019  0.3333  0.4520
   92MOL   H33331455   7.640   4.487   6.614  0.6656 -0.0678 -1.2594
   92MOL   H33431456   7.580   4.407   6.478 -1.0515  0.1113 -1.6634
   92MOL   H33531457   7.551   4.714   6.533 -0.1190 -0.2133  0.2896
   92MOL   H33631458   7.309   4.786   6.403  0.5857  0.8915 -0.2508
   92MOL   H33731459   7.465   4.846   6.339 -0.2570  0.6737  0.5690
   92MOL   H33831460   7.229   4.784   6.201  0.2607 -0.1437  2.6634
   92MOL   H33931461   7.384   4.802   6.121 -2.2964  1.3049 -0.4734
   92MOL   H34031462   7.222   4.559   6.169 -0.2436  0.0362  2.6077
   92MOL   H34131463   7.379   4.569   6.078  0.4306 -2.8816  1.3869
   92MOL   H34231464   7.427   4.585   6.569 -0.6818 -2.3978 -1.0395
   93MOL     C131465   3.379   1.626   3.598 -0.5786  0.3197  0.1473
   93MOL     C231466   3.484   1.524   3.561  0.3677 -0.5917  0.9142
   93MOL     N331467   3.511   1.429   3.669 -0.2828 -0.2399  0.2231
   93MOL     C431468   3.646   1.397   3.711 -0.3997 -0.3711  0.1095
   93MOL     C531469   3.646   1.299   3.825  0.2011 -0.0373  0.4878
   93MOL     C631470   3.494   1.267   3.842  0.2854  0.9435 -0.6039
   93MOL     C731471   3.422   1.346   3.730  0.8168 -0.5498  0.7796
   93MOL     O831472   3.301   1.341   3.707 -0.5733 -0.0782  0.3042
   93MOL     H931473   3.412   1.727   3.623  1.9834 -0.2053 -0.9505
   93MOL    H1031474   3.301   1.650   3.526  0.2340  0.0754 -0.8260
   93MOL    H1131475   3.581   1.564   3.531  0.4111 -1.8726 -0.7386
   93MOL    H1231476   3.689   1.344   3.626  0.8052 -0.0186  0.4884
   93MOL    H1331477   3.720   1.475   3.731 -0.6169 -0.2315  0.3896
   93MOL    H1431478   3.703   1.208   3.803  1.5082 -0.4479  4.9071
   93MOL    H1531479   3.687   1.343   3.916 -1.3457 -0.6868  1.5399
   93MOL    H1631480   3.471   1.161   3.830  2.9339  0.1575  1.0387
   93MOL    H1731481   3.449   1.309   3.932 -1.2543  0.1857 -0.9892
   93MOL    H1831482   3.312   1.598   3.679 -1.7052 -0.4731 -1.0469
   93MOL    C1931483   3.438   1.446   3.433  0.4877  0.4612  1.0190
   93MOL    C2031484   3.426   1.532   3.304 -0.1130 -0.5614  0.0610
   93MOL    N2131485   3.547   1.603   3.263  0.5912 -0.0431 -0.6148
   93MOL    C2231486   3.531   1.749   3.227  0.4166  0.2975  0.8079
   93MOL    C2331487   3.675   1.788   3.194  0.5021  0.1419  0.6145
   93MOL    C2431488   3.748   1.654   3.167  0.3320  0.8040 -0.1377
   93MOL    C2531489   3.664   1.544   3.224 -0.2728  0.5316  0.1282
   93MOL    O2631490   3.695   1.425   3.237 -0.4736  0.0502 -0.5244
   93MOL    H2731491   3.344   1.395   3.453  0.3071  0.4575  0.1559
   93MOL    H2831492   3.509   1.367   3.408 -0.7042 -0.3354  0.1583
   93MOL    H2931493   3.355   1.612   3.327 -0.2604 -0.7041  0.0966
   93MOL    H3031494   3.472   1.768   3.137  0.8640  1.0367  0.6710
   93MOL    H3131495   3.490   1.807   3.309  0.4621  0.2066  0.8946
   93MOL    H3231496   3.686   1.831   3.094  2.6561 -0.7603  0.4370
   93MOL    H3331497   3.721   1.846   3.274  0.3770  0.9078  0.1409
   93MOL    H3431498   3.772   1.635   3.063 -1.5665 -0.3993 -0.3804
   93MOL    H3531499   3.843   1.667   3.220  0.8629 -1.0105 -0.6056
   93MOL    C3631500   3.378   1.445   3.180 -0.8240  0.3137 -0.2343
   93MOL    C3731501   3.227   1.403   3.173  0.0431 -0.3631 -0.3007
   93MOL    N3831502   3.137   1.516   3.201 -0.3200  0.2554  0.4628
   93MOL    C3931503   3.037   1.503   3.303 -0.5627  0.2364 -0.1019
   93MOL    C4031504   2.941   1.621   3.277 -0.2721 -0.0471 -0.2010
   93MOL    C4131505   3.016   1.715   3.184 -0.5033 -0.1459  0.3309
   93MOL    C4231506   3.127   1.631   3.130  0.6221 -0.4434 -0.3363
   93MOL    O4331507   3.197   1.660   3.034  0.4298 -0.7511 -0.0449
   93MOL    H4431508   3.439   1.357   3.164  1.4308  2.0679 -1.5171
   93MOL    H4531509   3.395   1.504   3.090 -0.4602 -1.3558 -1.2827
   93MOL    H4631510   3.212   1.326   3.247 -2.3623  0.0956 -0.2614
   93MOL    H4731511   2.990   1.405   3.294 -0.7768  0.3345 -0.0659
   93MOL    H4831512   3.080   1.515   3.402  1.6688 -0.9650 -0.9073
   93MOL    H4931513   2.855   1.581   3.223  0.7965  1.1907 -2.9206
   93MOL    H5031514   2.910   1.663   3.373  1.3389  1.3084 -0.2544
   93MOL    H5131515   2.957   1.758   3.102  2.3035  0.9727 -1.1670
   93MOL    H5231516   3.053   1.795   3.248  3.1111 -1.4391 -0.0183
   93MOL    C5331517   3.199   1.348   3.034 -0.5143  0.7031  0.0100
   93MOL    C5431518   3.058   1.295   3.013  0.4968  0.2866 -1.0598
   93MOL    N5531519   3.040   1.267   2.870 -0.4052  0.0207  0.7266
   93MOL    C5631520   2.967   1.361   2.793  0.0633 -0.2229 -0.4757
   93MOL    C5731521   2.991   1.329   2.645 -0.0757  0.8285 -0.7639
   93MOL    C5831522   3.078   1.200   2.642  0.4789  0.3110 -0.7573
   93MOL    C5931523   3.102   1.178   2.796  0.5761 -1.0263  0.7539
   93MOL    O6031524   3.182   1.097   2.843 -0.2006 -0.4762 -0.1684
   93MOL    H6131525   3.271   1.271   3.008  0.0940  0.6081  1.8654
   93MOL    H6231526   3.212   1.422   2.956 -0.7865  0.3315 -0.3919
   93MOL    H6331527   2.986   1.371   3.042  1.1100 -0.2298  1.9984
   93MOL    H6431528   2.860   1.354   2.813 -0.1577 -0.3113 -1.6395
   93MOL    H6531529   3.002   1.460   2.822 -1.6725 -0.4718  2.6597
   93MOL    H6631530   2.897   1.311   2.593 -0.1135  2.3499 -1.2501
   93MOL    H6731531   3.049   1.411   2.603  1.3680  0.5045  0.5605
   93MOL    H6831532   3.041   1.111   2.591 -0.4299  0.8899 -1.1225
   93MOL    H6931533   3.175   1.214   2.595 -0.5599 -0.4531 -3.1915
   93MOL    C7031534   3.024   1.168   3.099 -0.2147  0.4869 -0.1027
   93MOL    C7131535   2.881   1.125   3.084 -0.6277  0.5130  0.1807
   93MOL    N7231536   2.852   1.001   3.166  0.3406 -0.3432  0.1810
   93MOL    C7331537   2.866   1.013   3.310 -0.7009 -0.1353 -0.0208
   93MOL    C7431538   2.789   0.893   3.355  0.0864 -0.3114 -0.0442
   93MOL    C7531539   2.789   0.790   3.239 -0.0668  0.2657  0.2862
   93MOL    C7631540   2.828   0.876   3.123  0.0784 -0.4598  0.6346
   93MOL    O7731541   2.813   0.841   3.006 -0.3807  0.2332  0.2876
   93MOL    H7831542   3.041   1.212   3.197 -0.1297 -1.4038  0.7415
   93MOL    H7931543   3.096   1.088   3.084 -0.4684  0.7584 -3.1049
   93MOL    H8031544   2.881   1.081   2.984  1.5170  1.7918 -0.4051
   93MOL    H8131545   2.972   1.000   3.334 -0.8938  0.9553  1.4702
   93MOL    H8231546   2.822   1.105   3.349  0.3338  0.0138  0.8325
   93MOL    H8331547   2.828   0.853   3.448 -0.8409 -0.1659  0.4147
   93MOL    H8431548   2.686   0.927   3.366 -0.2552 -1.5508  0.6013
   93MOL    H8531549   2.864   0.714   3.261  0.9006  1.2169  0.2804
   93MOL    H8631550   2.700   0.727   3.229 -0.3721  0.6396  0.6386
   93MOL    C8731551   2.773   1.231   3.096  0.1471  0.0275  0.1730
   93MOL    C8831552   2.626   1.179   3.079 -0.4412 -0.4176  0.0144
   93MOL    N8931553   2.535   1.274   3.138 -0.3865 -0.3215 -0.1421
   93MOL    C9031554   2.454   1.240   3.253  0.0916  0.5894 -0.5849
   93MOL    C9131555   2.353   1.348   3.276  0.7506 -0.3037  0.0408
   93MOL    C9231556   2.407   1.464   3.195  0.0892  0.3657 -0.0364
   93MOL    C9331557   2.516   1.404   3.108  0.0156  0.5981  0.6359
   93MOL    O9431558   2.576   1.467   3.026 -0.0910  0.4587 -0.2648
   93MOL    H9531559   2.790   1.322   3.039  2.3812 -0.8186 -0.6039
   93MOL    H9631560   2.778   1.258   3.202 -3.3520  2.0366 -0.1265
   93MOL    H9731561   2.608   1.083   3.128  0.5859  0.6022  2.4671
   93MOL    H9831562   2.411   1.141   3.240  0.8724  0.4412 -2.1044
   93MOL    H9931563   2.511   1.244   3.346 -1.9444 -0.2499  0.7249
   93MOL   H10031564   2.259   1.307   3.241  0.1965 -0.3653  1.5423
   93MOL   H10131565   2.336   1.366   3.383  1.3169 -0.7537  0.2079
   93MOL   H10231566   2.328   1.518   3.143 -1.4030  0.4323  2.2115
   93MOL   H10331567   2.463   1.538   3.252 -2.2507  1.2246  1.2291
   93MOL   C10431568   2.602   1.160   2.931  0.0711 -0.4702  0.5472
   93MOL   C10531569   2.548   1.014   2.888 -0.0706 -0.1777 -0.0851
   93MOL   N10631570   2.430   0.971   2.967  0.6959 -0.4737  0.5572
   93MOL   C10731571   2.454   0.851   3.047  0.2540  0.6071  0.2918
   93MOL   C10831572   2.323   0.835   3.130  0.6277 -0.2146  0.2400
   93MOL   C10931573   2.245   0.972   3.106  0.2016  0.1324 -0.4934
   93MOL   C11031574   2.322   1.040   2.997 -1.0107 -0.4255  0.3483
   93MOL   O11131575   2.292   1.150   2.953 -0.1970  0.1907 -0.6605
   93MOL   H11231576   2.694   1.181   2.876 -0.4335  1.0463  0.2745
   93MOL   H11331577   2.537   1.232   2.881  1.2679 -1.1099 -2.0100
   93MOL   H11431578   2.632   0.944   2.893  0.4737  0.4945  0.1949
   93MOL   H11531579   2.475   0.768   2.981 -0.7065  0.1262  0.5838
   93MOL   H11631580   2.542   0.854   3.112  0.6051  2.6235 -0.2466
   93MOL   H11731581   2.259   0.758   3.087  0.5829  0.1102 -0.2787
   93MOL   H11831582   2.348   0.828   3.236 -1.4555 -0.7683  0.7098
   93MOL   H11931583   2.250   1.031   3.198  1.3172  0.0335 -0.4839
   93MOL   H12031584   2.143   0.961   3.068  0.5406  0.6317 -1.5812
   93MOL   C12131585   2.517   1.008   2.739  0.2166  0.4222  0.6416
   93MOL   C12231586   2.541   0.873   2.667  1.4713  0.7262  0.8141
   93MOL   N12331587   2.685   0.829   2.665 -0.0966 -0.2551  0.0452
   93MOL   C12431588   2.732   0.700   2.717  0.3638 -0.4379 -0.0162
   93MOL   C12531589   2.888   0.706   2.699  0.2786  0.2342  0.1993
   93MOL   C12631590   2.919   0.837   2.628  0.2375  0.1691 -0.2781
   93MOL   C12731591   2.786   0.906   2.627 -0.3427 -0.4898  0.6300
   93MOL   O12831592   2.776   1.027   2.597 -0.0546 -0.2871  0.2685
   93MOL   H12931593   2.574   1.082   2.682 -1.3468  0.2098 -1.2270
   93MOL   H13031594   2.413   1.033   2.721 -0.4205 -1.7902  1.1120
   93MOL   H13131595   2.524   0.895   2.561 -0.9464 -2.1320  0.5242
   93MOL   H13231596   2.703   0.607   2.668  1.6038 -1.1801  0.6402
   93MOL   H13331597   2.704   0.689   2.822  2.6619 -0.8355  0.5890
   93MOL   H13431598   2.945   0.697   2.792  2.0373  0.0373 -0.8858
   93MOL   H13531599   2.922   0.625   2.635 -0.2849  1.1586 -1.2872
   93MOL   H13631600   2.986   0.900   2.687  3.3234 -0.7966 -2.5881
   93MOL   H13731601   2.964   0.829   2.529  1.4282  0.5378  0.2244
   93MOL   C13831602   2.437   0.761   2.698 -0.2311  0.5039  0.3989
   93MOL   C13931603   2.401   0.665   2.583  0.2198 -0.6929  0.7149
   93MOL   N14031604   2.375   0.528   2.622  0.1988  0.1083 -0.5743
   93MOL   C14131605   2.410   0.422   2.526 -0.2812  0.3084 -0.0987
   93MOL   C14231606   2.325   0.302   2.565  0.6598  0.5929  0.1801
   93MOL   C14331607   2.266   0.331   2.704 -0.1693  0.4980  0.0680
   93MOL   C14431608   2.302   0.477   2.722  0.9834  0.7849 -0.2996
   93MOL   O14531609   2.270   0.543   2.825  0.2801 -0.3763 -0.2643
   93MOL   H14631610   2.346   0.800   2.744 -0.6738  0.8175 -0.7449
   93MOL   H14731611   2.484   0.695   2.771 -2.6577 -1.0090  0.6776
   93MOL   H14831612   2.490   0.666   2.520  1.2786 -0.8228  2.1885
   93MOL   H14931613   2.388   0.458   2.425  1.0389  1.7141  0.0811
   93MOL   H15031614   2.515   0.392   2.523 -0.2668 -0.1974  3.3638
   93MOL   H15131615   2.250   0.312   2.486 -1.7128 -3.8531  1.7030
   93MOL   H15231616   2.370   0.202   2.563  0.9553  0.7383 -1.0758
   93MOL   H15331617   2.323   0.278   2.780  0.1115 -0.1341 -0.5738
   93MOL   H15431618   2.162   0.301   2.713 -0.3215  0.8630 -0.4320
   93MOL   C15531619   2.279   0.714   2.495 -0.1573  0.1414  0.2879
   93MOL   C15631620   2.315   0.805   2.378  0.2573 -0.3521  0.0354
   93MOL   N15731621   2.401   0.732   2.278 -0.2091  0.1139  0.3980
   93MOL   C15831622   2.529   0.791   2.239  0.3336  0.4398  0.7295
   93MOL   C15931623   2.582   0.703   2.126  0.8232  0.1753 -0.3535
   93MOL   C16031624   2.504   0.573   2.134 -0.5827 -0.0194  0.1522
   93MOL   C16131625   2.388   0.612   2.216  0.2221 -0.8398 -0.8200
   93MOL   O16231626   2.292   0.538   2.229  0.1026 -0.0903 -0.1157
   93MOL   H16331627   2.212   0.764   2.565  0.4689 -0.8408  1.6012
   93MOL   H16431628   2.227   0.632   2.446  0.5297 -0.2175  0.1491
   93MOL   H16531629   2.369   0.892   2.414  0.8858 -0.8925  0.4185
   93MOL   H16631630   2.512   0.894   2.209 -1.5856 -0.0155  0.1312
   93MOL   H16731631   2.600   0.777   2.320 -0.8611 -1.8582  1.4380
   93MOL   H16831632   2.555   0.746   2.029 -0.2445 -0.5797 -0.4046
   93MOL   H16931633   2.689   0.687   2.121  0.6226 -1.7753  0.9883
   93MOL   H17031634   2.483   0.539   2.032 -0.5257  0.3648  0.0106
   93MOL   H17131635   2.570   0.499   2.178 -1.3752 -0.9586 -0.2032
   93MOL   C17231636   2.189   0.863   2.315  0.0629  0.4830 -0.1787
   93MOL   C17331637   2.195   1.019   2.295 -0.6856  0.8268 -0.1608
   93MOL   N17431638   2.290   1.065   2.192 -0.3636 -0.0466  0.3510
   93MOL   C17531639   2.392   1.168   2.231  0.0340  1.1451 -0.2698
   93MOL   C17631640   2.429   1.236   2.104 -0.4316 -1.2161 -0.3724
   93MOL   C17731641   2.380   1.141   1.992 -0.2463 -0.0914  1.1544
   93MOL   C17831642   2.276   1.058   2.057  0.6865  0.1208  0.3301
   93MOL   O17931643   2.187   1.002   1.999  0.2646  0.2855 -0.2705
   93MOL   H18031644   2.096   0.831   2.361 -0.2407 -0.4596 -1.4154
   93MOL   H18131645   2.184   0.819   2.216 -1.8631 -2.1348  1.0033
   93MOL   H18231646   2.229   1.059   2.391 -0.3182  0.2916 -0.0679
   93MOL   H18331647   2.347   1.235   2.305 -0.7094  0.6945 -0.3041
   93MOL   H18431648   2.476   1.109   2.268 -0.9997 -0.1240  0.1154
   93MOL   H18531649   2.535   1.262   2.108 -0.4233 -1.2132 -0.5990
   93MOL   H18631650   2.368   1.325   2.090  0.0874 -0.7741  0.1948
   93MOL   H18731651   2.331   1.190   1.907  1.1926 -1.6679 -0.6357
   93MOL   H18831652   2.462   1.074   1.967 -0.2951 -0.3291  1.6275
   93MOL   C18931653   2.058   1.081   2.273  0.3969  0.1874 -0.0940
   93MOL   C19031654   1.959   1.110   2.391  0.8745 -0.1961 -0.1469
   93MOL   N19131655   2.022   1.212   2.481 -0.1067  0.1268  0.3229
   93MOL   C19231656   2.081   1.159   2.602  0.1958  0.1660  0.3233
   93MOL   C19331657   2.189   1.268   2.634 -0.0778 -0.4429 -0.5148
   93MOL   C19431658   2.129   1.391   2.575 -0.2007 -0.5339  0.2229
   93MOL   C19531659   2.060   1.335   2.458  0.6081 -0.5793 -0.3216
   93MOL   O19631660   2.042   1.407   2.364 -0.1607  0.6117 -0.2048
   93MOL   H19731661   2.013   1.002   2.213 -0.6848  1.2884 -0.7479
   93MOL   H19831662   2.073   1.165   2.206  2.8725  1.2361  1.6818
   93MOL   H19931663   1.944   1.027   2.460  0.5992 -1.7783 -2.0567
   93MOL   H20031664   1.997   1.144   2.670 -0.6030 -2.3799 -1.1479
   93MOL   H20131665   2.129   1.062   2.583 -3.4804 -0.8210 -4.9507
   93MOL   H20231666   2.215   1.268   2.739  1.4127 -0.1070 -0.8629
   93MOL   H20331667   2.275   1.234   2.575  0.1524 -0.3945 -0.2097
   93MOL   H20431668   2.048   1.429   2.637  0.6223  0.9640  0.4264
   93MOL   H20531669   2.204   1.467   2.552 -1.2640  0.5966  0.4495
   93MOL   C20631670   1.831   1.170   2.328 -0.2740 -0.0837 -0.6492
   93MOL   C20731671   1.732   1.239   2.422  0.0714 -0.2143  0.0908
   93MOL   N20831672   1.628   1.319   2.350 -0.1916  0.2377  0.7158
   93MOL   C20931673   1.653   1.464   2.343 -0.8476  0.1763  0.2058
   93MOL   C21031674   1.556   1.521   2.245 -0.3526 -0.1812 -0.2092
   93MOL   C21131675   1.467   1.397   2.202  0.0183  0.0547  0.2526
   93MOL   C21231676   1.519   1.275   2.280 -0.2258 -0.0991 -0.2128
   93MOL   O21331677   1.472   1.165   2.270  0.2028  0.5083 -0.3011
   93MOL   H21431678   1.763   1.096   2.286 -0.0153  0.3359 -1.8513
   93MOL   H21531679   1.854   1.238   2.246 -2.0936  2.5868  0.9684
   93MOL   H21631680   1.793   1.306   2.482  0.6021 -1.6390  1.1519
   93MOL   H21731681   1.626   1.504   2.441 -0.3544  0.8773  0.0615
   93MOL   H21831682   1.758   1.478   2.317 -0.7794  0.0750  0.4194
   93MOL   H21931683   1.507   1.609   2.286  0.1229  0.0243 -0.0893
   93MOL   H22031684   1.615   1.560   2.162  0.4457 -1.9391 -0.4904
   93MOL   H22131685   1.366   1.430   2.225 -0.5154  0.2763 -2.1983
   93MOL   H22231686   1.465   1.383   2.093  0.6976 -3.6325  0.6332
   93MOL   C22331687   1.669   1.155   2.531 -0.4007  0.1910 -0.2395
   93MOL   C22431688   1.568   1.229   2.628 -0.2478  0.9338  0.6459
   93MOL   N22531689   1.487   1.131   2.705  0.2580  0.0105 -0.2070
   93MOL   C22631690   1.342   1.153   2.718 -0.7467 -0.3639  0.6870
   93MOL   C22731691   1.286   1.062   2.822 -0.3498  0.0627  0.5926
   93MOL   C22831692   1.391   0.951   2.815 -0.1744 -0.0908  0.4349
   93MOL   C22931693   1.521   1.024   2.766  0.2824  0.1310  0.2041
   93MOL   O23031694   1.634   0.979   2.782 -0.3024  0.3253  0.3900
   93MOL   H23131695   1.753   1.116   2.588 -1.4783 -2.0872 -0.1671
   93MOL   H23231696   1.619   1.071   2.483 -1.2698 -0.5563  1.8825
   93MOL   H23331697   1.493   1.284   2.571 -0.3881 -0.3730 -0.4594
   93MOL   H23431698   1.326   1.258   2.744  0.7802  0.5419 -1.7701
   93MOL   H23531699   1.300   1.121   2.622  0.7853 -0.5284  0.0607
   93MOL   H23631700   1.267   1.102   2.922  1.3258 -0.5890  1.2007
   93MOL   H23731701   1.204   1.003   2.780  1.3238 -1.0568 -1.1639
   93MOL   H23831702   1.415   0.905   2.911  1.2319  0.7834  0.5285
   93MOL   H23931703   1.363   0.875   2.742 -0.1582  0.4379 -0.1255
   93MOL   C24031704   1.641   1.334   2.713 -1.1095 -0.2603 -0.2644
   93MOL   C24131705   1.700   1.298   2.855  0.6474  0.1664  0.7372
   93MOL   N24231706   1.827   1.369   2.893 -0.0656 -0.0830  0.0341
   93MOL   C24331707   1.941   1.293   2.933 -0.4276  0.3016 -0.8626
   93MOL   C24431708   2.028   1.395   3.008  0.1639  0.7164  0.1940
   93MOL   C24531709   1.978   1.535   2.973 -0.1123  0.8253  0.4124
   93MOL   C24631710   1.839   1.502   2.921 -0.0929 -0.5380 -0.5073
   93MOL   O24731711   1.753   1.584   2.919 -0.1501 -0.3084  0.0820
   93MOL   H24831712   1.567   1.409   2.741 -2.8408 -2.4617  1.2237
   93MOL   H24931713   1.716   1.394   2.660 -2.1544  1.9073  0.6510
   93MOL   H25031714   1.742   1.198   2.845 -0.3964 -0.1284 -0.8193
   93MOL   H25131715   1.922   1.202   2.989  1.2504  0.9529  0.8029
   93MOL   H25231716   1.994   1.271   2.840  1.5180 -3.0305  0.9713
   93MOL   H25331717   2.030   1.392   3.116  2.9744 -0.5413  0.1473
   93MOL   H25431718   2.133   1.389   2.979 -0.5225  0.8958 -2.4600
   93MOL   H25531719   1.967   1.600   3.060  0.9279  0.7004  0.6311
   93MOL   H25631720   2.049   1.575   2.901  0.2858  1.1636  0.9888
   93MOL   C25731721   1.600   1.311   2.969 -0.0995  0.6978 -0.2994
   93MOL   C25831722   1.638   1.266   3.110  0.0342  0.6387 -0.3285
   93MOL   N25931723   1.532   1.311   3.201 -0.3573  0.0395  0.0079
   93MOL   C26031724   1.556   1.439   3.259  0.3412 -0.4302 -0.0372
   93MOL   C26131725   1.438   1.468   3.351 -0.1545 -0.2511 -0.3907
   93MOL   C26231726   1.345   1.350   3.328  0.3034 -0.3884  0.0188
   93MOL   C26331727   1.406   1.264   3.221 -0.5371  0.4611 -0.3968
   93MOL   O26431728   1.354   1.168   3.168  0.8788  1.0257  0.2507
   93MOL   H26531729   1.514   1.248   2.944  0.6853 -0.5928  0.1931
   93MOL   H26631730   1.538   1.401   2.971 -0.9109  0.1406  1.2664
   93MOL   H26731731   1.734   1.307   3.141 -0.6410  1.4625  0.7009
   93MOL   H26831732   1.650   1.433   3.314  0.9430 -0.3879 -1.0564
   93MOL   H26931733   1.558   1.521   3.188 -1.4114  1.1153  1.6548
   93MOL   H27031734   1.469   1.477   3.455  1.7336  1.7035 -1.0991
   93MOL   H27131735   1.382   1.560   3.332  0.6678  0.5372  0.9226
   93MOL   H27231736   1.337   1.291   3.420 -0.4197 -0.8498 -0.3432
   93MOL   H27331737   1.244   1.385   3.309  0.4948  0.6916  0.9090
   93MOL   C27431738   1.654   1.113   3.117  0.5338  0.5835  0.3003
   93MOL   C27531739   1.686   1.049   3.256  0.9452 -0.6003 -0.1982
   93MOL   N27631740   1.680   0.903   3.244 -0.9200  0.2022 -0.3002
   93MOL   C27731741   1.563   0.824   3.281  0.3647 -0.0492 -0.0091
   93MOL   C27831742   1.581   0.682   3.211 -0.9778  0.0635 -0.2734
   93MOL   C27931743   1.730   0.675   3.189  0.1274 -1.2332  0.0824
   93MOL   C28031744   1.768   0.825   3.176  0.1967  0.6519 -0.5175
   93MOL   O28131745   1.875   0.869   3.118  0.1828 -0.2664 -0.3640
   93MOL   H28231746   1.738   1.089   3.052  0.6113  1.4375  0.0854
   93MOL   H28331747   1.568   1.064   3.072  0.7943  0.4851 -0.0916
   93MOL   H28431748   1.602   1.079   3.320  1.2788  2.0453 -0.9580
   93MOL   H28531749   1.547   0.815   3.388  2.2527 -2.5874  0.1054
   93MOL   H28631750   1.476   0.875   3.240  0.1206 -1.5178 -1.3645
   93MOL   H28731751   1.542   0.599   3.271 -1.9286 -0.0945 -1.0975
   93MOL   H28831752   1.519   0.693   3.122 -1.5819  2.4084  0.4114
   93MOL   H28931753   1.782   0.633   3.275 -1.6633  1.6034  2.6951
   93MOL   H29031754   1.753   0.611   3.104  1.2178  0.1480 -0.6838
   93MOL   C29131755   1.824   1.093   3.320 -0.4693 -0.7076 -0.0379
   93MOL   C29231756   1.809   1.185   3.447 -0.3225  0.0360  0.3090
   93MOL   N29331757   1.723   1.110   3.547 -0.5326 -0.3770  0.3746
   93MOL   C29431758   1.743   0.972   3.589  0.1632 -0.0555 -0.5186
   93MOL   C29531759   1.603   0.934   3.658  0.2549  0.1928 -0.4757
   93MOL   C29631760   1.527   1.067   3.686  0.5653  0.6308 -0.4754
   93MOL   C29731761   1.610   1.163   3.601  0.0259 -0.3065  0.4793
   93MOL   O29831762   1.577   1.282   3.592 -0.4565 -0.1673 -0.8528
   93MOL   H29931763   1.889   1.135   3.244  0.3428 -0.6311  0.6905
   93MOL   H30031764   1.874   1.006   3.361  1.0054  0.0272 -0.2507
   93MOL   H30131765   1.767   1.281   3.418  2.1208  0.8245 -0.8007
   93MOL   H30231766   1.776   0.905   3.509  0.2919  0.5012 -0.9332
   93MOL   H30331767   1.819   0.963   3.666  1.0539  1.2766 -1.2247
   93MOL   H30431768   1.546   0.873   3.589 -0.9148  1.7344 -0.8901
   93MOL   H30531769   1.629   0.871   3.744 -1.9011 -1.0565 -0.7131
   93MOL   H30631770   1.423   1.057   3.658  0.2489 -2.4136  1.5642
   93MOL   H30731771   1.542   1.098   3.790  1.2815 -1.9648  0.2368
   93MOL   C30831772   1.953   1.216   3.512  0.7883 -0.1246 -0.1727
   93MOL   C30931773   1.963   1.334   3.624 -0.0574  0.8917 -0.0925
   93MOL   N31031774   2.060   1.310   3.728 -0.2487 -0.6610 -0.1520
   93MOL   C31131775   2.008   1.297   3.862  0.2029  0.0728 -0.0328
   93MOL   C31231776   2.140   1.246   3.942  0.1945 -0.3050  0.2542
   93MOL   C31331777   2.259   1.273   3.851 -0.9416 -0.0382  0.0212
   93MOL   C31431778   2.199   1.309   3.719  0.2646 -0.5346 -0.0505
   93MOL   O31531779   2.261   1.338   3.617  0.0921 -0.4233 -0.7420
   93MOL   H31631780   2.037   1.223   3.442  0.5656 -0.6092 -0.4920
   93MOL   H31731781   1.991   1.121   3.552  0.4743 -0.5942 -0.9868
   93MOL   H31831782   1.864   1.319   3.667  0.6600  0.2833  1.3885
   93MOL   H31931783   1.977   1.390   3.910  1.7017  0.0737  0.9768
   93MOL   H32031784   1.930   1.220   3.870 -1.2838  1.6271  0.8419
   93MOL   H32131785   2.155   1.299   4.037  2.5167 -0.7564  0.1680
   93MOL   H32231786   2.142   1.139   3.965  1.5622 -0.4556 -0.4736
   93MOL   H32331787   2.325   1.350   3.890 -1.3401 -0.3111  1.2388
   93MOL   H32431788   2.325   1.186   3.849  0.5550  1.0752  0.4275
   93MOL   C32531789   1.985   1.474   3.575 -0.3047 -0.2195  0.3877
   93MOL   C32631790   1.867   1.535   3.494 -0.5952  0.4383  0.0354
   93MOL   N32731791   1.891   1.676   3.484 -0.0463 -0.5832  0.1801
   93MOL   C32831792   1.979   1.728   3.371 -0.0467 -0.4085  0.3044
   93MOL   C32931793   2.001   1.883   3.394 -0.5823  0.6571  0.6092
   93MOL   C33031794   1.915   1.909   3.518 -0.1522 -0.6346  0.0478
   93MOL   C33131795   1.852   1.777   3.564  0.6944  0.1219 -0.2160
   93MOL   O33231796   1.783   1.767   3.666  0.4769  0.7165  0.0748
   93MOL   H33331797   2.068   1.480   3.505 -0.9851  0.9682 -0.3440
   93MOL   H33431798   1.995   1.541   3.661 -1.2399 -0.3269  0.5924
   93MOL   H33531799   1.772   1.508   3.540  0.0369 -1.9542  0.0313
   93MOL   H33631800   2.060   1.658   3.352  1.0748  0.6031  1.3490
   93MOL   H33731801   1.931   1.722   3.273  0.9048 -0.8732 -0.1423
   93MOL   H33831802   2.105   1.913   3.408 -0.3787 -0.0503  0.6040
   93MOL   H33931803   1.972   1.939   3.305 -1.5517 -1.6254 -0.5547
   93MOL   H34031804   1.980   1.951   3.595 -1.1139  0.3963  0.3001
   93MOL   H34131805   1.832   1.977   3.500  0.0415 -0.4837 -0.2790
   93MOL   H34231806   1.873   1.496   3.392  0.2122 -1.5559  0.8118
   94MOL     C131807   6.276   0.062   1.040  0.0797  0.1963 -0.1950
   94MOL     C231808   6.284   0.074   1.188  0.0194 -0.6011 -0.5724
   94MOL     N331809   6.404   0.137   1.225  0.2318  0.0140  0.2562
   94MOL     C431810   6.513   0.058   1.285  0.4468  0.0713 -0.3576
   94MOL     C531811   6.628   0.155   1.294 -0.8896  0.1987 -0.1259
   94MOL     C631812   6.569   0.293   1.290  0.4466 -0.6880  0.1897
   94MOL     C731813   6.428   0.268   1.228  0.0666  0.1985  0.0141
   94MOL     O831814   6.348   0.355   1.195 -0.5053  0.1315  0.1002
   94MOL     H931815   6.177   0.035   1.004  0.3144  0.2387 -0.8756
   94MOL    H1031816   6.312   0.150   0.986 -1.4156  1.9103  1.5178
   94MOL    H1131817   6.302   7.877   1.218 -0.8600 -1.1483 -1.8578
   94MOL    H1231818   6.483   0.026   1.385  0.6156  2.2211  0.4134
   94MOL    H1331819   6.545   7.879   1.224  0.6601  0.2931 -0.5518
   94MOL    H1431820   6.690   0.143   1.383 -0.2373  0.0987 -0.5932
   94MOL    H1531821   6.684   0.138   1.202 -0.3225 -1.6406  0.5413
   94MOL    H1631822   6.555   0.338   1.388 -1.3766 -0.1565 -0.2903
   94MOL    H1731823   6.632   0.358   1.228  1.8020 -1.3483  0.8670
   94MOL    H1831824   6.346   7.897   0.996  0.3851  0.2115  0.2659
   94MOL    C1931825   6.153   0.134   1.251  0.1487 -0.3719  0.0925
   94MOL    C2031826   6.032   0.031   1.261  0.3322 -0.7318 -0.2693
   94MOL    N2131827   6.022   7.890   1.399 -0.4846 -0.2020  0.7135
   94MOL    C2231828   6.060   7.756   1.436  0.1016 -0.0349  0.0886
   94MOL    C2331829   6.010   7.734   1.583  0.1126  0.9163  0.1033
   94MOL    C2431830   5.976   7.874   1.637 -0.0649 -0.7249  0.3059
   94MOL    C2531831   5.980   0.052   1.504 -0.6491  0.1889 -0.4196
   94MOL    O2631832   5.940   0.167   1.497  0.5700 -0.2977 -0.1258
   94MOL    H2731833   6.125   0.224   1.195  0.5091 -0.9891 -1.0997
   94MOL    H2831834   6.171   0.176   1.349 -2.9530  0.2825  0.4257
   94MOL    H2931835   6.052   7.860   1.186 -0.3771 -0.9040 -0.2830
   94MOL    H3031836   6.027   7.681   1.364 -1.4499 -0.5035  1.2674
   94MOL    H3131837   6.168   7.749   1.442  0.0550 -1.2531 -0.3905
   94MOL    H3231838   5.911   7.689   1.578 -0.1816  1.6778 -1.1408
   94MOL    H3331839   6.077   7.683   1.652 -2.0127 -2.8622 -0.5423
   94MOL    H3431840   5.878   7.884   1.684  1.2590  1.1606  2.7338
   94MOL    H3531841   6.050   0.002   1.709  0.6669  0.8116 -1.1370
   94MOL    C3631842   5.902   0.091   1.198  0.6408 -0.2638  1.3444
   94MOL    C3731843   5.781   0.008   1.228 -0.3353  0.5463 -0.0375
   94MOL    N3831844   5.655   0.083   1.222  0.2513 -0.3547  0.0656
   94MOL    C3931845   5.589   0.109   1.350 -0.0617 -0.5376 -0.1017
   94MOL    C4031846   5.456   0.175   1.308 -0.3868  0.2176  0.9254
   94MOL    C4131847   5.453   0.196   1.157  0.2476  0.6015  0.5461
   94MOL    C4231848   5.582   0.122   1.118  0.0730  0.5559 -0.9180
   94MOL    O4331849   5.618   0.097   1.003 -0.4794 -0.4247 -0.3093
   94MOL    H4431850   5.913   0.119   1.093  0.3019 -2.3790  0.7152
   94MOL    H4531851   5.884   0.187   1.245 -0.6253  0.3379 -0.2941
   94MOL    H4631852   5.784   7.899   1.336 -2.7094  0.7798  0.1075
   94MOL    H4731853   5.568   0.010   1.389 -0.4295 -0.2161  0.5265
   94MOL    H4831854   5.651   0.173   1.414 -0.1432 -2.5346  2.0417
   94MOL    H4931855   5.368   0.115   1.333 -0.3986 -0.5455 -0.8642
   94MOL    H5031856   5.451   0.271   1.360 -0.3341  0.2305  0.9062
   94MOL    H5131857   5.376   0.154   1.093  0.4203  1.4804 -0.2488
   94MOL    H5231858   5.469   0.299   1.125 -0.4556  1.3773  2.6248
   94MOL    C5331859   5.777   7.779   1.157 -0.4094 -0.5433  0.3525
   94MOL    C5431860   5.682   7.668   1.211  0.7808 -0.4464 -0.5447
   94MOL    N5531861   5.684   7.552   1.117  0.3052 -0.3083 -0.0705
   94MOL    C5631862   5.600   7.544   1.001  0.0082  0.1878 -0.6143
   94MOL    C5731863   5.642   7.415   0.925  0.5993  0.2871  0.4904
   94MOL    C5831864   5.765   7.364   0.999 -0.6533 -0.0550  0.0065
   94MOL    C5931865   5.766   7.444   1.123 -1.1937  0.1795  0.0203
   94MOL    O6031866   5.840   7.416   1.217  0.5078 -0.5432 -0.1211
   94MOL    H6131867   5.873   7.732   1.179 -1.2087 -1.5143  1.8058
   94MOL    H6231868   5.764   7.793   1.049 -0.1036  0.7528  0.4823
   94MOL    H6331869   5.585   7.718   1.198  2.3660  2.5461 -1.4492
   94MOL    H6431870   5.495   7.540   1.033  1.2327  0.5573  3.7500
   94MOL    H6531871   5.608   7.638   0.947  0.2095  0.7314  0.3506
   94MOL    H6631872   5.555   7.350   0.934  0.9532 -0.1020  1.0750
   94MOL    H6731873   5.656   7.446   0.821  0.8813 -1.1502  0.0969
   94MOL    H6831874   5.768   7.255   0.998  0.4365 -0.0899  2.6143
   94MOL    H6931875   5.853   7.392   0.941 -0.8526 -1.4000 -0.9544
   94MOL    C7031876   5.710   7.620   1.361  0.7095 -0.5844 -0.5291
   94MOL    C7131877   5.604   7.538   1.418 -0.2497  0.1469  0.7545
   94MOL    N7231878   5.651   7.479   1.545 -0.9574  0.5594  0.5147
   94MOL    C7331879   5.673   7.337   1.551  0.3010  0.3593  0.5313
   94MOL    C7431880   5.765   7.320   1.674  0.1168  0.1108 -0.5724
   94MOL    C7531881   5.773   7.447   1.754  0.0009 -0.4062  0.4620
   94MOL    C7631882   5.692   7.539   1.661  0.6349  0.6879 -0.1113
   94MOL    O7731883   5.655   7.650   1.699 -0.6144  0.5619  0.5433
   94MOL    H7831884   5.700   7.717   1.410  0.0396 -0.4565 -0.9131
   94MOL    H7931885   5.808   7.575   1.380  0.1235 -1.6763 -0.0661
   94MOL    H8031886   5.598   7.465   1.337  2.9742  0.5318  0.1075
   94MOL    H8131887   5.573   7.295   1.563  0.7089 -1.0986 -1.1135
   94MOL    H8231888   5.716   7.291   1.462  2.5556  0.8548  1.3413
   94MOL    H8331889   5.736   7.229   1.726 -2.9960  0.8558 -0.9409
   94MOL    H8431890   5.870   7.305   1.647  0.1280  1.6138 -1.4310
   94MOL    H8531891   5.723   7.447   1.850 -1.1379  1.5073 -0.1025
   94MOL    H8631892   5.879   7.467   1.772  0.8703 -2.6326 -1.7860
   94MOL    C8731893   5.468   7.605   1.433  0.2818 -1.2882 -0.2482
   94MOL    C8831894   5.348   7.501   1.432 -0.5988 -0.1060 -0.2100
   94MOL    N8931895   5.234   7.550   1.503  0.6233  0.5134 -0.2159
   94MOL    C9031896   5.203   7.494   1.630  0.2196  0.2297 -0.5672
   94MOL    C9131897   5.086   7.571   1.687 -0.2801 -0.3955  0.2951
   94MOL    C9231898   5.044   7.668   1.576 -0.2270 -0.4617 -0.2370
   94MOL    C9331899   5.154   7.657   1.477 -0.1467  0.5875 -0.3845
   94MOL    O9431900   5.168   7.738   1.392  0.3211 -0.1230  0.4056
   94MOL    H9531901   5.446   7.672   1.350 -0.3688  0.1789  1.0851
   94MOL    H9631902   5.449   7.674   1.515 -0.5242 -0.0302 -1.4707
   94MOL    H9731903   5.385   7.419   1.494  0.6050  0.5597 -0.0317
   94MOL    H9831904   5.180   7.387   1.626 -1.0179  0.4718 -0.1445
   94MOL    H9931905   5.292   7.510   1.690  0.5921 -0.0999 -1.0268
   94MOL   H10031906   5.019   7.490   1.715  1.4927 -1.9555  0.0999
   94MOL   H10131907   5.114   7.622   1.779 -2.7978 -1.1339  1.5206
   94MOL   H10231908   4.958   7.634   1.518 -0.5867 -1.0797  0.6589
   94MOL   H10331909   5.042   7.771   1.610 -1.3595 -0.8561  0.9025
   94MOL   C10431910   5.317   7.443   1.291 -0.9488  0.5693  0.0016
   94MOL   C10531911   5.185   7.361   1.279  0.4657  0.5925  0.0675
   94MOL   N10631912   5.149   7.352   1.136 -0.1924 -0.5964  0.1744
   94MOL   C10731913   5.036   7.425   1.081 -0.4149 -0.1259  0.0115
   94MOL   C10831914   5.036   7.402   0.929  0.3777 -0.6709 -0.2286
   94MOL   C10931915   5.141   7.297   0.906  0.1077 -0.6174 -0.5058
   94MOL   C11031916   5.214   7.277   1.041  0.4754  0.2880  0.4124
   94MOL   O11131917   5.302   7.194   1.059  0.2158  0.0680  0.3487
   94MOL   H11231918   5.402   7.386   1.253 -1.1719  1.0600 -1.2491
   94MOL   H11331919   5.315   7.529   1.224 -1.8683  2.5349  2.4998
   94MOL   H11431920   5.108   7.429   1.315 -2.1583 -0.5456 -3.2235
   94MOL   H11531921   4.944   7.393   1.131 -0.3094  0.1759  0.4072
   94MOL   H11631922   5.047   7.530   1.111 -2.0361  0.7530 -2.3551
   94MOL   H11731923   4.936   7.364   0.911 -0.1531  0.6849 -0.1801
   94MOL   H11831924   5.068   7.496   0.884  1.9166  0.9986  4.0949
   94MOL   H11931925   5.211   7.322   0.826  2.9010 -3.5376  0.9202
   94MOL   H12031926   5.086   7.207   0.880  2.5309 -1.5599 -2.5960
   94MOL   C12131927   5.191   7.216   1.352 -0.6134  0.2600 -0.3870
   94MOL   C12231928   5.063   7.150   1.387 -0.4258 -0.2106 -0.0563
   94MOL   N12331929   5.089   7.028   1.457 -0.1330  0.4543  0.4132
   94MOL   C12431930   5.151   7.018   1.594  0.1996  0.6545  0.5252
   94MOL   C12531931   5.173   6.868   1.626  0.0353 -0.3064 -0.2821
   94MOL   C12631932   5.157   6.800   1.486  0.2683 -0.4929  0.4854
   94MOL   C12731933   5.094   6.905   1.400 -0.3448  0.0613 -0.0165
   94MOL   O12831934   5.064   6.882   1.282  0.6909  0.2135  0.6363
   94MOL   H12931935   5.257   7.218   1.439 -2.1726 -0.9117  0.8385
   94MOL   H13031936   5.246   7.152   1.283 -0.0863  2.4038 -2.0009
   94MOL   H13131937   5.014   7.129   1.292  2.6384  0.8009 -1.9309
   94MOL   H13231938   5.080   7.062   1.664 -0.4369  0.0852  0.2413
   94MOL   H13331939   5.244   7.074   1.603  1.6681 -1.6409 -0.1267
   94MOL   H13431940   5.267   6.850   1.678 -0.6702 -0.4507  0.9490
   94MOL   H13531941   5.100   6.835   1.699  0.8646 -1.6938 -0.0651
   94MOL   H13631942   5.253   6.762   1.452 -0.5623 -1.7484 -0.5128
   94MOL   H13731943   5.099   6.708   1.489  1.1959 -1.1591 -1.2208
   94MOL   C13831944   4.969   7.244   1.463 -0.3315 -0.2154  0.2787
   94MOL   C13931945   4.837   7.186   1.526 -0.2539  0.4758  0.8006
   94MOL   N14031946   4.776   7.298   1.589  0.0351 -0.3589 -0.4863
   94MOL   C14131947   4.688   7.395   1.525 -0.1513 -0.0068  0.3110
   94MOL   C14231948   4.641   7.485   1.642  0.6009 -0.0997 -0.0156
   94MOL   C14331949   4.684   7.418   1.769 -0.3502  0.2708  0.5382
   94MOL   C14431950   4.776   7.309   1.725 -0.7550  0.6693  0.8219
   94MOL   O14531951   4.835   7.235   1.799  0.2090 -0.2464  0.8536
   94MOL   H14631952   4.942   7.316   1.385 -0.0788  1.3669  1.6337
   94MOL   H14731953   5.020   7.295   1.544 -2.4238  0.9165  0.9002
   94MOL   H14831954   4.865   7.104   1.592  1.0494 -1.2073 -1.7418
   94MOL   H14931955   4.748   7.459   1.460  0.4955  0.8486  1.7138
   94MOL   H15031956   4.603   7.366   1.463 -0.3513 -1.9562  1.4588
   94MOL   H15131957   4.687   7.583   1.634  0.4770 -0.0199  0.2346
   94MOL   H15231958   4.534   7.505   1.639  0.5475 -0.2898  0.5947
   94MOL   H15331959   4.614   7.360   1.828  0.5843 -2.4312 -0.9307
   94MOL   H15431960   4.737   7.490   1.831  0.5111  0.8240 -0.8255
   94MOL   C15531961   4.739   7.110   1.433 -0.6431 -0.0416 -0.2180
   94MOL   C15631962   4.648   6.996   1.506  0.1608  0.3476  0.4234
   94MOL   N15731963   4.555   7.050   1.608 -0.7727 -0.1450  0.4647
   94MOL   C15831964   4.581   7.007   1.744  0.5622 -0.3404  0.4301
   94MOL   C15931965   4.491   7.084   1.836 -0.0438  0.4654  0.5888
   94MOL   C16031966   4.401   7.165   1.739  0.2864 -1.0165 -0.6067
   94MOL   C16131967   4.459   7.141   1.604  0.2686  0.2887 -0.1257
   94MOL   O16231968   4.421   7.192   1.495  1.1188  0.2679  0.3959
   94MOL   H16331969   4.798   7.054   1.360  0.4276 -0.2459  0.7903
   94MOL   H16431970   4.668   7.175   1.382 -0.3268  0.8059  0.4033
   94MOL   H16531971   4.716   6.934   1.564 -0.1228  0.1654  0.5630
   94MOL   H16631972   4.570   6.900   1.761 -2.6986 -0.2037 -0.5280
   94MOL   H16731973   4.684   7.041   1.760  0.1526  1.4869 -0.6622
   94MOL   H16831974   4.422   7.034   1.905  1.0846  1.2244  2.2811
   94MOL   H16931975   4.546   7.153   1.900 -0.4871 -0.2570  1.7631
   94MOL   H17031976   4.294   7.148   1.753  0.2438  0.4594  1.0732
   94MOL   H17131977   4.423   7.272   1.742  2.9143 -1.5228 -0.7545
   94MOL   C17231978   4.579   6.892   1.414 -0.3598  0.3792  0.4775
   94MOL   C17331979   4.672   6.788   1.347 -0.0463 -0.3903  0.7297
   94MOL   N17431980   4.708   6.672   1.433 -0.1154  0.2363 -0.2746
   94MOL   C17531981   4.843   6.645   1.492  0.6761 -0.2936  0.3306
   94MOL   C17631982   4.833   6.523   1.583  0.0311  0.4989  0.3228
   94MOL   C17731983   4.691   6.468   1.557 -0.2557  0.0949 -0.5448
   94MOL   C17831984   4.625   6.575   1.468 -0.2848  0.8003 -0.9943
   94MOL   O17931985   4.507   6.555   1.427  0.0713 -0.8850  0.0663
   94MOL   H18031986   4.523   6.949   1.340  1.2040  1.3722  0.0227
   94MOL   H18131987   4.503   6.838   1.470 -0.6586  0.2132 -0.0854
   94MOL   H18231988   4.767   6.824   1.307 -0.7297 -0.9706 -1.5063
   94MOL   H18331989   4.898   6.618   1.402 -3.0811 -2.3545 -1.4791
   94MOL   H18431990   4.883   6.733   1.543  2.2411  0.0266 -1.4044
   94MOL   H18531991   4.848   6.557   1.685 -0.3927  0.6420  0.3402
   94MOL   H18631992   4.914   6.453   1.562  1.0643  1.5116  0.8713
   94MOL   H18731993   4.671   6.369   1.516 -0.6007  0.4687 -1.2785
   94MOL   H18831994   4.627   6.468   1.645  2.2065  1.4072  1.3228
   94MOL   C18931995   4.616   6.739   1.206  0.1285 -0.0955  0.2452
   94MOL   C19031996   4.598   6.833   1.091  0.2939 -0.2658 -0.0762
   94MOL   N19131997   4.725   6.876   1.040 -0.0006 -0.4817  0.7843
   94MOL   C19231998   4.750   7.018   1.023  0.4206  0.5543  0.1164
   94MOL   C19331999   4.895   7.032   0.972  0.5162  0.7527 -0.2952
   94MOL   C19432000   4.933   6.891   0.928 -0.0089  0.2075  0.6868
   94MOL   C19532001   4.815   6.803   0.975  0.0547 -0.5252  0.1176
   94MOL   O19632002   4.803   6.683   0.955  0.0860  0.2441  0.2465
   94MOL   H19732003   4.518   6.698   1.226 -0.8785  2.6539  1.2392
   94MOL   H19832004   4.663   6.646   1.175  1.6685  1.0966 -1.1625
   94MOL   H19932005   4.559   6.925   1.133 -3.4466 -2.7393  2.1910
   94MOL   H20032006   4.665   7.063   0.972  0.9007  2.0736  0.6090
   94MOL   H20132007   4.733   7.062   1.122 -2.8586 -0.0473 -0.1253
   94MOL   H20232008   4.894   7.107   0.893  1.4302 -0.5853 -1.6324
   94MOL   H20332009   4.961   7.076   1.046 -2.1023  0.3338  2.3804
   94MOL   H20432010   4.943   6.893   0.819  0.4412 -1.5844  0.6701
   94MOL   H20532011   5.030   6.855   0.963 -1.3533 -2.5909  1.7221
   94MOL   C20632012   4.499   6.784   0.985  0.1373  0.4786  0.7866
   94MOL   C20732013   4.352   6.791   1.033  0.0273 -1.1052 -0.0066
   94MOL   N20832014   4.315   6.934   1.070  0.0655  0.3203 -0.2707
   94MOL   C20932015   4.314   7.037   0.965  0.4317  0.4379 -0.1648
   94MOL   C21032016   4.240   7.157   1.035  0.2624  0.0345 -0.3172
   94MOL   C21132017   4.241   7.121   1.189 -0.1070 -0.7597 -0.3564
   94MOL   C21232018   4.286   6.977   1.194 -0.1457 -0.9999 -0.2762
   94MOL   O21332019   4.279   6.907   1.296  0.5307  0.2290  0.1132
   94MOL   H21432020   4.532   6.687   0.946 -2.6027 -0.5817  1.0199
   94MOL   H21532021   4.502   6.846   0.895 -1.3778 -0.2397  0.2271
   94MOL   H21632022   4.359   6.725   1.120 -0.6606  1.6410  2.1774
   94MOL   H21732023   4.419   7.064   0.951  0.5846  0.1606  0.4521
   94MOL   H21832024   4.264   6.992   0.879  0.2453 -0.0321  0.1898
   94MOL   H21932025   4.305   7.244   1.023  1.2389 -0.0483  3.5443
   94MOL   H22032026   4.143   7.171   0.989 -0.2828 -1.9634  0.1699
   94MOL   H22132027   4.314   7.178   1.247  0.8385 -1.0989 -1.1908
   94MOL   H22232028   4.143   7.138   1.233  0.0603 -0.4590 -0.1006
   94MOL   C22332029   4.248   6.727   0.940 -0.4842  0.1296 -0.5022
   94MOL   C22432030   4.175   6.597   1.008 -0.6384 -0.0811 -0.0431
   94MOL   N22532031   4.112   6.627   1.139 -0.1855 -0.5059 -0.1706
   94MOL   C22632032   4.153   6.549   1.258 -0.5038  0.5093  0.5139
   94MOL   C22732033   4.105   6.636   1.378  0.1567  0.4206  0.5172
   94MOL   C22832034   4.012   6.745   1.318 -1.1885  0.2079  0.2437
   94MOL   C22932035   4.032   6.726   1.170 -0.1550 -0.6562  0.4219
   94MOL   O23032036   3.990   6.807   1.090 -0.7928  0.2122 -0.0772
   94MOL   H23132037   4.295   6.695   0.847 -0.0056 -0.3647 -0.0935
   94MOL   H23232038   4.168   6.796   0.914 -1.1456 -0.1358  0.7893
   94MOL   H23332039   4.260   6.534   1.037  1.3657  1.9217 -1.3298
   94MOL   H23432040   4.109   6.450   1.263  1.8853 -0.5093  2.0753
   94MOL   H23532041   4.260   6.530   1.266  0.0143  3.5013  1.3713
   94MOL   H23632042   4.071   6.580   1.465 -0.4427 -0.1848 -0.0961
   94MOL   H23732043   4.194   6.682   1.422  1.3311 -0.1497 -1.2244
   94MOL   H23832044   3.910   6.729   1.352 -0.6805 -1.9924  0.8527
   94MOL   H23932045   4.039   6.849   1.337  1.4177 -0.3496 -0.1688
   94MOL   C24032046   4.074   6.515   0.920  0.2414  0.2030  0.1928
   94MOL   C24132047   4.147   6.455   0.798  0.0170 -0.6681  0.0953
   94MOL   N24232048   4.262   6.373   0.841  0.0733  0.0046  0.0094
   94MOL   C24332049   4.387   6.401   0.774  0.3135 -0.2324 -0.1157
   94MOL   C24432050   4.483   6.297   0.828 -0.4128  0.4601  0.1241
   94MOL   C24532051   4.417   6.224   0.939  0.0270  0.0432  0.0396
   94MOL   C24632052   4.268   6.277   0.932  0.4968  0.3292  0.3684
   94MOL   O24732053   4.177   6.223   0.992 -0.2648  0.0681  0.0221
   94MOL   H24832054   4.003   6.591   0.887  0.9811  0.4442 -0.8908
   94MOL   H24932055   4.027   6.436   0.978  0.0955  0.8315  0.9357
   94MOL   H25032056   4.183   6.534   0.733  0.5904 -1.4590 -0.5601
   94MOL   H25132057   4.367   6.387   0.667 -2.0928 -3.9004  0.7345
   94MOL   H25232058   4.433   6.499   0.788 -0.6270  0.2150 -0.1414
   94MOL   H25332059   4.508   6.232   0.745 -2.4557  0.3911 -0.4628
   94MOL   H25432060   4.576   6.345   0.859  0.3940 -0.8545 -0.2300
   94MOL   H25532061   4.426   6.116   0.925  0.3786  0.0345  0.3352
   94MOL   H25632062   4.457   6.240   1.039 -2.9277 -0.0141  1.2946
   94MOL   C25732063   4.059   6.365   0.710  0.1357 -0.5087 -0.6084
   94MOL   C25832064   3.956   6.443   0.627 -0.0713 -0.3676  0.3278
   94MOL   N25932065   4.024   6.529   0.531  0.2478  0.0552  0.7202
   94MOL   C26032066   3.994   6.672   0.522 -0.6848 -0.1347 -0.1816
   94MOL   C26132067   4.089   6.733   0.419  0.6840  0.5553 -0.7134
   94MOL   C26232068   4.177   6.625   0.379  0.3972  0.0753  0.5783
   94MOL   C26332069   4.114   6.498   0.432 -0.0653  0.0067 -0.7802
   94MOL   O26432070   4.140   6.387   0.385 -0.3320 -0.1556 -0.0546
   94MOL   H26532071   4.006   6.305   0.785  1.2427 -1.0398 -0.2519
   94MOL   H26632072   4.117   6.293   0.653  1.6986  0.3130 -0.0591
   94MOL   H26732073   3.896   6.499   0.699  0.1996 -1.0347  1.0807
   94MOL   H26832074   3.896   6.703   0.486  0.0107  0.8701 -1.2449
   94MOL   H26932075   4.007   6.714   0.622 -1.2828 -0.2059 -0.0676
   94MOL   H27032076   4.023   6.758   0.336 -0.6212 -2.5116 -0.6630
   94MOL   H27132077   4.134   6.826   0.454  0.9613 -0.1966  0.9233
   94MOL   H27232078   4.200   6.623   0.272  0.9443 -1.0308  0.7149
   94MOL   H27332079   4.272   6.638   0.432  1.7036 -2.3680 -1.0567
   94MOL   C27432080   3.855   6.355   0.557  0.0084 -0.5993  0.4221
   94MOL   C27532081   3.739   6.278   0.628 -0.5233 -0.4693  0.2688
   94MOL   N27632082   3.653   6.374   0.700 -0.1740 -0.1443  0.5324
   94MOL   C27732083   3.648   6.364   0.848 -0.1380 -0.3666 -0.5011
   94MOL   C27832084   3.563   6.486   0.898  0.6408  0.3470 -0.2677
   94MOL   C27932085   3.505   6.539   0.764 -0.1325  0.0514  0.1421
   94MOL   C28032086   3.578   6.471   0.654 -0.3505 -0.0766  1.0042
   94MOL   O28132087   3.569   6.519   0.539  0.1737  0.1527 -0.2342
   94MOL   H28232088   3.900   6.303   0.472  1.2309  0.0070  0.6803
   94MOL   H28332089   3.810   6.437   0.500  1.5804 -0.4752 -0.6835
   94MOL   H28432090   3.789   6.221   0.705  1.1373  0.3333 -0.1955
   94MOL   H28532091   3.589   6.280   0.884 -1.6155 -0.1261 -2.2770
   94MOL   H28632092   3.749   6.364   0.889 -0.1211  0.2436 -0.5384
   94MOL   H28732093   3.479   6.457   0.961  0.9852 -1.3831 -0.5757
   94MOL   H28832094   3.624   6.565   0.940 -1.4122  2.0440 -0.3803
   94MOL   H28932095   3.403   6.501   0.763 -0.6702  1.3626  1.6185
   94MOL   H29032096   3.524   6.644   0.740  0.2465  0.0865  0.5920
   94MOL   C29132097   3.651   6.193   0.531 -0.4680  0.0171  0.4091
   94MOL   C29232098   3.694   6.048   0.532  0.0679 -0.4323  0.0013
   94MOL   N29332099   3.608   5.974   0.440 -0.2800  0.3408  0.0704
   94MOL   C29432100   3.599   6.012   0.292  0.0790 -0.3724  0.0654
   94MOL   C29532101   3.496   5.913   0.227 -0.2319 -0.2879  0.2198
   94MOL   C29632102   3.486   5.802   0.332 -0.1148  0.1964  0.3888
   94MOL   C29732103   3.542   5.857   0.458 -0.0622 -0.1829  0.1396
   94MOL   O29832104   3.537   5.790   0.562 -0.0799  0.0800 -0.5774
   94MOL   H29932105   3.662   6.233   0.430 -0.0752 -0.7313  0.1455
   94MOL   H30032106   3.543   6.198   0.546 -0.2918  0.9325  1.3870
   94MOL   H30132107   3.676   6.004   0.630 -0.0818  0.1164  0.2196
   94MOL   H30232108   3.578   6.118   0.281  0.0040 -0.5029 -1.1286
   94MOL   H30332109   3.697   6.009   0.244 -0.2748 -0.3016 -0.6805
   94MOL   H30432110   3.405   5.974   0.226  0.0236  0.1106  0.8649
   94MOL   H30532111   3.505   5.875   0.125 -1.7024 -1.1694  0.4125
   94MOL   H30632112   3.383   5.773   0.348  0.2011 -1.5783 -0.6930
   94MOL   H30732113   3.554   5.717   0.333 -0.0555  0.2210 -0.7620
   94MOL   C30832114   3.840   6.016   0.486  0.0764 -0.0644  0.0710
   94MOL   C30932115   3.944   5.994   0.590 -0.7836  0.4640 -0.8557
   94MOL   N31032116   3.902   5.879   0.664  0.0497  0.2264  0.0200
   94MOL   C31132117   3.870   5.896   0.799 -0.2606 -0.6466 -0.2309
   94MOL   C31232118   3.874   5.760   0.861 -0.1859  0.6349  0.3350
   94MOL   C31332119   3.859   5.664   0.743 -0.0743  0.8644 -0.0233
   94MOL   C31432120   3.890   5.752   0.622  0.4013 -0.2243 -0.3914
   94MOL   O31532121   3.905   5.713   0.510 -0.5846  0.1462 -0.3649
   94MOL   H31632122   3.861   6.097   0.416 -0.5822  1.3653  1.5019
   94MOL   H31732123   3.842   5.934   0.414 -1.8081  0.3980 -0.5330
   94MOL   H31832124   3.945   6.076   0.662  0.3242 -0.5013  0.2709
   94MOL   H31932125   3.930   5.970   0.850 -0.7925  0.7935 -1.6535
   94MOL   H32032126   3.768   5.928   0.819  0.0314 -0.9843  1.9019
   94MOL   H32132127   3.961   5.743   0.924 -0.3615  0.1507  0.4455
   94MOL   H32232128   3.798   5.737   0.935  0.1720 -2.4221 -0.1999
   94MOL   H32332129   3.919   5.573   0.749  3.3125  3.1099  2.3156
   94MOL   H32432130   3.760   5.619   0.738  0.3148  0.1133 -1.3339
   94MOL   C32532131   4.087   5.970   0.517  0.0045 -0.6281  0.0155
   94MOL   C32632132   4.199   5.969   0.620  0.1050  0.7961  0.0864
   94MOL   N32732133   4.330   5.937   0.570  0.3861  0.7073 -0.4657
   94MOL   C32832134   4.421   5.851   0.637 -0.2519 -0.9331 -0.3220
   94MOL   C32932135   4.543   5.840   0.538  0.5599  0.3720 -0.0745
   94MOL   C33032136   4.538   5.962   0.452  0.3121  0.1692 -0.0818
   94MOL   C33132137   4.396   6.003   0.474 -0.0014 -0.5801  0.2490
   94MOL   O33232138   4.345   6.101   0.415 -0.4062  0.2945 -0.0783
   94MOL   H33332139   4.115   6.046   0.444  0.3927 -1.7014 -0.9489
   94MOL   H33432140   4.085   5.872   0.470  0.5823  0.2158 -1.7982
   94MOL   H33532141   4.173   5.905   0.704  0.5181  1.5340  0.7780
   94MOL   H33632142   4.448   5.895   0.733 -1.6751  0.6118 -0.6026
   94MOL   H33732143   4.380   5.750   0.647 -0.3333 -0.8473  0.2373
   94MOL   H33832144   4.639   5.831   0.589  1.3978  4.7413 -0.6545
   94MOL   H33932145   4.533   5.750   0.478  0.1446  0.0479  0.4839
   94MOL   H34032146   4.595   6.050   0.482 -1.5630  1.1613  0.6434
   94MOL   H34132147   4.551   5.954   0.344 -0.6375 -2.8680 -0.0196
   94MOL   H34232148   4.209   6.072   0.653 -0.8306  1.1746 -0.7912
   95MOL     C132149   7.643   7.152   5.996  0.6652 -0.5482  0.4136
   95MOL     C232150   7.636   7.191   5.844 -0.0076  0.1395 -0.1776
   95MOL     N332151   7.506   7.246   5.816 -0.0855  0.2233  0.3105
   95MOL     C432152   7.438   7.347   5.898  0.0322 -0.1168 -0.0433
   95MOL     C532153   7.316   7.381   5.818 -0.0170 -0.2350  0.4119
   95MOL     C632154   7.319   7.301   5.682 -0.4964  0.4787 -0.6881
   95MOL     C732155   7.443   7.219   5.701  0.2147  0.1331  0.5036
   95MOL     O832156   7.483   7.148   5.610 -0.5256 -0.6045  0.5511
   95MOL     H932157   7.714   7.073   6.021  1.1644 -0.5676 -1.0771
   95MOL    H1032158   7.645   7.235   6.066 -1.3093 -0.3147  0.2280
   95MOL    H1132159   7.658   7.106   5.779 -1.2703  0.4046 -0.9602
   95MOL    H1232160   7.415   7.288   5.986  2.2180  0.6831  1.1140
   95MOL    H1332161   7.504   7.431   5.921  1.0775 -0.7159 -0.7969
   95MOL    H1432162   7.236   7.338   5.879  0.7843 -0.6770  1.1637
   95MOL    H1532163   7.303   7.486   5.792  2.8746  0.5821  2.0867
   95MOL    H1632164   7.242   7.225   5.670  0.7808 -1.0390  0.6026
   95MOL    H1732165   7.326   7.361   5.591 -0.0741 -1.7690 -2.1798
   95MOL    H1832166   7.544   7.113   6.021 -0.8475  2.8575 -0.0350
   95MOL    C1932167   7.756   7.283   5.798  0.0353  0.2251 -0.4052
   95MOL    C2032168   7.893   7.219   5.819  0.8733  0.1510 -0.4231
   95MOL    N2132169   0.000   7.075   5.774  0.8178 -0.8171  0.6924
   95MOL    C2232170   7.883   7.048   5.633 -0.5873  0.5327 -0.2799
   95MOL    C2332171   0.004   6.896   5.624 -0.6815 -0.3511 -0.2731
   95MOL    C2432172   0.004   6.842   5.774  0.5124  0.6956 -0.5325
   95MOL    C2532173   0.023   6.968   5.852  0.0666 -0.3692  0.0466
   95MOL    O2632174   0.065   6.966   5.970  0.0295  0.4304 -0.3871
   95MOL    H2732175   7.753   7.368   5.866 -0.1829 -1.6195  1.9514
   95MOL    H2832176   7.743   7.322   5.696 -0.4471  1.2824  0.0534
   95MOL    H2932177   7.903   7.209   5.927 -0.4153  1.4752 -0.1825
   95MOL    H3032178   7.778   7.069   5.614 -1.0341  1.5739  3.0312
   95MOL    H3132179   0.042   7.109   5.570  1.3255  0.5189  1.5799
   95MOL    H3232180   7.831   6.847   5.566 -1.6470  0.0594  0.6888
   95MOL    H3332181   0.100   6.871   5.578  0.8739  1.8247  1.6827
   95MOL    H3432182   7.814   6.795   5.796  0.0320  2.0483  0.2710
   95MOL    H3532183   0.080   6.768   5.799  0.7934  1.4050  0.7140
   95MOL    C3632184   0.097   7.308   5.757  0.1988 -0.1653 -0.2905
   95MOL    C3732185   0.247   7.267   5.762  0.1210 -0.4218  0.6819
   95MOL    N3832186   0.323   7.331   5.648 -0.1425 -0.3136  0.2955
   95MOL    C3932187   0.333   7.256   5.524 -0.2945 -0.2444 -0.4183
   95MOL    C4032188   0.385   7.356   5.423  0.5927  0.4865 -0.2334
   95MOL    C4132189   0.432   7.482   5.505  0.3749 -0.4235 -0.5370
   95MOL    C4232190   0.380   7.452   5.643 -1.1165  0.6730 -0.1930
   95MOL    O4332191   0.384   7.542   5.731  0.0921  0.3704 -0.8296
   95MOL    H4432192   0.092   7.410   5.795 -0.7931 -0.2338 -0.2285
   95MOL    H4532193   0.077   7.314   5.650  0.6275 -2.3991 -0.5185
   95MOL    H4632194   0.246   7.160   5.746 -1.2680 -0.3825  0.4752
   95MOL    H4732195   0.405   7.174   5.535  1.3169  1.0337 -1.2722
   95MOL    H4832196   0.235   7.225   5.488 -1.4078  1.9013  0.6932
   95MOL    H4932197   0.460   7.305   5.363 -0.6025 -1.2871 -0.2858
   95MOL    H5032198   0.302   7.387   5.360 -0.5708  0.0443  1.0419
   95MOL    H5132199   0.539   7.494   5.519  0.2650 -1.8718  1.8127
   95MOL    H5232200   0.388   7.571   5.460 -1.1643 -0.6910  0.4093
   95MOL    C5332201   0.301   7.294   5.906 -0.2028  0.5020  0.4693
   95MOL    C5432202   0.431   7.214   5.944 -0.1348  0.6259 -0.3823
   95MOL    N5532203   0.404   7.079   5.983  0.0256 -0.1133 -0.7810
   95MOL    C5632204   0.373   7.048   6.125  0.2498 -0.2663  0.5978
   95MOL    C5732205   0.325   6.906   6.124  0.1363 -0.0498  0.4626
   95MOL    C5832206   0.355   6.851   5.983  0.4209 -0.2034  0.0865
   95MOL    C5932207   0.385   6.974   5.903 -0.4204  0.0231  0.5939
   95MOL    O6032208   0.404   6.976   5.786  0.4906 -0.1650  0.1255
   95MOL    H6132209   0.219   7.269   5.974 -1.0092  1.0050 -0.2991
   95MOL    H6232210   0.316   7.401   5.917  0.8475  0.4408 -0.3931
   95MOL    H6332211   0.458   7.273   6.032  0.7631 -0.6740  0.2326
   95MOL    H6432212   0.461   7.056   6.190  0.2823 -1.4973  0.7253
   95MOL    H6532213   0.294   7.113   6.162  2.3605  0.9975  3.0399
   95MOL    H6632214   0.383   6.852   6.200  0.8922  0.2735  0.1210
   95MOL    H6732215   0.229   6.875   6.165  0.4793 -1.2554  0.3758
   95MOL    H6832216   0.439   6.782   5.982  1.2121  0.7126  1.2789
   95MOL    H6932217   0.266   6.799   5.946  0.0957  0.0408  0.5169
   95MOL    C7032218   0.555   7.232   5.851  0.2200 -0.4865  0.3153
   95MOL    C7132219   0.675   7.166   5.913  0.0314  0.0431  0.2872
   95MOL    N7232220   0.737   7.077   5.813  0.0138 -0.3107 -0.7477
   95MOL    C7332221   0.773   6.943   5.846 -0.0436 -0.1214  0.0637
   95MOL    C7432222   0.877   6.901   5.738 -0.6812  0.3236  0.1575
   95MOL    C7532223   0.842   6.994   5.617 -0.4323 -0.1017  0.5374
   95MOL    C7632224   0.779   7.114   5.699 -0.8174 -0.4768 -0.3368
   95MOL    O7732225   0.782   7.231   5.655 -0.4262 -0.2742  0.2621
   95MOL    H7832226   0.573   7.336   5.827  0.1609 -0.4557  0.4049
   95MOL    H7932227   0.533   7.191   5.753  2.4273 -0.3724 -0.2440
   95MOL    H8032228   0.652   7.107   6.001 -1.4456 -0.4750 -0.4235
   95MOL    H8132229   0.816   6.932   5.945 -0.8768  3.1489  0.8542
   95MOL    H8232230   0.690   6.873   5.849 -0.8562  0.8188  0.0232
   95MOL    H8332231   0.979   6.925   5.769  0.8251 -2.8322 -2.0993
   95MOL    H8432232   0.871   6.799   5.700  2.1117  0.0302  0.4417
   95MOL    H8532233   0.930   7.030   5.563 -0.4396  1.5566  1.5803
   95MOL    H8632234   0.771   6.961   5.542  1.8443 -1.6915 -0.9816
   95MOL    C8732235   0.782   7.260   5.967 -0.1877 -0.0589 -0.3677
   95MOL    C8832236   0.732   7.356   6.075 -0.1586 -0.1512  1.0129
   95MOL    N8932237   0.699   7.301   6.205  0.4040 -0.1963 -0.4718
   95MOL    C9032238   0.602   7.371   6.286 -0.0261  0.0554  0.0135
   95MOL    C9132239   0.590   7.302   6.419  0.1436 -0.0547  0.1293
   95MOL    C9232240   0.688   7.185   6.406 -0.4089  0.2267 -0.6622
   95MOL    C9332241   0.752   7.191   6.269  0.3601 -0.0621  0.4341
   95MOL    O9432242   0.851   7.126   6.229 -0.2781 -0.1938  0.0664
   95MOL    H9532243   0.825   7.320   5.887  0.7959  1.8478  1.5308
   95MOL    H9632244   0.862   7.196   6.006 -1.1240  0.1162  1.8965
   95MOL    H9732245   0.634   7.392   6.042  0.6987  0.6577 -0.7482
   95MOL    H9832246   0.632   7.475   6.300  1.3940  0.0894 -2.7819
   95MOL    H9932247   0.509   7.360   6.230 -1.0454  1.9266  1.3021
   95MOL   H10032248   0.606   7.359   6.510  2.6851  0.5995 -0.6770
   95MOL   H10132249   0.490   7.259   6.420 -0.0127  0.3250  0.9202
   95MOL   H10232250   0.763   7.199   6.484  0.3555  0.7564 -1.4863
   95MOL   H10332251   0.638   7.091   6.428 -1.5123  0.3205 -2.6590
   95MOL   C10432252   0.832   7.473   6.093  0.0271  0.4106 -0.7586
   95MOL   C10532253   0.812   7.594   5.989  0.1631 -0.2108  0.3558
   95MOL   N10632254   0.703   7.684   6.032 -0.8967 -0.6752  0.3424
   95MOL   C10732255   0.577   7.688   5.962  0.2166 -0.2332  0.1892
   95MOL   C10832256   0.494   7.803   6.024  0.6817 -0.0502 -0.5245
   95MOL   C10932257   0.569   7.849   6.146 -0.1134 -0.0875 -0.0414
   95MOL   C11032258   0.699   7.773   6.137  0.1020  0.4680 -0.1041
   95MOL   O11132259   0.781   7.786   6.231 -0.2153 -0.3168 -0.3590
   95MOL   H11232260   0.933   7.432   6.090  0.3073  0.8419  1.6734
   95MOL   H11332261   0.826   7.516   6.193 -0.9958 -0.7924 -0.2971
   95MOL   H11432262   0.773   7.552   5.896 -0.9174  1.6278 -0.0462
   95MOL   H11532263   0.579   7.699   5.854 -0.4907 -0.9827  0.0970
   95MOL   H11632264   0.528   7.597   5.997  0.5522 -0.2932  0.5038
   95MOL   H11732265   0.490   7.887   5.955  0.3555  0.9663  0.7107
   95MOL   H11832266   0.390   7.777   6.044  1.1971 -1.6352  0.1393
   95MOL   H11932267   0.519   7.812   6.236 -2.8842 -0.5459 -1.7191
   95MOL   H12032268   0.578   0.051   6.156 -2.0565  0.0829  0.0413
   95MOL   C12132269   0.940   7.674   5.947  0.6843  0.1887 -0.3933
   95MOL   C12232270   1.049   7.597   5.873  0.1168  0.7991 -0.4737
   95MOL   N12332271   1.001   7.523   5.752 -0.0610 -0.1009 -0.0756
   95MOL   C12432272   1.072   7.396   5.714  0.9253  0.0347 -0.2469
   95MOL   C12532273   1.051   7.392   5.559  0.1433  0.3932 -0.4550
   95MOL   C12632274   0.930   7.482   5.524  1.2787  0.1056  0.2018
   95MOL   C12732275   0.921   7.567   5.647 -0.1443 -1.1585 -0.3353
   95MOL   O12832276   0.861   7.678   5.646 -0.2081 -0.0205 -0.4602
   95MOL   H12932277   0.970   7.716   6.043 -1.7974  0.1451  0.4427
   95MOL   H13032278   0.917   7.767   5.896 -0.4675 -1.4773 -3.0210
   95MOL   H13132279   1.086   7.520   5.941  0.3708  1.0280 -0.3522
   95MOL   H13232280   1.018   7.320   5.770  1.1300  0.6072  0.7351
   95MOL   H13332281   1.177   7.392   5.744  0.5115 -1.1282  1.0616
   95MOL   H13432282   1.131   7.455   5.520  1.4720 -0.8952  0.1550
   95MOL   H13532283   1.065   7.294   5.513 -1.1701 -0.1272  0.2288
   95MOL   H13632284   0.942   7.533   5.428 -0.0814  0.7596  0.3685
   95MOL   H13732285   0.846   7.412   5.518  0.1973  1.4685 -0.7841
   95MOL   C13832286   1.168   7.694   5.840 -0.0050 -0.0908 -0.0973
   95MOL   C13932287   1.232   7.778   5.951  0.1519  0.4664 -0.2247
   95MOL   N14032288   1.349   7.709   6.014 -0.1908 -0.0699 -0.4655
   95MOL   C14132289   1.339   7.657   6.151 -0.1711 -0.0256 -0.5948
   95MOL   C14232290   1.476   7.602   6.189 -1.0778 -0.7912 -0.1703
   95MOL   C14332291   1.563   7.637   6.069 -0.9011 -0.1592 -0.4681
   95MOL   C14432292   1.477   7.715   5.975  0.9112 -0.5389  0.2691
   95MOL   O14532293   1.522   7.762   5.863  0.1838  0.1502  0.2092
   95MOL   H14632294   1.136   7.761   5.760  0.5340  0.0365 -0.2073
   95MOL   H14732295   1.254   7.650   5.791  0.5562  0.3086  0.5198
   95MOL   H14832296   1.161   7.795   6.032  2.0183  1.9959  1.1234
   95MOL   H14932297   1.315   7.738   6.220  1.1549  0.6278 -0.8819
   95MOL   H15032298   1.264   7.579   6.157 -0.6172  0.3022 -1.7271
   95MOL   H15132299   1.502   7.654   6.282 -0.9146 -1.0212 -0.0879
   95MOL   H15232300   1.468   7.496   6.212 -2.1687 -0.3464  1.6576
   95MOL   H15332301   1.591   7.541   6.026  0.4849  0.6280 -1.3493
   95MOL   H15432302   1.652   7.688   6.106 -1.3550 -0.3341  0.8965
   95MOL   C15532303   1.274   0.018   5.901 -0.0236 -0.3492  0.0135
   95MOL   C15632304   1.163   0.125   5.934 -0.0779  0.1134  0.4850
   95MOL   N15732305   1.153   0.136   6.082  0.1004  0.0294  0.1498
   95MOL   C15832306   1.030   0.106   6.139  0.2912 -0.5237  0.0918
   95MOL   C15932307   1.046   0.115   6.287  0.6969  0.0298  0.1882
   95MOL   C16032308   1.199   0.153   6.305 -0.1840  0.1354 -0.0740
   95MOL   C16132309   1.255   0.171   6.166 -0.2239 -0.3389 -0.2741
   95MOL   O16232310   1.365   0.217   6.139  0.0627  0.2637 -0.7388
   95MOL   H16332311   1.282   0.008   5.793  0.8410 -2.6886  0.2557
   95MOL   H16432312   1.367   0.055   5.944  0.2467 -1.3078  0.2628
   95MOL   H16532313   1.071   0.085   5.891 -0.1841  0.2361  0.6006
   95MOL   H16632314   0.958   0.177   6.098  1.6192  2.9080  3.4014
   95MOL   H16732315   0.992   0.005   6.122  1.4109 -1.0264  0.4814
   95MOL   H16832316   0.989   0.201   6.323  1.2887 -0.4969  2.4521
   95MOL   H16932317   1.021   0.029   6.349 -1.1693  0.2135 -0.2720
   95MOL   H17032318   1.209   0.258   6.329 -1.7637  0.8512 -2.3407
   95MOL   H17132319   1.268   0.094   6.365 -0.4793 -0.4921 -0.3355
   95MOL   C17232320   1.189   0.258   5.869 -0.5137  0.3728 -0.1377
   95MOL   C17332321   1.174   0.265   5.709 -1.0335 -0.2665 -0.0880
   95MOL   N17432322   1.036   0.232   5.670 -0.0219 -0.1477 -0.5271
   95MOL   C17532323   0.921   0.293   5.741  0.3361  0.0473 -0.4108
   95MOL   C17632324   0.790   0.238   5.675 -0.5356  0.1643 -0.5531
   95MOL   C17732325   0.841   0.112   5.601 -0.1586 -0.3653  0.0752
   95MOL   C17832326   0.992   0.125   5.601 -0.1302 -0.1063 -0.0305
   95MOL   O17932327   1.066   0.048   5.530  0.2762 -0.7778 -0.1624
   95MOL   H18032328   1.291   0.276   5.902  0.0036  1.3784 -2.1998
   95MOL   H18132329   1.126   0.334   5.914 -0.5486 -1.2221  2.6247
   95MOL   H18232330   1.247   0.192   5.673 -2.3801 -1.2493 -0.9180
   95MOL   H18332331   0.922   0.256   5.844 -1.7395 -0.7803 -0.6655
   95MOL   H18432332   0.928   0.400   5.726 -0.8146  0.1731 -0.0982
   95MOL   H18532333   0.748   0.312   5.607 -1.6346  0.3316  0.2867
   95MOL   H18632334   0.707   0.205   5.738 -1.6347 -0.6273 -2.3987
   95MOL   H18732335   0.826   0.020   5.658 -1.2810 -1.2048 -1.5531
   95MOL   H18832336   0.799   0.093   5.503 -0.8970 -0.1817  0.3525
   95MOL   C18932337   1.227   0.402   5.655 -0.5185 -0.5718  0.4716
   95MOL   C19032338   1.380   0.423   5.658 -0.0273 -0.1687  0.4261
   95MOL   N19132339   1.453   0.317   5.585  0.6889 -0.1376  0.2880
   95MOL   C19232340   1.547   0.236   5.660  0.4750 -0.7477  0.0645
   95MOL   C19332341   1.587   0.131   5.559 -0.6047  0.6602 -0.3643
   95MOL   C19432342   1.531   0.172   5.421  0.4914 -0.1427  0.0315
   95MOL   C19532343   1.438   0.286   5.455  0.0297 -0.3908 -0.2448
   95MOL   O19632344   1.366   0.341   5.377  0.2660  0.3071 -0.5069
   95MOL   H19732345   1.193   0.483   5.719 -1.7684 -0.4727 -0.3104
   95MOL   H19832346   1.199   0.421   5.552  1.1322  0.9193  0.2728
   95MOL   H19932347   1.412   0.423   5.762 -0.0129  3.1600  0.4675
   95MOL   H20032348   1.638   0.294   5.672 -1.1347  2.0831 -0.9080
   95MOL   H20132349   1.495   0.198   5.749 -0.6910 -1.1000 -0.7514
   95MOL   H20232350   1.695   0.119   5.547 -0.8122 -1.1285 -0.5511
   95MOL   H20332351   1.543   0.037   5.590  2.0225 -0.8609 -1.0703
   95MOL   H20432352   1.605   0.200   5.346 -0.5390  2.7281  0.0475
   95MOL   H20532353   1.466   0.092   5.384  0.3664  0.5956 -1.3942
   95MOL   C20632354   1.414   0.564   5.598 -0.5847 -0.3419  0.0052
   95MOL   C20732355   1.428   0.681   5.700 -0.3590 -0.3844 -0.6756
   95MOL   N20832356   1.503   0.660   5.823  0.2472 -0.4981 -0.0455
   95MOL   C20932357   1.448   0.715   5.948  0.4221 -0.0229  0.1538
   95MOL   C21032358   1.558   0.678   6.055 -0.2987 -0.0023 -0.2053
   95MOL   C21132359   1.668   0.607   5.981  0.2766  0.2767 -0.3485
   95MOL   C21232360   1.623   0.602   5.838  0.4520  0.0424 -0.3937
   95MOL   O21332361   1.682   0.540   5.754 -0.0117  0.9420 -0.7495
   95MOL   H21432362   1.342   0.584   5.519  0.6236  1.0457 -0.7714
   95MOL   H21532363   1.508   0.564   5.543  0.7043  2.3018  2.1006
   95MOL   H21632364   1.326   0.690   5.737 -0.1251 -2.0872  0.4390
   95MOL   H21732365   1.425   0.821   5.936  0.7930  0.2498  1.6806
   95MOL   H21832366   1.357   0.660   5.971  0.0290  0.8967  0.8372
   95MOL   H21932367   1.602   0.757   6.116 -2.6380  0.6703  0.6891
   95MOL   H22032368   1.513   0.603   6.121 -0.7126 -0.2089 -0.7141
   95MOL   H22132369   1.750   0.678   5.978  1.7536 -1.3139  1.1520
   95MOL   H22232370   1.699   0.507   6.013 -1.9567  0.0171  1.1042
   95MOL   C22332371   1.474   0.819   5.636  0.1327 -0.1852 -0.5770
   95MOL   C22432372   1.388   0.890   5.526  0.9686 -0.2512 -0.0554
   95MOL   N22532373   1.241   0.891   5.551 -0.4832 -0.1673  0.3981
   95MOL   C22632374   1.155   0.852   5.443 -0.9139  0.2324 -0.1139
   95MOL   C22732375   1.012   0.869   5.493  0.4077  0.3559 -0.3923
   95MOL   C22832376   1.025   0.887   5.647 -0.6739 -0.1647  0.8544
   95MOL   C22932377   1.179   0.910   5.669  0.3171  0.7889 -0.0315
   95MOL   O23032378   1.226   0.929   5.781 -0.3940 -0.1536 -0.8028
   95MOL   H23132379   1.572   0.798   5.591  1.2637  1.3644  1.0943
   95MOL   H23232380   1.496   0.886   5.719 -0.9281  2.7444 -2.5831
   95MOL   H23332381   1.412   0.825   5.443 -0.2122 -0.6590 -0.0848
   95MOL   H23432382   1.169   0.905   5.349  0.9273 -2.1831 -1.2601
   95MOL   H23532383   1.181   0.751   5.413  1.1281  1.0903 -1.3243
   95MOL   H23632384   0.959   0.953   5.449  0.5383  0.8278  0.3313
   95MOL   H23732385   0.965   0.772   5.478  1.2346 -0.1546  0.2504
   95MOL   H23832386   0.968   0.976   5.673 -1.5203 -0.2714 -0.6044
   95MOL   H23932387   0.981   0.802   5.699  0.1472 -0.5347  0.9513
   95MOL   C24032388   1.422   1.041   5.503 -0.4655 -0.8859 -0.2246
   95MOL   C24132389   1.566   1.063   5.457 -0.0710  0.5345  0.2744
   95MOL   N24232390   1.582   1.033   5.319  0.4257  0.6344 -0.2841
   95MOL   C24332391   1.673   0.927   5.278  0.3297  0.7307  0.9180
   95MOL   C24432392   1.646   0.907   5.132  0.1854  0.1349 -0.7315
   95MOL   C24532393   1.588   1.041   5.085  0.1992  0.0174 -0.4945
   95MOL   C24632394   1.528   1.099   5.214  0.2422 -0.1558  0.0536
   95MOL   O24732395   1.462   1.205   5.224 -0.2818 -0.2464 -0.1885
   95MOL   H24832396   1.412   1.085   5.602  0.7679  1.9354 -1.2932
   95MOL   H24932397   1.353   1.093   5.437  1.6998  0.4592 -1.4753
   95MOL   H25032398   1.637   0.993   5.501  5.0144  4.5153 -1.1112
   95MOL   H25132399   1.777   0.959   5.288  0.8162  0.5705 -2.9798
   95MOL   H25232400   1.650   0.829   5.319  0.1518  0.3316 -0.1237
   95MOL   H25332401   1.740   0.877   5.086  0.9163  1.3315 -0.0250
   95MOL   H25432402   1.580   0.820   5.125  0.9689 -0.6149  0.8125
   95MOL   H25532403   1.676   1.103   5.065 -0.1104  0.7395  0.3686
   95MOL   H25632404   1.514   1.041   5.006 -2.1818  0.1394  1.6793
   95MOL   C25732405   1.617   1.204   5.492  0.2134 -0.8207  0.1909
   95MOL   C25832406   1.731   1.210   5.593 -0.4006 -0.1729  0.8863
   95MOL   N25932407   1.684   1.165   5.720 -0.7275  0.8343 -0.0687
   95MOL   C26032408   1.610   1.254   5.808 -0.3150  0.2169  0.7886
   95MOL   C26132409   1.560   1.174   5.927 -0.7269 -0.3634  0.2948
   95MOL   C26232410   1.648   1.051   5.924  0.0716 -0.6002  0.0037
   95MOL   C26332411   1.695   1.042   5.781 -0.2078 -1.2336 -0.3546
   95MOL   O26432412   1.745   0.939   5.741 -0.4212 -0.1227  0.2149
   95MOL   H26532413   1.536   1.269   5.525  1.1822 -0.0586  1.1212
   95MOL   H26632414   1.673   1.246   5.409 -0.4001 -2.1001 -0.8810
   95MOL   H26732415   1.763   1.314   5.607 -2.2296  0.4322  0.6378
   95MOL   H26832416   1.674   1.334   5.845  0.0809  0.4674 -0.4165
   95MOL   H26932417   1.534   1.311   5.754  1.5423  1.7845 -0.2372
   95MOL   H27032418   1.564   1.230   6.021 -0.4247 -0.8365  0.5676
   95MOL   H27132419   1.457   1.140   5.914 -0.8324 -0.5003  1.4393
   95MOL   H27232420   1.734   1.061   5.990 -1.3432  1.2259  1.6555
   95MOL   H27332421   1.586   0.968   5.960  1.4828 -0.8239  2.0144
   95MOL   C27432422   1.865   1.138   5.557  0.5740 -0.4883 -0.3579
   95MOL   C27532423   1.936   1.195   5.432 -0.4651 -0.1040  0.3007
   95MOL   N27632424   1.972   1.340   5.448  0.8500  0.2650  0.0940
   95MOL   C27732425   1.911   1.451   5.371 -0.5943  0.4867 -0.3220
   95MOL   C27832426   2.002   1.579   5.397  0.7436  0.5456 -0.2685
   95MOL   C27932427   2.084   1.539   5.520  0.4228 -0.6864  0.5375
   95MOL   C28032428   2.051   1.390   5.542 -0.5109  0.4343  0.6877
   95MOL   O28132429   2.124   1.330   5.621  0.0371  0.0691  0.2038
   95MOL   H28232430   1.843   1.032   5.547 -1.3569 -0.4800  2.9932
   95MOL   H28332431   1.935   1.140   5.641 -0.8286 -0.6699  0.8200
   95MOL   H28432432   1.865   1.180   5.351  0.7893 -2.9192 -0.3376
   95MOL   H28532433   1.908   1.439   5.263  0.9029  1.3311 -0.4690
   95MOL   H28632434   1.814   1.472   5.418 -0.7751 -0.0961 -0.4251
   95MOL   H28732435   2.065   1.613   5.316 -0.1419 -1.5999 -1.8929
   95MOL   H28832436   1.937   1.667   5.404 -0.2280 -0.2159  0.5084
   95MOL   H28932437   2.186   1.564   5.490 -0.0533 -1.0231 -1.4105
   95MOL   H29032438   2.057   1.608   5.600 -1.0851 -1.9323  1.1462
   95MOL   C29132439   2.061   1.102   5.417 -0.2485  1.1947  0.0633
   95MOL   C29232440   2.172   1.141   5.312  0.1722  0.6764 -0.1740
   95MOL   N29332441   2.117   1.212   5.191 -0.0026  0.3688  0.4358
   95MOL   C29432442   2.176   1.334   5.143 -0.7251  0.3409  0.7207
   95MOL   C29532443   2.102   1.384   5.022 -0.0287  0.0372 -0.2706
   95MOL   C29632444   1.988   1.279   5.003 -0.5100 -0.0595  0.5328
   95MOL   C29732445   2.010   1.176   5.116 -0.4228 -0.1455 -0.1551
   95MOL   O29832446   1.944   1.080   5.140 -0.2298  0.1584  0.4667
   95MOL   H29932447   2.007   1.014   5.383  2.2170 -0.0581 -0.7729
   95MOL   H30032448   2.107   1.063   5.508 -1.3265 -3.0174 -1.0656
   95MOL   H30132449   2.204   1.043   5.277  0.2442  0.0043  1.7606
   95MOL   H30232450   2.165   1.411   5.220 -1.1272  1.2012 -0.1797
   95MOL   H30332451   2.281   1.322   5.116 -0.4918  0.4270  1.5662
   95MOL   H30432452   2.048   1.478   5.036  0.2478 -0.0218  1.3318
   95MOL   H30532453   2.160   1.396   4.931 -1.5105  2.9094 -0.9036
   95MOL   H30632454   1.888   1.319   5.010 -0.8142 -0.9479  1.4460
   95MOL   H30732455   2.003   1.228   4.908 -1.0787  0.7749 -0.0099
   95MOL   C30832456   2.316   1.191   5.370  0.4050 -0.1922 -0.3733
   95MOL   C30932457   2.389   1.074   5.444 -0.0061 -0.2536  0.5374
   95MOL   N31032458   2.433   0.970   5.362 -1.2325  0.0645  0.0249
   95MOL   C31132459   2.417   0.837   5.418  0.8865 -0.4443 -0.6282
   95MOL   C31232460   2.482   0.739   5.320 -0.8045  0.3246 -0.4461
   95MOL   C31332461   2.510   0.822   5.190 -0.0032  0.2293  0.5829
   95MOL   C31432462   2.486   0.963   5.233 -0.4628 -0.5195 -0.6046
   95MOL   O31532463   2.502   1.058   5.154  0.5139  0.4301 -1.0073
   95MOL   H31632464   2.294   1.275   5.437  3.1139  1.9771 -2.1220
   95MOL   H31732465   2.374   1.243   5.295 -0.6187 -0.4738 -1.3801
   95MOL   H31832466   2.320   1.033   5.518  0.5720  0.1770  1.3330
   95MOL   H31932467   2.460   0.855   5.516  1.2079 -0.9392 -0.6784
   95MOL   H32032468   2.313   0.804   5.427  0.6572 -1.0784 -4.4775
   95MOL   H32132469   2.570   0.694   5.366  0.1354  0.4993 -2.0277
   95MOL   H32232470   2.419   0.651   5.306 -0.2605 -0.3577  1.2593
   95MOL   H32332471   2.608   0.806   5.145  0.0115  0.3467  0.5736
   95MOL   H32432472   2.437   0.786   5.118  1.3316 -0.7703 -0.2934
   95MOL   C32532473   2.504   1.125   5.533  0.0965 -0.1980 -0.4628
   95MOL   C32632474   2.474   1.247   5.622 -0.0284 -0.7197 -0.4072
   95MOL   N32732475   2.571   1.278   5.724 -0.9635 -0.0213  0.3983
   95MOL   C32832476   2.507   1.348   5.839  0.0158  0.3379  0.6901
   95MOL   C32932477   2.616   1.375   5.937 -0.3512 -0.0348 -1.3606
   95MOL   C33032478   2.748   1.323   5.875 -0.1016 -0.2141  0.2476
   95MOL   C33132479   2.700   1.267   5.735 -0.6447  0.0764 -0.1222
   95MOL   O33232480   2.773   1.219   5.645  0.1641  0.3384 -0.0739
   95MOL   H33332481   2.594   1.146   5.475 -0.4474  2.2476 -0.4845
   95MOL   H33432482   2.551   1.048   5.593  1.1572  0.9166  0.1542
   95MOL   H33532483   2.379   1.238   5.674 -0.6046  0.8058 -1.1575
   95MOL   H33632484   2.465   1.445   5.812 -2.5385 -1.1939 -1.1589
   95MOL   H33732485   2.430   1.277   5.869 -3.5989  2.8264 -2.1963
   95MOL   H33832486   2.631   1.477   5.974  1.0248 -1.3235  1.8526
   95MOL   H33932487   2.600   1.321   6.030 -4.3425  2.5493 -0.4278
   95MOL   H34032488   2.827   1.397   5.871  1.8903 -2.2500  0.7359
   95MOL   H34132489   2.793   1.240   5.930  0.5770 -0.1708 -0.2367
   95MOL   H34232490   2.458   1.339   5.566 -1.5241  0.8096  2.4381
   96MOL     C132491   6.313   0.488   7.248  0.0297 -0.1828 -0.0827
   96MOL     C232492   6.311   0.456   7.401  0.8952  0.0647  0.5342
   96MOL     N332493   6.290   0.584   7.468  0.1169  0.3867 -0.9953
   96MOL     C432494   6.401   0.634   7.556  0.3581 -0.9176 -0.2237
   96MOL     C532495   6.352   0.771   7.618  0.1853 -0.0373  0.3155
   96MOL     C632496   6.202   0.778   7.590  0.7335 -0.2695 -0.4841
   96MOL     C732497   6.178   0.658   7.489  0.1504  0.0409  0.0362
   96MOL     O832498   6.074   0.659   7.422  0.1280 -0.3174  0.6906
   96MOL     H932499   6.375   0.575   7.228  0.4614 -0.9148 -1.9713
   96MOL    H1032500   6.361   0.400   7.206  1.8689 -0.8325  3.2120
   96MOL    H1132501   6.411   0.432   7.435  2.0083  0.6042 -2.1981
   96MOL    H1232502   6.435   0.573   7.639  2.9169  1.6942  0.7502
   96MOL    H1332503   6.492   0.654   7.499  1.6425 -0.4907  1.9244
   96MOL    H1432504   6.369   0.764   7.726  1.5723 -2.4700 -0.0103
   96MOL    H1532505   6.402   0.860   7.582 -0.9770 -0.8994 -3.6741
   96MOL    H1632506   6.133   0.774   7.674  0.6865 -2.0020 -0.5965
   96MOL    H1732507   6.183   0.875   7.543  1.4180 -0.2823 -0.7940
   96MOL    H1832508   6.215   0.492   7.200  0.1031 -0.3511 -0.2467
   96MOL    C1932509   6.206   0.352   7.452 -0.5097 -0.8359  0.0224
   96MOL    C2032510   6.251   0.209   7.447  0.6228  0.2513 -0.7345
   96MOL    N2132511   6.382   0.188   7.505 -0.5775  0.3142  0.6927
   96MOL    C2232512   6.491   0.157   7.415  0.2534  0.3291  0.3243
   96MOL    C2332513   6.616   0.142   7.512 -0.2885 -0.9754  0.6203
   96MOL    C2432514   6.564   0.165   7.655 -0.1010  0.6622 -0.3507
   96MOL    C2532515   6.417   0.187   7.636 -0.4372  0.1212  0.5669
   96MOL    O2632516   6.338   0.211   7.730 -0.5084  0.3893 -0.1773
   96MOL    H2732517   6.114   0.374   7.398 -0.8139  1.6443  1.4483
   96MOL    H2832518   6.199   0.374   7.559 -2.9531  3.3536 -0.8802
   96MOL    H2932519   6.257   0.189   7.341 -0.9488 -4.8226  0.0184
   96MOL    H3032520   6.465   0.065   7.363  1.5816  0.3165 -0.3227
   96MOL    H3132521   6.501   0.230   7.334 -1.1772 -0.9359 -1.0308
   96MOL    H3232522   6.656   0.042   7.495 -0.3950 -1.0821  1.0024
   96MOL    H3332523   6.695   0.217   7.502  0.6967 -1.8041  2.0712
   96MOL    H3432524   6.572   0.077   7.719 -2.1789 -1.2907 -2.6624
   96MOL    H3532525   6.608   0.236   7.725 -0.1292 -0.8423  1.2270
   96MOL    C3632526   6.137   0.133   7.517  0.0950 -1.0104 -0.7648
   96MOL    C3732527   6.160   7.888   7.531 -0.4496 -0.7301  0.2236
   96MOL    N3832528   6.077   7.831   7.630 -0.1410  0.7284 -0.4264
   96MOL    C3932529   6.132   7.819   7.769 -0.3463  0.2607  0.8810
   96MOL    C4032530   6.020   7.747   7.842  0.5039  0.0579  0.7983
   96MOL    C4132531   5.888   7.755   7.761 -0.3292 -0.1620  0.5681
   96MOL    C4232532   5.941   7.802   7.623  0.3128 -0.0793 -0.7169
   96MOL    O4332533   5.866   7.816   7.522  0.0328  0.2672  0.1420
   96MOL    H4432534   6.039   0.142   7.469 -0.2298 -1.8523 -0.2674
   96MOL    H4532535   6.124   0.170   7.618 -0.5989  0.6119 -1.4408
   96MOL    H4632536   6.260   7.871   7.572 -1.4343 -1.8797  2.2272
   96MOL    H4732537   6.216   7.750   7.776 -0.5272  0.2019  2.6321
   96MOL    H4832538   6.166   0.007   7.812  2.3762 -0.0312 -0.5588
   96MOL    H4932539   6.049   7.642   7.848 -0.9322 -0.2614  2.7260
   96MOL    H5032540   6.008   7.782   0.039 -0.7874  0.4821  0.5111
   96MOL    H5132541   5.849   7.654   7.753 -0.4116  0.0723 -2.2167
   96MOL    H5232542   5.815   7.827   7.798  1.4048  2.3260 -0.6844
   96MOL    C5332543   6.162   7.813   7.395  0.0608  0.0507 -0.0349
   96MOL    C5432544   6.210   7.666   7.401 -0.7512  0.2647  0.1718
   96MOL    N5532545   6.144   7.582   7.301  0.3981 -0.6568  0.3206
   96MOL    C5632546   6.067   7.463   7.332  0.3807  0.0796 -0.4142
   96MOL    C5732547   5.989   7.432   7.201 -0.4479 -1.0213 -0.5941
   96MOL    C5832548   6.051   7.513   7.088  0.8899  0.1588 -0.9204
   96MOL    C5932549   6.150   7.601   7.168 -0.1563 -0.4704 -0.1668
   96MOL    O6032550   6.214   7.690   7.110  0.1064 -0.3262  0.1131
   96MOL    H6132551   6.226   7.869   7.328  0.5094 -2.0856 -1.4217
   96MOL    H6232552   6.065   7.820   7.345 -1.3127 -0.1517  2.4846
   96MOL    H6332553   6.173   7.628   7.496  1.4309  1.0585  1.3923
   96MOL    H6432554   6.135   7.379   7.343  0.3905  0.3500  1.7328
   96MOL    H6532555   6.002   7.467   7.419 -1.6230 -1.7672 -1.7978
   96MOL    H6632556   5.986   7.330   7.162  0.3431  0.4573 -4.8012
   96MOL    H6732557   5.887   7.469   7.212  0.2646  0.6558  0.5367
   96MOL    H6832558   6.106   7.444   7.024  0.1519  0.4136 -1.8348
   96MOL    H6932559   5.971   7.558   7.030 -2.6258 -2.1855  1.8258
   96MOL    C7032560   6.366   7.647   7.409  0.3739  0.4718 -0.1286
   96MOL    C7132561   6.416   7.498   7.399 -0.2956 -0.0440  0.2120
   96MOL    N7232562   6.521   7.484   7.300  0.1482 -0.1957 -0.9417
   96MOL    C7332563   6.516   7.372   7.213 -0.2134  0.2500  0.1942
   96MOL    C7432564   6.656   7.364   7.145  0.0848 -0.1608 -0.3215
   96MOL    C7532565   6.733   7.489   7.181  1.4469 -0.0583 -1.0469
   96MOL    C7632566   6.636   7.555   7.277  0.7660  0.0062 -0.4400
   96MOL    O7732567   6.669   7.659   7.335  0.3948  0.1515  0.2887
   96MOL    H7832568   6.406   7.694   7.499  3.1100 -1.2242 -0.4138
   96MOL    H7932569   6.414   7.710   7.334  0.2438  0.6082 -0.0976
   96MOL    H8032570   6.338   7.425   7.377  0.7674 -0.4149 -2.5080
   96MOL    H8132571   6.496   7.283   7.274 -1.8394  0.0135 -0.6547
   96MOL    H8232572   6.444   7.374   7.132  0.2908 -0.2416 -0.2659
   96MOL    H8332573   6.722   7.282   7.173  0.3468  0.2657  0.3015
   96MOL    H8432574   6.655   7.359   7.036  1.2884 -0.7826 -0.3158
   96MOL    H8532575   6.830   7.462   7.223  0.0357 -2.4747  0.7869
   96MOL    H8632576   6.739   7.542   7.086  2.0869  0.8340 -0.5197
   96MOL    C8732577   6.482   7.456   7.532 -0.1933  0.1111 -0.0685
   96MOL    C8832578   6.387   7.436   7.658  0.7143  0.1487  0.1457
   96MOL    N8932579   6.268   7.355   7.630 -0.0425 -0.2005 -0.5167
   96MOL    C9032580   6.138   7.394   7.688  0.1074  0.0910  0.3421
   96MOL    C9132581   6.055   7.272   7.691 -0.2791  0.7326  0.7916
   96MOL    C9232582   6.117   7.178   7.588 -0.5201 -0.2371  0.0427
   96MOL    C9332583   6.261   7.228   7.581 -0.5408 -0.5450 -0.6596
   96MOL    O9432584   6.355   7.161   7.547  0.2940 -0.1357  0.0796
   96MOL    H9532585   6.569   7.518   7.555  0.5190 -0.4813 -1.1513
   96MOL    H9632586   6.536   7.364   7.514  0.0185  0.1853  0.1806
   96MOL    H9732587   6.347   7.536   7.676  1.1156  0.2163  0.6729
   96MOL    H9832588   6.157   7.424   7.791 -0.9683  0.5555  0.4047
   96MOL    H9932589   6.090   7.482   7.647  1.9791  0.9365 -0.1117
   96MOL   H10032590   6.071   7.227   7.789  0.0666 -1.6827 -0.3235
   96MOL   H10132591   5.947   7.289   7.686 -0.2251  0.8343 -0.2662
   96MOL   H10232592   6.112   7.080   7.635  0.3130 -0.1443  0.3444
   96MOL   H10332593   6.078   7.176   7.486 -1.8962  1.2911  0.5196
   96MOL   C10432594   6.464   7.378   7.781  0.1341 -0.2821 -0.2117
   96MOL   C10532595   6.578   7.463   7.840 -0.1369  0.2508 -0.1441
   96MOL   N10632596   6.520   7.584   7.901 -0.4497  0.1412  0.1761
   96MOL   C10732597   6.531   7.712   7.838 -0.6378  0.3583  0.2779
   96MOL   C10832598   6.467   7.817   0.025 -0.2135  0.3746 -0.1179
   96MOL   C10932599   6.389   7.734   0.126  0.7199 -0.6447  0.0746
   96MOL   C11032600   6.445   7.595   0.103  0.6892  0.2729 -0.8142
   96MOL   O11132601   6.418   7.501   0.176 -0.6772 -0.4441  0.3046
   96MOL   H11232602   6.507   7.281   7.757  0.6889 -0.0995  0.0333
   96MOL   H11332603   6.391   7.358   7.859  0.3634  2.0717  0.6602
   96MOL   H11432604   6.641   7.496   7.758 -0.6806  1.9482  0.1062
   96MOL   H11532605   6.637   7.733   7.825 -0.6427  0.8890  1.0473
   96MOL   H11632606   6.492   7.714   7.736  0.1130 -0.0696 -0.0148
   96MOL   H11732607   6.542   7.881   0.072  0.1910  0.4729 -0.8780
   96MOL   H11832608   6.407   7.875   7.862  0.4948  0.4679 -0.6736
   96MOL   H11932609   6.283   7.734   0.104  0.7041 -2.5825  0.1069
   96MOL   H12032610   6.403   7.768   0.229 -0.3094 -0.0215  0.0113
   96MOL   C12132611   6.672   7.382   0.028  0.7649 -0.1042  0.0844
   96MOL   C12232612   6.763   7.272   7.869  0.5150  0.2506  0.1716
   96MOL   N12332613   6.830   7.309   7.740  0.4379 -0.0557 -0.6943
   96MOL   C12432614   6.791   7.246   7.619  0.1127  0.1234  0.4316
   96MOL   C12532615   6.842   7.336   7.500  0.0706 -0.6554  0.0540
   96MOL   C12632616   6.908   7.457   7.574 -0.1864 -0.3024 -0.1314
   96MOL   C12732617   6.896   7.422   7.716 -0.0165 -1.0184  0.2576
   96MOL   O12832618   6.941   7.492   7.803  0.5348  0.3700  0.1825
   96MOL   H12932619   6.626   7.345   0.120 -2.2966 -1.5216 -1.9436
   96MOL   H13032620   6.745   7.448   0.074  0.2059  0.3321  0.3540
   96MOL   H13132621   6.710   7.180   7.848  0.8349  0.1800 -0.3546
   96MOL   H13232622   6.682   7.248   7.622  0.1070  1.3351 -0.3610
   96MOL   H13332623   6.833   7.146   7.608  0.4465  0.2735  0.3500
   96MOL   H13432624   6.912   7.268   7.452 -0.7933 -2.1703  0.9058
   96MOL   H13532625   6.759   7.373   7.439 -0.6044 -1.4756  0.4693
   96MOL   H13632626   7.012   7.462   7.540 -0.7060 -1.1795 -1.9131
   96MOL   H13732627   6.861   7.550   7.546  2.0600  1.0369  0.3875
   96MOL   C13832628   6.883   7.219   0.048  0.2798  0.1040  0.0571
   96MOL   C13932629   6.866   7.157   0.194  0.4544 -0.3592  0.1334
   96MOL   N14032630   6.880   7.013   0.192 -0.1539 -0.1998  0.0184
   96MOL   C14132631   6.765   6.933   0.228  0.4087  1.0651 -0.4925
   96MOL   C14232632   6.817   6.791   0.213 -0.3320 -0.6160 -0.6410
   96MOL   C14332633   6.967   6.800   0.215  0.7793  0.0172 -0.0061
   96MOL   C14432634   6.993   6.945   0.182  0.2571  0.4729 -0.3338
   96MOL   O14532635   7.108   6.992   0.162  0.3466 -0.1940  0.7891
   96MOL   H14632636   6.944   7.309   0.056 -1.6131  1.4271 -0.0296
   96MOL   H14732637   6.940   7.148   7.894 -1.9596 -0.3446 -1.6031
   96MOL   H14832638   6.762   7.178   0.219  0.9783 -1.2256  3.2444
   96MOL   H14932639   6.742   6.950   0.333  0.7091  0.0806 -0.2654
   96MOL   H15032640   6.671   6.960   0.179  0.2443  1.8486  0.2364
   96MOL   H15132641   6.774   6.731   0.293  0.4638 -0.8772 -0.3969
   96MOL   H15232642   6.787   6.750   0.117 -1.7248  0.1592 -0.5503
   96MOL   H15332643   7.014   6.729   0.147 -0.6805 -0.5085 -0.5078
   96MOL   H15432644   7.015   6.792   0.312  1.7245 -0.8211 -0.5341
   96MOL   C15532645   6.951   7.230   0.296  0.1485  0.4525 -0.3544
   96MOL   C15632646   6.863   7.307   0.395 -0.2488  0.0411  0.2463
   96MOL   N15732647   6.790   7.210   0.476 -0.0350  0.0287 -0.2001
   96MOL   C15832648   6.645   7.186   0.460 -0.3551  0.5332  0.2104
   96MOL   C15932649   6.602   7.090   0.561 -0.8703 -0.4570 -0.1129
   96MOL   C16032650   6.732   7.040   0.626  0.3124  0.5969  0.2330
   96MOL   C16132651   6.837   7.135   0.576 -0.5615  0.2379  0.6648
   96MOL   O16232652   6.954   7.126   0.615  0.0767 -0.0293  0.1947
   96MOL   H16332653   7.014   7.309   0.257  1.1570 -0.6241 -0.9467
   96MOL   H16432654   7.021   7.163   0.345 -1.0388 -1.4401 -1.1568
   96MOL   H16532655   6.796   7.373   0.340 -1.5082 -0.0553  1.6647
   96MOL   H16632656   6.598   7.284   0.463 -0.7892  0.3366 -0.1265
   96MOL   H16732657   6.633   7.134   0.365 -2.4247 -0.0298  0.7538
   96MOL   H16832658   6.541   7.146   0.632 -2.3348 -0.2152 -1.5430
   96MOL   H16932659   6.533   7.017   0.519  0.8284 -2.5780  0.6891
   96MOL   H17032660   6.721   7.045   0.735 -2.1334  0.6370  0.0120
   96MOL   H17132661   6.761   6.942   0.589  2.5005  0.9810  0.8539
   96MOL   C17232662   6.946   7.398   0.491 -0.2709 -1.1159 -0.1825
   96MOL   C17332663   6.990   7.532   0.420 -0.3042 -0.1718  0.8509
   96MOL   N17432664   6.884   7.632   0.401 -0.5852  0.1560  0.3043
   96MOL   C17532665   6.883   7.708   0.282 -0.0823  0.2765 -0.0994
   96MOL   C17632666   6.765   7.802   0.296 -0.4004  0.3857 -0.0190
   96MOL   C17732667   6.720   7.800   0.439  0.0044 -0.3295  0.6334
   96MOL   C17832668   6.798   7.682   0.488 -0.1237 -0.0133 -0.3400
   96MOL   O17932669   6.763   7.630   0.592 -0.5103  0.1482 -0.2283
   96MOL   H18032670   7.025   7.347   0.546  1.5628  2.1497  0.3324
   96MOL   H18132671   6.886   7.429   0.576  0.8174 -1.6016  0.7678
   96MOL   H18232672   7.024   7.511   0.319  0.7992  1.6276  0.8332
   96MOL   H18332673   6.976   7.760   0.261 -0.0729  0.1597 -0.3552
   96MOL   H18432674   6.866   7.652   0.190  2.2676  0.8452 -0.9185
   96MOL   H18532675   6.684   7.748   0.246 -1.2357  0.8486  0.8244
   96MOL   H18632676   6.776   7.904   0.258  1.9031  0.1022 -0.1755
   96MOL   H18732677   6.756   7.891   0.486 -1.7327  0.5805  0.2306
   96MOL   H18832678   6.613   7.781   0.455 -0.8641  1.7700 -2.3391
   96MOL   C18932679   7.107   7.588   0.495  0.3231 -0.3948 -1.0480
   96MOL   C19032680   7.251   7.539   0.461  0.2674  0.0623 -0.1326
   96MOL   N19132681   7.285   7.568   0.321  0.1234 -0.1302 -0.7248
   96MOL   C19232682   7.284   7.463   0.220  0.4480 -0.2171  0.2500
   96MOL   C19332683   7.324   7.533   0.087 -0.5350 -0.4046  0.9245
   96MOL   C19432684   7.318   7.682   0.112  0.6441  0.0936 -0.1605
   96MOL   C19532685   7.299   7.687   0.264  0.3437 -0.5214  0.3693
   96MOL   O19632686   7.311   7.794   0.329 -0.1543  0.0700  0.4269
   96MOL   H19732687   7.095   7.580   0.604  0.4278 -0.9563 -1.0763
   96MOL   H19832688   7.105   7.695   0.479  0.8514 -0.3580 -0.8721
   96MOL   H19932689   7.248   7.430   0.465 -0.2243  0.1152  1.3766
   96MOL   H20032690   7.339   7.369   0.225 -0.4515 -0.7597  0.0677
   96MOL   H20132691   7.185   7.420   0.210  2.0554 -4.2830  0.7954
   96MOL   H20232692   7.425   7.511   0.051 -0.6292  1.5738 -0.6604
   96MOL   H20332693   7.256   7.497   0.009  1.4728 -1.1167 -0.5482
   96MOL   H20432694   7.404   7.738   0.073 -0.0165  0.7908 -0.6201
   96MOL   H20532695   7.235   7.733   0.064  1.9888  0.7161 -1.9220
   96MOL   C20632696   7.357   7.601   0.557  0.4815  0.7157  0.2162
   96MOL   C20732697   7.348   7.542   0.703  0.5348 -0.7645  0.8012
   96MOL   N20832698   7.374   7.396   0.701  0.2976  0.3817 -0.2033
   96MOL   C20932699   7.271   7.308   0.747 -0.8111  0.0705 -0.5319
   96MOL   C21032700   7.337   7.165   0.753 -0.0429 -0.1694  0.3670
   96MOL   C21132701   7.483   7.190   0.713 -0.7629  0.6100  0.0090
   96MOL   C21232702   7.489   7.336   0.683 -0.1428 -0.1164  0.1090
   96MOL   O21332703   7.598   7.387   0.649 -0.0418  0.1383 -0.2524
   96MOL   H21432704   7.349   7.710   0.566 -1.1254  0.4850  1.8560
   96MOL   H21532705   7.456   7.582   0.515  0.0720  1.2441 -1.0450
   96MOL   H21632706   7.249   7.561   0.745  0.6911  0.3678  0.6612
   96MOL   H21732707   7.234   7.338   0.845  0.5930  2.1142 -0.6142
   96MOL   H21832708   7.178   7.300   0.690  0.8207  0.3112 -3.3160
   96MOL   H21932709   7.327   7.112   0.847  0.4899 -1.0758 -0.0834
   96MOL   H22032710   7.298   7.104   0.672  1.3816 -1.0663  0.3342
   96MOL   H22132711   7.549   7.166   0.796  1.1672  1.5977 -1.1922
   96MOL   H22232712   7.513   7.133   0.625 -1.1068  0.6757 -0.1541
   96MOL   C22332713   7.444   7.626   0.793  0.0547 -0.8276 -0.4276
   96MOL   C22432714   7.407   7.771   0.817 -0.1762 -0.7652 -0.6706
   96MOL   N22532715   7.275   7.794   0.877  0.5427  0.1578 -0.3156
   96MOL   C22632716   7.167   7.870   0.803 -0.8969 -0.0649  0.6032
   96MOL   C22732717   7.052   7.873   0.903  1.2487 -0.4713  0.3975
   96MOL   C22832718   7.091   7.788   1.022  0.0521 -0.5795 -0.2807
   96MOL   C22932719   7.235   7.750   0.997  0.6388 -0.1623 -0.7239
   96MOL   O23032720   7.305   7.697   1.079  0.5421  0.0247 -0.6174
   96MOL   H23132721   7.545   7.616   0.754 -0.1859 -0.0759 -1.2409
   96MOL   H23232722   7.440   7.580   0.892 -0.8310 -0.1092 -0.1222
   96MOL   H23332723   7.387   7.821   0.722  1.7220 -0.9228 -1.1869
   96MOL   H23432724   7.201   0.062   0.768 -0.3806 -0.6931 -0.7173
   96MOL   H23532725   7.143   7.815   0.712 -0.5350 -0.5412  0.7931
   96MOL   H23632726   7.022   0.065   0.939  1.2725 -0.0874 -0.6238
   96MOL   H23732727   6.974   7.830   0.839 -0.2753  2.0542  0.4942
   96MOL   H23832728   7.093   7.854   1.109  1.3182 -0.6908 -0.2191
   96MOL   H23932729   7.030   7.699   1.034 -0.0321 -0.3981  0.6455
   96MOL   C24032730   7.523   7.843   0.895  0.0085 -0.1619 -0.0139
   96MOL   C24132731   7.654   7.869   0.817 -0.1473  0.4924 -0.1162
   96MOL   N24232732   7.623   0.041   0.696 -0.2791 -0.0858  0.4548
   96MOL   C24332733   7.655   7.880   0.564 -0.0209 -0.2256  0.5733
   96MOL   C24432734   7.600   0.083   0.463 -0.1967  0.0030  0.5089
   96MOL   C24532735   7.572   0.204   0.546  0.0892  0.6047 -0.1396
   96MOL   C24632736   7.597   0.173   0.687  0.3745  0.5718 -0.0241
   96MOL   O24732737   7.596   0.257   0.777  0.1764  0.5031  0.0119
   96MOL   H24832738   7.549   7.789   0.985  2.8793  1.5971  0.2695
   96MOL   H24932739   7.483   0.027   0.943  1.3246 -1.0055  2.7521
   96MOL   H25032740   7.684   7.768   0.790  0.0461 -0.2178  2.6528
   96MOL   H25132741   7.763   7.866   0.567  0.1677  1.0882  0.2849
   96MOL   H25232742   7.600   7.786   0.559  1.3823 -1.0467  0.4563
   96MOL   H25332743   7.673   0.100   0.384 -2.7069 -0.5588 -1.9788
   96MOL   H25432744   7.518   0.060   0.395  1.2174 -1.5193 -0.7104
   96MOL   H25532745   7.626   0.294   0.519 -0.7688  1.5166  1.1391
   96MOL   H25632746   7.464   0.215   0.549  0.0159  0.0796 -0.7921
   96MOL   C25732747   7.777   0.023   0.894  0.0114 -0.9411 -0.4158
   96MOL   C25832748   7.859   7.821   0.976 -0.5540  0.3007 -0.6510
   96MOL   N25932749   0.009   7.723   0.882  0.5564 -0.5158 -0.3792
   96MOL   C26032750   7.875   7.586   0.904  0.4292 -0.1229 -0.3114
   96MOL   C26132751   0.018   7.513   0.779 -0.0218  0.1045 -0.3994
   96MOL   C26232752   0.132   7.596   0.723  0.8706  0.3819 -0.1832
   96MOL   C26332753   0.100   7.734   0.786 -0.0738  0.1980 -0.2390
   96MOL   O26432754   0.153   7.838   0.748 -0.2462  0.9359 -0.3362
   96MOL   H26532755   7.744   0.104   0.959 -0.1862  1.1165 -3.0465
   96MOL   H26632756   7.838   0.072   0.819 -1.2992  2.7867  0.8763
   96MOL   H26732757   7.793   7.770   1.046 -0.4465  2.2282  0.9046
   96MOL   H26832758   0.015   7.551   0.997 -1.0468 -2.0025 -0.2711
   96MOL   H26932759   7.769   7.574   0.925  0.4607  1.6787  1.1107
   96MOL   H27032760   0.060   7.413   0.787  1.2181  0.7329  1.1723
   96MOL   H27132761   7.843   7.501   0.707 -0.1211  2.2687 -0.6833
   96MOL   H27232762   0.226   7.556   0.760  0.5948  1.6507  2.0188
   96MOL   H27332763   0.135   7.602   0.614  0.9923 -1.3158 -0.2830
   96MOL   C27432764   0.078   7.891   1.047  0.3159  0.5811  0.0137
   96MOL   C27532765   0.037   0.083   1.165 -0.4172  0.1697 -0.1377
   96MOL   N27632766   0.007   0.006   1.287  1.0692  0.4124 -0.5605
   96MOL   C27732767   7.775   7.889   1.320  0.0609  0.5891  0.6368
   96MOL   C27832768   7.772   7.784   1.431 -0.7234  0.1399 -0.3489
   96MOL   C27932769   0.014   7.766   1.463 -0.0952  0.2030 -1.0340
   96MOL   C28032770   0.094   7.834   1.357  0.1549  0.1617  1.0596
   96MOL   O28132771   0.212   7.810   1.334  0.2347  0.0923  0.1675
   96MOL   H28232772   0.127   0.045   0.971 -2.1482  1.3157 -1.0638
   96MOL   H28332773   0.151   7.819   1.083  0.9937  1.7930  1.0672
   96MOL   H28432774   7.857   0.142   1.133  0.0723  0.5289 -0.7889
   96MOL   H28532775   7.744   0.077   1.365 -0.8833  0.4503  0.2985
   96MOL   H28632776   7.707   7.868   1.237  0.5351 -0.5754  0.5236
   96MOL   H28732777   7.716   7.815   1.519  2.1940  1.7031  1.0291
   96MOL   H28832778   7.721   7.692   1.403  1.3438 -1.8956  2.3378
   96MOL   H28932779   0.046   7.808   1.558 -0.4613  1.2848 -1.3805
   96MOL   H29032780   0.037   7.660   1.462 -1.5623 -0.2901  3.5659
   96MOL   C29132781   0.158   0.184   1.191  0.0380 -0.5448  0.0842
   96MOL   C29232782   0.141   0.314   1.113 -0.3475  0.1468  0.2736
   96MOL   N29332783   0.027   0.398   1.148  0.0652  0.1410  0.2589
   96MOL   C29432784   7.852   0.459   1.039 -0.5642 -0.3851 -0.0040
   96MOL   C29532785   7.785   0.576   1.105 -0.1446  0.5326  0.8291
   96MOL   C29632786   7.789   0.549   1.253  0.2074 -0.6227 -0.0696
   96MOL   C29732787   7.886   0.433   1.269 -0.6878  0.2244  0.3147
   96MOL   O29832788   0.027   0.398   1.375 -0.1351  0.2680  0.0016
   96MOL   H29932789   0.244   0.129   1.153  1.9844  1.5370  1.3268
   96MOL   H30032790   0.180   0.206   1.295  0.4855  4.8742 -0.9717
   96MOL   H30132791   0.127   0.281   1.010 -3.0262  1.7072  0.0849
   96MOL   H30232792   0.010   0.488   0.956 -0.6696 -0.0934  0.0168
   96MOL   H30332793   7.780   0.389   0.998  0.6858 -0.7537 -1.6499
   96MOL   H30432794   7.834   0.671   1.083  1.3195 -0.2205  0.7565
   96MOL   H30532795   7.687   0.580   1.058  0.9035  1.0153 -1.3422
   96MOL   H30632796   7.806   0.632   1.322  0.6839  0.1237 -1.0777
   96MOL   H30732797   7.690   0.509   1.275 -0.1111 -0.0080 -0.3855
   96MOL   C30832798   0.272   0.403   1.109 -0.5917 -1.4911 -0.0499
   96MOL   C30932799   0.407   0.343   1.052 -0.4041 -0.3201  0.3176
   96MOL   N31032800   0.386   0.278   0.923 -0.3177 -0.2891  0.2554
   96MOL   C31132801   0.449   0.152   0.898 -0.6551  0.1510  0.1479
   96MOL   C31232802   0.425   0.126   0.754 -0.7049  0.7868 -0.2211
   96MOL   C31332803   0.323   0.225   0.698  0.3242 -0.0409 -0.0888
   96MOL   C31432804   0.319   0.328   0.814  0.0759  0.4602  0.0606
   96MOL   O31532805   0.257   0.433   0.806 -0.1735  0.0939  0.4090
   96MOL   H31632806   0.291   0.442   1.209 -1.5637 -0.0097 -0.4200
   96MOL   H31732807   0.247   0.491   1.050 -1.8218 -1.8541 -0.0763
   96MOL   H31832808   0.434   0.267   1.125 -1.2368 -0.4826  0.4660
   96MOL   H31932809   0.556   0.146   0.920 -0.3350 -1.6603 -1.7509
   96MOL   H32032810   0.411   0.075   0.964 -0.0321 -0.2467  0.0509
   96MOL   H32132811   0.520   0.125   0.700  0.2990  0.1198  1.5181
   96MOL   H32232812   0.401   0.021   0.740  1.7155  0.2850 -0.7846
   96MOL   H32332813   0.354   0.258   0.599 -0.1355 -0.0730 -0.2424
   96MOL   H32432814   0.225   0.179   0.697 -0.8106  2.2834  0.0578
   96MOL   C32532815   0.525   0.444   1.038 -0.2149  0.1342 -0.0093
   96MOL   C32632816   0.561   0.530   1.164  0.6221 -0.3140 -0.1057
   96MOL   N32732817   0.698   0.576   1.154  0.8042 -0.0057 -0.4015
   96MOL   C32832818   0.802   0.490   1.213 -0.1197 -0.1652 -0.1319
   96MOL   C32932819   0.932   0.559   1.177  0.0047  0.1619 -0.0831
   96MOL   C33032820   0.894   0.708   1.165 -0.7649  0.0185 -0.1326
   96MOL   C33132821   0.740   0.706   1.151 -0.9704 -0.4963  0.2201
   96MOL   O33232822   0.667   0.800   1.134 -0.0351 -0.0877 -0.1008
   96MOL   H33332823   0.515   0.506   0.948  3.5453 -1.2861 -1.5440
   96MOL   H33432824   0.607   0.374   1.020 -0.1721  0.6677 -2.0551
   96MOL   H33532825   0.547   0.466   1.252  0.6495  1.6792  1.3877
   96MOL   H33632826   0.787   0.472   1.319  0.9936 -1.4207 -0.1603
   96MOL   H33732827   0.799   0.392   1.166  1.3632 -0.2930  0.0005
   96MOL   H33832828   1.014   0.550   1.249  1.2317  0.7339 -1.3740
   96MOL   H33932829   0.970   0.514   1.086 -1.6497  0.4863 -0.9519
   96MOL   H34032830   0.921   0.778   1.244 -0.3083  0.9654 -1.1078
   96MOL   H34132831   0.939   0.749   1.074  0.4851 -0.1914  0.3810
   96MOL   H34232832   0.489   0.610   1.183  0.6238 -0.3453  0.0317
   97MOL     C132833   0.795   4.349   6.681 -0.4000  0.2171  0.9737
   97MOL     C232834   0.935   4.408   6.654 -0.3551  0.0736  0.5170
   97MOL     N332835   1.041   4.304   6.623 -0.3121 -0.5960  0.2188
   97MOL     C432836   1.148   4.286   6.720  0.1183 -0.5097 -0.1513
   97MOL     C532837   1.228   4.171   6.672 -0.0577 -0.2310 -0.2551
   97MOL     C632838   1.183   4.146   6.531  0.1126 -0.3856 -0.2479
   97MOL     C732839   1.061   4.225   6.514  0.9136 -0.2095  0.1257
   97MOL     O832840   0.994   4.222   6.413 -0.4206 -0.1084  0.2250
   97MOL     H932841   0.723   4.425   6.708 -1.4796 -0.5416  0.2649
   97MOL    H1032842   0.767   4.313   6.582 -1.0983 -1.1319  1.6408
   97MOL    H1132843   0.963   4.460   6.746  0.1436  1.1633 -0.2331
   97MOL    H1232844   1.207   4.377   6.708  0.1402 -0.6731 -1.3347
   97MOL    H1332845   1.102   4.273   6.818  0.8437  0.5726  0.3422
   97MOL    H1432846   1.332   4.202   6.679  0.7966 -3.1904  1.3587
   97MOL    H1532847   1.222   4.086   6.741 -0.9080 -0.0397 -0.0908
   97MOL    H1632848   1.257   4.183   6.460  0.0541  1.0877  0.4339
   97MOL    H1732849   1.171   4.038   6.519  0.0197 -0.3396 -0.5944
   97MOL    H1832850   0.796   4.274   6.761  1.7463  0.5058  1.2564
   97MOL    C1932851   0.946   4.509   6.540  0.1756  0.0342 -0.2965
   97MOL    C2032852   0.890   4.645   6.579 -0.0520  0.3282  0.4397
   97MOL    N2132853   0.956   4.696   6.699 -0.1354  0.3400  0.1329
   97MOL    C2232854   0.885   4.750   6.812  0.6774  0.4324 -0.3612
   97MOL    C2332855   0.992   4.790   6.911  0.2756  0.0786  0.1667
   97MOL    C2432856   1.118   4.809   6.826 -0.0376  0.6213 -0.0265
   97MOL    C2532857   1.086   4.726   6.699  0.5767  0.1651 -0.1993
   97MOL    O2632858   1.173   4.688   6.622 -0.3961  0.5823 -0.6031
   97MOL    H2732859   0.885   4.473   6.458  0.2814 -1.5651  0.3061
   97MOL    H2832860   1.048   4.533   6.512 -0.1077  1.8115  0.1533
   97MOL    H2932861   0.788   4.633   6.615 -0.0013  0.1481  0.5209
   97MOL    H3032862   0.828   4.837   6.780 -0.1280 -0.7694 -2.2417
   97MOL    H3132863   0.821   4.675   6.857  0.3905 -1.0253 -3.1091
   97MOL    H3232864   0.967   4.872   6.978  0.7346 -0.7711  1.4116
   97MOL    H3332865   1.015   4.702   6.972 -0.5892 -1.3117 -1.4863
   97MOL    H3432866   1.127   4.914   6.798 -0.8366  0.3050 -1.4991
   97MOL    H3532867   1.204   4.773   6.884  0.2002 -0.4533 -1.0276
   97MOL    C3632868   0.895   4.750   6.466 -0.3258  0.1395  0.0701
   97MOL    C3732869   0.776   4.747   6.370 -0.4381  0.2846 -0.4994
   97MOL    N3832870   0.639   4.748   6.428 -0.3437 -0.0768 -0.3193
   97MOL    C3932871   0.554   4.639   6.396 -0.3459  0.0113  0.4415
   97MOL    C4032872   0.411   4.677   6.450 -0.6555 -0.1410  0.8085
   97MOL    C4132873   0.438   4.804   6.528  1.0353  0.4456  0.4440
   97MOL    C4232874   0.584   4.835   6.512 -0.1620 -0.8886 -0.5023
   97MOL    O4332875   0.642   4.919   6.576  0.1453 -0.1244 -0.2456
   97MOL    H4432876   0.991   4.732   6.418 -0.8210  1.4267 -1.4450
   97MOL    H4532877   0.898   4.850   6.510  0.7076 -0.7778  2.1677
   97MOL    H4632878   0.782   4.655   6.312 -2.8182 -0.2271 -0.0071
   97MOL    H4732879   0.550   4.601   6.294  0.2488  1.1439 -0.0075
   97MOL    H4832880   0.588   4.550   6.449 -2.8688 -1.2965 -0.0651
   97MOL    H4932881   0.345   4.701   6.366 -0.0819 -1.4899 -0.0401
   97MOL    H5032882   0.384   4.589   6.509  1.9212 -2.3987 -1.2652
   97MOL    H5132883   0.383   4.885   6.481  1.3315  0.0799 -0.5487
   97MOL    H5232884   0.415   4.818   6.633  2.3599  3.4339  0.3868
   97MOL    C5332885   0.782   4.866   6.273  0.6214 -0.7052 -0.5517
   97MOL    C5432886   0.897   4.858   6.167 -0.3202 -0.0009  0.1259
   97MOL    N5532887   0.883   4.749   6.065  0.0503  0.1864 -0.3341
   97MOL    C5632888   0.993   4.666   6.035 -0.1354 -0.0121 -0.2047
   97MOL    C5732889   0.956   4.583   5.912 -0.1960 -0.2027 -0.1678
   97MOL    C5832890   0.804   4.607   5.894 -0.1533  0.1465  0.2591
   97MOL    C5932891   0.779   4.727   5.987 -0.0818  0.0990 -0.0299
   97MOL    O6032892   0.673   4.797   5.984 -0.7424  0.4734 -0.7277
   97MOL    H6132893   0.803   4.955   6.331 -1.0569 -0.2707 -0.5890
   97MOL    H6232894   0.685   4.878   6.226  0.3414 -1.4385 -0.1767
   97MOL    H6332895   0.992   4.836   6.215 -0.6035 -0.6610  0.3900
   97MOL    H6432896   1.082   4.727   6.042 -1.0456  1.0909  2.7980
   97MOL    H6532897   0.985   4.598   6.120 -2.2753 -0.4647 -0.7280
   97MOL    H6632898   1.013   4.620   5.827  0.4535 -0.1571  0.2855
   97MOL    H6732899   0.984   4.479   5.926 -0.0299 -0.0032  1.0068
   97MOL    H6832900   0.752   4.621   5.800  2.2187 -2.1412 -1.4657
   97MOL    H6932901   0.757   4.530   5.955  0.6895 -0.0703  0.6531
   97MOL    C7032902   0.915   4.987   6.097 -0.3787  0.6071  0.0983
   97MOL    C7132903   0.958   5.109   6.172  0.9396  0.3667  0.4583
   97MOL    N7232904   1.072   5.073   6.259  1.3485  0.3695 -0.4891
   97MOL    C7332905   1.066   5.127   6.400  0.4247  0.0036 -0.0585
   97MOL    C7432906   1.187   5.074   6.473 -0.5088 -0.4631  0.8136
   97MOL    C7532907   1.290   5.025   6.366  0.5176 -0.2387 -0.0548
   97MOL    C7632908   1.198   5.028   6.241 -0.3422 -0.6023 -0.4606
   97MOL    O7732909   1.234   4.979   6.134  0.0250  0.6765  0.0176
   97MOL    H7832910   0.828   5.014   6.037  0.2084 -3.0939 -2.6106
   97MOL    H7932911   0.998   4.972   6.028  1.2451  0.4683  2.0299
   97MOL    H8032912   0.872   5.150   6.225  1.5631  1.6162  0.5346
   97MOL    H8132913   1.061   5.235   6.385  0.5118  0.0145 -0.0126
   97MOL    H8232914   0.971   5.098   6.444  1.5927 -1.9727  1.2621
   97MOL    H8332915   1.233   5.152   6.533 -0.0694  0.3580 -0.5448
   97MOL    H8432916   1.155   4.991   6.536  0.2125 -1.4935 -0.1638
   97MOL    H8532917   1.367   5.101   6.350 -0.9728  1.0706 -1.1085
   97MOL    H8632918   1.331   4.928   6.395 -1.8817 -1.3843 -0.4366
   97MOL    C8732919   0.996   5.224   6.081  0.3794 -0.0757  0.4786
   97MOL    C8832920   0.880   5.293   6.003  0.4543  0.2606  0.5914
   97MOL    N8932921   0.795   5.379   6.090 -0.4434 -0.0717  0.0151
   97MOL    C9032922   0.677   5.431   6.025 -0.2800  0.0291 -0.4362
   97MOL    C9132923   0.626   5.545   6.108  0.2978 -0.1338  0.4452
   97MOL    C9232924   0.674   5.513   6.243  0.3405 -0.0229  0.3399
   97MOL    C9332925   0.793   5.420   6.218 -0.2007 -1.1452 -0.7229
   97MOL    O9432926   0.879   5.401   6.302 -0.2062  0.2135  0.6798
   97MOL    H9532927   1.048   5.177   5.997 -1.6922 -0.1864 -0.7751
   97MOL    H9632928   1.058   5.289   6.143  1.1918  1.1243 -1.5612
   97MOL    H9732929   0.820   5.220   5.948  1.8099  0.0385 -0.6360
   97MOL    H9832930   0.675   5.447   5.917 -1.3231 -2.9145 -0.9084
   97MOL    H9932931   0.611   5.348   6.049  1.0788 -1.2549 -1.0206
   97MOL   H10032932   0.660   5.640   6.066 -0.9868  0.0582 -0.2140
   97MOL   H10132933   0.517   5.556   6.113  0.2732 -0.3029  0.2674
   97MOL   H10232934   0.689   5.603   6.304  2.2106  0.9369 -1.4650
   97MOL   H10332935   0.596   5.460   6.299 -0.6434  1.8341  0.8008
   97MOL   C10432936   0.950   5.372   5.886 -0.3813 -0.1238  0.6678
   97MOL   C10532937   0.894   5.328   5.747  0.3883 -0.3437  0.6117
   97MOL   N10632938   0.939   5.428   5.642 -0.3619  0.4258  0.0939
   97MOL   C10732939   1.085   5.451   5.620 -0.8606  0.2905  0.3218
   97MOL   C10832940   1.096   5.556   5.511 -0.1018 -0.2757  0.9045
   97MOL   C10932941   0.960   5.565   5.442  0.4898 -0.1631 -0.1340
   97MOL   C11032942   0.877   5.485   5.537 -0.5316  0.6246 -0.2227
   97MOL   O11132943   0.757   5.482   5.511 -0.1904 -0.5880  0.0277
   97MOL   H11232944   1.059   5.361   5.886 -0.3918 -0.3044 -0.4603
   97MOL   H11332945   0.927   5.478   5.893  0.8202  0.0528  2.0180
   97MOL   H11432946   0.785   5.333   5.744  0.3491 -1.7429 -0.9607
   97MOL   H11532947   1.121   5.477   5.720 -1.0027  0.4386  0.3333
   97MOL   H11632948   1.130   5.356   5.590 -2.4303 -1.0348  2.0581
   97MOL   H11732949   1.122   5.653   5.551  2.0773 -0.5076  0.1291
   97MOL   H11832950   1.177   5.536   5.441  0.1045 -1.8107  1.5707
   97MOL   H11932951   0.944   5.522   5.343 -2.1642 -0.7947  0.5183
   97MOL   H12032952   0.918   5.666   5.451  0.8039 -0.1736  1.6865
   97MOL   C12132953   0.943   5.191   5.704  0.4178  0.2852  0.0637
   97MOL   C12232954   0.836   5.124   5.604  1.1082  0.4952 -0.3518
   97MOL   N12332955   0.903   5.014   5.526 -0.0914 -0.1415  0.0502
   97MOL   C12432956   0.914   5.015   5.379  0.0480  0.1438  0.1515
   97MOL   C12532957   0.963   4.872   5.339 -0.0410  0.0106  0.1050
   97MOL   C12632958   1.007   4.811   5.474  0.5094 -0.1479  0.1112
   97MOL   C12732959   0.971   4.908   5.575 -0.1588  0.4459  0.0693
   97MOL   O12832960   0.968   4.890   5.697 -0.8357  0.0597  0.0169
   97MOL   H12932961   0.944   5.128   5.792  0.8477  0.7810  0.4144
   97MOL   H13032962   1.041   5.194   5.655  0.6526  0.8663  0.5623
   97MOL   H13132963   0.799   5.200   5.536 -1.3183 -0.0313  0.3331
   97MOL   H13232964   0.984   5.091   5.344  1.4899 -0.3712  1.8488
   97MOL   H13332965   0.820   5.050   5.336  0.6758  1.8071  0.0845
   97MOL   H13432966   0.883   4.815   5.292  0.3543 -1.1341  0.7881
   97MOL   H13532967   1.044   4.881   5.266 -0.5227 -0.8577 -0.5460
   97MOL   H13632968   0.959   4.720   5.510 -1.1523  0.9764  0.8094
   97MOL   H13732969   1.112   4.782   5.476  0.0805 -1.8051 -0.1008
   97MOL   C13832970   0.710   5.069   5.673  0.4650  0.6694 -0.8876
   97MOL   C13932971   0.584   5.038   5.585  0.1614  0.6932 -0.0026
   97MOL   N14032972   0.590   4.929   5.487 -0.6169 -0.1103  0.0069
   97MOL   C14132973   0.626   4.796   5.533  0.6295  0.0630 -0.1609
   97MOL   C14232974   0.588   4.694   5.421  0.4605  0.7022 -0.0014
   97MOL   C14332975   0.535   4.781   5.305  0.0879  0.0079 -0.2107
   97MOL   C14432976   0.530   4.922   5.368  0.3995 -0.0605 -0.3570
   97MOL   O14532977   0.488   5.024   5.310 -0.4334 -0.5583 -0.9403
   97MOL   H14632978   0.690   5.138   5.754 -0.5846  2.4348 -2.6136
   97MOL   H14732979   0.734   4.982   5.734  1.4535  1.4455 -0.1587
   97MOL   H14832980   0.575   5.126   5.520  0.0441 -0.3777 -1.4491
   97MOL   H14932981   0.728   4.791   5.572  0.9617  0.9125 -0.9183
   97MOL   H15032982   0.574   4.763   5.623  0.6563 -2.4714 -1.0249
   97MOL   H15132983   0.671   4.632   5.389  1.0940  1.6503 -0.2210
   97MOL   H15232984   0.512   4.621   5.449  2.7911 -1.4121  0.9305
   97MOL   H15332985   0.439   4.744   5.269  0.8758 -1.7684 -0.5864
   97MOL   H15432986   0.592   4.784   5.212 -1.7509 -1.1877 -1.4130
   97MOL   C15532987   0.459   5.012   5.671 -0.2644  0.2701 -0.1194
   97MOL   C15632988   0.404   5.138   5.757 -0.1717  0.5096 -0.2417
   97MOL   N15732989   0.386   5.248   5.665  0.6232 -0.5963  0.2330
   97MOL   C15832990   0.303   5.235   5.547  0.3059  0.0429  0.3231
   97MOL   C15932991   0.317   5.366   5.470 -0.2353  0.3843  0.6348
   97MOL   C16032992   0.395   5.456   5.560  0.1585  0.2583 -1.0530
   97MOL   C16132993   0.424   5.375   5.683 -1.0252  0.2395  0.4016
   97MOL   O16232994   0.468   5.432   5.783  0.6043 -0.1663 -0.0172
   97MOL   H16332995   0.480   4.945   5.754  1.4143  3.3329  2.0385
   97MOL   H16432996   0.373   4.979   5.613 -0.0730  1.9239 -1.3610
   97MOL   H16532997   0.482   5.165   5.828  0.3733  0.0218 -0.6371
   97MOL   H16632998   0.318   5.145   5.488 -2.4716 -0.2609  0.0065
   97MOL   H16732999   0.197   5.233   5.571  0.4834 -0.6188  1.0637
   97MOL   H16833000   0.373   5.360   5.377 -0.3193 -0.5067  0.6380
   97MOL   H16933001   0.221   5.415   5.454 -0.0939  0.5015  0.1225
   97MOL   H17033002   0.486   5.488   5.509  1.3031  0.9910  1.3480
   97MOL   H17133003   0.339   5.548   5.581 -1.0858 -1.0106  1.4923
   97MOL   C17233004   0.273   5.103   5.832  0.1521  0.0110  0.5492
   97MOL   C17333005   0.289   5.004   5.951  0.3399 -0.5223 -0.5293
   97MOL   N17433006   0.346   5.075   6.068 -0.2643  0.0794 -0.2034
   97MOL   C17533007   0.479   5.050   6.123 -0.1614 -0.7956 -0.4724
   97MOL   C17633008   0.498   5.155   6.235  0.5415  0.0781  0.6512
   97MOL   C17733009   0.373   5.239   6.240  0.4773 -1.4359 -0.0821
   97MOL   C17833010   0.285   5.176   6.139  0.1419 -0.3103 -0.3212
   97MOL   O17933011   0.172   5.214   6.126  0.5957  0.2238  0.3773
   97MOL   H18033012   0.200   5.061   5.763  1.6291 -0.8797 -0.5158
   97MOL   H18133013   0.227   5.195   5.869  2.5317  1.3771  0.2086
   97MOL   H18233014   0.364   4.935   5.913  0.1346 -0.8761 -0.2903
   97MOL   H18333015   0.469   4.950   6.167 -0.6265 -0.8262 -0.6484
   97MOL   H18433016   0.554   5.044   6.045  1.5964  0.5637  1.0528
   97MOL   H18533017   0.579   5.224   6.208 -1.2435  2.4233  1.1114
   97MOL   H18633018   0.528   5.108   6.328  0.7798 -1.6548 -0.2792
   97MOL   H18733019   0.325   5.216   6.336 -0.1608 -0.6087 -0.1939
   97MOL   H18833020   0.389   5.347   6.239  2.6474 -1.6945  1.6137
   97MOL   C18933021   0.155   4.921   5.971 -0.2185  0.0837  0.2411
   97MOL   C19033022   0.124   4.798   5.878  0.4730 -0.5552  0.2011
   97MOL   N19133023   0.233   4.697   5.881 -0.1115  0.7053 -0.2836
   97MOL   C19233024   0.293   4.640   6.002  0.3543 -0.4623 -0.5465
   97MOL   C19333025   0.416   4.570   5.954 -0.6679  0.2888 -0.3926
   97MOL   C19433026   0.400   4.551   5.800 -0.0162  0.2776 -0.2240
   97MOL   C19533027   0.291   4.653   5.769  0.3060  0.0105  0.6162
   97MOL   O19633028   0.263   4.682   5.654 -0.3066  0.0220 -0.0104
   97MOL   H19733029   0.076   4.992   5.992 -0.1151  0.1562  0.3863
   97MOL   H19833030   0.147   4.873   6.069 -1.0644 -0.0220  0.1253
   97MOL   H19933031   0.137   4.844   5.780  0.5241  0.2797  0.5959
   97MOL   H20033032   0.306   4.712   6.082 -0.8085 -1.1629  0.2872
   97MOL   H20133033   0.223   4.571   6.049  3.2142 -2.3378  1.0619
   97MOL   H20233034   0.500   4.639   5.964 -1.7327  1.2768  2.0932
   97MOL   H20333035   0.423   4.473   6.002  0.9740  0.6455  0.1223
   97MOL   H20433036   0.494   4.577   5.751  1.2114  0.1298  1.9844
   97MOL   H20533037   0.353   4.455   5.777  1.0144 -0.4617  0.7102
   97MOL   C20633038   7.888   4.745   5.912  0.1366  0.1520  0.0278
   97MOL   C20733039   7.813   4.704   5.780 -0.2285 -0.2316  0.2618
   97MOL   N20833040   7.718   4.597   5.808  0.4055 -0.7452 -1.4036
   97MOL   C20933041   7.734   4.474   5.735 -0.1805  0.0638 -0.4834
   97MOL   C21033042   7.621   4.378   5.778 -0.3555 -0.8993  0.9717
   97MOL   C21133043   7.537   4.458   5.876  0.5717  0.1034 -0.1057
   97MOL   C21233044   7.609   4.594   5.892  0.6655  0.2730 -0.0004
   97MOL   O21333045   7.558   4.686   5.954 -0.6686  0.3090  0.3386
   97MOL   H21433046   7.828   4.827   5.951 -2.3458 -1.2533 -0.6926
   97MOL   H21533047   7.902   4.667   5.987 -6.4788  0.7754  2.2503
   97MOL   H21633048   7.886   4.669   5.707 -1.4757  1.4381 -1.8253
   97MOL   H21733049   7.730   4.505   5.630  1.5560  0.4904 -0.4369
   97MOL   H21833050   7.832   4.430   5.752 -0.3524 -0.4074 -0.6925
   97MOL   H21933051   7.570   4.337   5.692 -0.5257  1.5867 -0.1627
   97MOL   H22033052   7.672   4.298   5.832  1.4716  0.3215  1.0970
   97MOL   H22133053   7.437   4.470   5.835  0.9780  5.0797  0.0574
   97MOL   H22233054   7.520   4.414   5.974  1.7368 -3.7443 -1.5449
   97MOL   C22333055   7.743   4.823   5.716 -0.5775  0.1858 -0.4783
   97MOL   C22433056   7.823   4.929   5.627  1.0845 -0.0647 -0.6093
   97MOL   N22533057   7.897   4.860   5.517 -0.9527 -0.3261 -0.6566
   97MOL   C22633058   0.124   4.911   5.482 -0.3128 -0.0737  0.1114
   97MOL   C22733059   0.182   4.816   5.387  0.9789 -0.5717  0.3643
   97MOL   C22833060   0.070   4.723   5.346 -0.1684 -0.3992  0.4068
   97MOL   C22933061   7.859   4.766   5.428  0.1421 -0.4933  0.0254
   97MOL   O23033062   7.753   4.708   5.433 -0.1472 -0.1713 -0.0574
   97MOL   H23133063   7.670   4.873   5.780  0.1543 -0.4719  0.8879
   97MOL   H23233064   7.661   4.780   5.658 -1.3120 -0.5249  1.0612
   97MOL   H23333065   7.902   4.974   5.686  0.4257  0.8292 -0.3882
   97MOL   H23433066   0.119   5.015   5.449 -0.6171  0.1851  0.9560
   97MOL   H23533067   0.186   4.920   5.571 -1.4484  0.7222  0.8385
   97MOL   H23633068   0.224   4.874   5.305 -1.5409  0.7244 -0.0367
   97MOL   H23733069   0.267   4.761   5.428  1.1056 -1.3888 -0.9506
   97MOL   H23833070   0.045   4.723   5.239  0.4210 -2.0353  0.2469
   97MOL   H23933071   0.098   4.626   5.388  0.0960  0.6486  2.6777
   97MOL   C24033072   7.728   5.044   5.566 -0.4957  0.4841 -0.1695
   97MOL   C24133073   7.621   5.121   5.652  0.3533  0.0164  0.2483
   97MOL   N24233074   7.660   5.149   5.789 -0.1785  0.1482 -0.2315
   97MOL   C24333075   7.562   5.130   5.891  0.4016 -0.6916  0.3768
   97MOL   C24433076   7.630   5.164   6.022 -0.3279  0.5444  0.3094
   97MOL   C24533077   7.765   5.233   5.973  0.2918  0.2895  0.4277
   97MOL   C24633078   7.773   5.198   5.827 -0.2647 -0.8179 -0.6087
   97MOL   O24733079   7.866   5.225   5.754 -0.4050 -0.4200 -0.4594
   97MOL   H24833080   7.680   5.006   5.476 -0.7035 -0.9095  0.5257
   97MOL   H24933081   7.801   5.114   5.526  0.5861  0.6589  2.0382
   97MOL   H25033082   7.539   5.049   5.662 -1.3081  1.7450 -0.7483
   97MOL   H25133083   7.472   5.189   5.875 -0.0835 -1.9237 -1.6110
   97MOL   H25233084   7.521   5.030   5.896 -1.8031  0.0584 -1.9357
   97MOL   H25333085   7.565   5.231   6.079 -0.9847 -0.1809  0.4249
   97MOL   H25433086   7.654   5.075   6.080  0.5251 -0.3147 -1.3275
   97MOL   H25533087   7.758   5.338   6.001 -1.6012 -0.3353  2.4430
   97MOL   H25633088   7.849   5.186   6.025  0.0243 -1.4086 -0.6376
   97MOL   C25733089   7.577   5.248   5.576  0.2564  0.4188  0.1178
   97MOL   C25833090   7.534   5.238   5.427  0.2976 -0.6617 -0.2791
   97MOL   N25933091   7.400   5.176   5.426  0.3832  0.2614 -0.1309
   97MOL   C26033092   7.374   5.047   5.353  0.1941 -0.6256 -0.3062
   97MOL   C26133093   7.225   5.026   5.364  0.3210 -0.1907 -0.3991
   97MOL   C26233094   7.178   5.125   5.476 -0.6845  0.3616  0.0298
   97MOL   C26333095   7.292   5.220   5.488  0.3156  0.1134  0.4328
   97MOL   O26433096   7.284   5.329   5.539  0.4674  0.2084 -0.2287
   97MOL   H26533097   7.654   5.325   5.571  2.6530 -1.8249  1.9956
   97MOL   H26633098   7.501   5.299   5.637 -0.8428  0.3106 -1.1272
   97MOL   H26733099   7.604   5.174   5.375  1.6023 -0.5996  1.3705
   97MOL   H26833100   7.415   5.058   5.253  0.7672  2.3856  0.2077
   97MOL   H26933101   7.427   4.960   5.393  1.8368  0.4599 -0.0637
   97MOL   H27033102   7.177   5.056   5.271  0.9783 -0.0367 -0.6858
   97MOL   H27133103   7.199   4.925   5.395 -0.1456  0.4086  1.2431
   97MOL   H27233104   7.092   5.190   5.457 -1.4373 -0.3168  1.0177
   97MOL   H27333105   7.150   5.070   5.566  1.3375  0.8502  0.9870
   97MOL   C27433106   7.536   5.374   5.347  0.8134 -0.4460  0.1414
   97MOL   C27533107   7.682   5.417   5.309  0.2717  0.1744 -0.0089
   97MOL   N27633108   7.740   5.315   5.225  0.4079 -0.1688 -0.0890
   97MOL   C27733109   7.883   5.285   5.249  0.0973 -0.0198 -0.5609
   97MOL   C27833110   0.012   5.194   5.130 -0.4367  0.0369 -0.5916
   97MOL   C27933111   7.788   5.165   5.053 -0.2846 -0.5770  0.2090
   97MOL   C28033112   7.694   5.260   5.110 -0.0172 -0.4069 -0.2438
   97MOL   O28133113   7.583   5.278   5.056  0.5920  0.2760  0.1437
   97MOL   H28233114   7.491   5.458   5.399 -0.2483 -0.3358 -0.9182
   97MOL   H28333115   7.484   5.369   5.251  1.6335 -0.5406 -0.2980
   97MOL   H28433116   7.741   5.429   5.400  1.8762  0.3772 -1.0596
   97MOL   H28533117   0.034   5.378   5.255 -0.3584  0.1841  0.8098
   97MOL   H28633118   7.885   5.241   5.348  0.9306  2.0954  0.3783
   97MOL   H28733119   0.071   5.265   5.072 -0.0525 -0.4163 -0.7510
   97MOL   H28833120   0.077   5.109   5.149 -1.0872  0.1110  2.2409
   97MOL   H28933121   7.797   5.175   4.945  2.7439 -2.0419  0.2619
   97MOL   H29033122   7.765   5.060   5.069 -1.4376 -0.4527 -0.5899
   97MOL   C29133123   7.681   5.555   5.235 -0.2002 -0.8080 -0.1429
   97MOL   C29233124   7.679   5.680   5.322  0.5230 -0.3249  0.1063
   97MOL   N29333125   7.770   5.669   5.435 -0.0882 -0.0551  1.0957
   97MOL   C29433126   7.712   5.646   5.566  0.3552 -0.4970 -0.2622
   97MOL   C29533127   7.829   5.624   5.659 -0.5537  0.1081 -0.1549
   97MOL   C29633128   0.048   5.622   5.577 -0.6171  0.2224 -0.5088
   97MOL   C29733129   7.902   5.650   5.439 -0.3572  0.6196  0.4500
   97MOL   O29833130   0.070   5.639   5.340 -0.3439 -0.0656 -0.5538
   97MOL   H29933131   7.598   5.561   5.164 -1.1770 -3.5020  0.7350
   97MOL   H30033132   7.767   5.560   5.168 -0.6919  0.0697 -0.7245
   97MOL   H30133133   7.580   5.687   5.368  0.1212  0.6691 -0.8765
   97MOL   H30233134   7.653   5.731   5.601  2.1569  0.3494  0.8014
   97MOL   H30333135   7.640   5.565   5.572  1.7531 -1.6529  1.0426
   97MOL   H30433136   7.834   5.713   5.723  1.8239 -0.1695  0.1014
   97MOL   H30533137   7.817   5.532   5.717  0.8137 -0.7969 -1.2875
   97MOL   H30633138   0.120   5.697   5.607  1.8482 -2.2406 -0.1026
   97MOL   H30733139   0.095   5.524   5.583  1.3827  1.2261  0.3957
   97MOL   C30833140   7.703   5.811   5.244  0.3181  0.0976 -0.1102
   97MOL   C30933141   7.687   5.934   5.338  0.2292 -0.0980 -0.3022
   97MOL   N31033142   7.814   5.971   5.412  0.2665  0.6505  0.2590
   97MOL   C31133143   7.814   6.014   5.551  0.3988  0.5828 -0.4338
   97MOL   C31233144   0.055   6.029   5.591  0.5645 -0.6281 -0.3105
   97MOL   C31333145   0.140   5.992   5.466 -0.0408 -0.1235  0.1487
   97MOL   C31433146   0.031   5.973   5.361  0.2900 -0.2757 -0.1057
   97MOL   O31533147   0.059   5.955   5.242 -0.2702 -0.6940 -0.1634
   97MOL   H31633148   7.620   5.814   5.173 -1.2021  0.3883  1.6341
   97MOL   H31733149   7.792   5.803   5.182 -1.1310 -0.2468 -2.2376
   97MOL   H31833150   7.604   5.922   5.407  0.8759  3.1627  1.1416
   97MOL   H31933151   7.770   6.111   5.572  2.3489  1.6649 -1.2268
   97MOL   H32033152   7.752   5.945   5.608  1.7165  1.0145  1.5651
   97MOL   H32133153   0.075   6.134   5.614 -0.5967 -0.9907  2.5498
   97MOL   H32233154   0.090   5.970   5.675  2.7761 -0.5636 -1.1307
   97MOL   H32333155   0.216   6.063   5.433 -1.1984  0.0609 -2.2487
   97MOL   H32433156   0.190   5.897   5.486  1.1858  0.9396  2.4252
   97MOL   C32533157   7.640   6.057   5.267  0.0873 -0.3035  0.5753
   97MOL   C32633158   7.599   6.169   5.362 -0.1825  0.1199  0.3095
   97MOL   N32733159   7.478   6.248   5.314 -0.2198 -0.6300 -0.4200
   97MOL   C32833160   7.489   6.378   5.250  0.7022  0.3131  0.4848
   97MOL   C32933161   7.341   6.433   5.257 -0.4303 -0.6361 -0.0188
   97MOL   C33033162   7.261   6.305   5.257 -0.6869  0.5766  0.6415
   97MOL   C33133163   7.349   6.206   5.314 -0.3331 -1.1787 -0.3083
   97MOL   O33233164   7.303   6.101   5.354 -0.0723 -0.3803  0.2248
   97MOL   H33333165   7.558   6.031   5.201 -0.3406 -2.6058  1.9559
   97MOL   H33433166   7.714   6.091   5.195  0.0891  0.7559  1.0644
   97MOL   H33533167   7.684   6.236   5.355 -0.6609  0.4735 -2.8738
   97MOL   H33633168   7.566   6.446   5.284  1.1960  1.0006 -1.8999
   97MOL   H33733169   7.523   6.376   5.146  0.7921  4.8625  0.3372
   97MOL   H33833170   7.321   6.498   5.342 -0.0724  0.4841 -0.7937
   97MOL   H33933171   7.307   6.484   5.168  2.0473  1.7850  0.3395
   97MOL   H34033172   7.163   6.315   5.303 -2.0672 -0.3405 -2.0555
   97MOL   H34133173   7.236   6.271   5.157  0.7340 -1.5088  0.9546
   97MOL   H34233174   7.584   6.139   5.466  1.2127 -1.1916  0.1467
   98MOL     C133175   2.606   5.322   2.944 -0.2333  0.8208 -0.1953
   98MOL     C233176   2.687   5.361   2.817  0.1222 -0.5944  0.0851
   98MOL     N333177   2.601   5.362   2.696  0.1881 -0.4602  0.2869
   98MOL     C433178   2.641   5.284   2.580 -0.4434 -0.1494  0.4891
   98MOL     C533179   2.528   5.310   2.475  0.1233  0.1851  0.3137
   98MOL     C633180   2.418   5.382   2.547 -1.0065  0.1358  0.1606
   98MOL     C733181   2.484   5.424   2.678 -0.6108 -0.6869 -0.1012
   98MOL     O833182   2.424   5.495   2.756  0.3738  0.5280  0.9861
   98MOL     H933183   2.669   5.280   3.023 -0.0856  3.1705  0.9636
   98MOL    H1033184   2.562   5.410   2.989 -0.4443  0.6931 -0.1499
   98MOL    H1133185   2.773   5.298   2.794  0.5756 -0.3632  1.1041
   98MOL    H1233186   2.740   5.313   2.544  0.2724 -0.9170  1.7639
   98MOL    H1333187   2.649   5.179   2.610  0.5516  0.0237  0.8601
   98MOL    H1433188   2.580   5.374   2.403 -0.7108  0.5054 -0.0171
   98MOL    H1533189   2.505   5.216   2.425  0.8427 -0.8041  1.8276
   98MOL    H1633190   2.383   5.472   2.497 -0.8288  0.7275  1.0946
   98MOL    H1733191   2.329   5.322   2.567 -0.3229  0.0101  3.0674
   98MOL    H1833192   2.540   5.238   2.925  1.8489 -1.5034  2.3356
   98MOL    C1933193   2.748   5.502   2.836 -0.7171 -0.4588  0.3516
   98MOL    C2033194   2.847   5.503   2.963  0.2802 -0.0437 -0.0313
   98MOL    N2133195   2.966   5.422   2.933  0.3874 -0.4385 -0.5635
   98MOL    C2233196   3.019   5.341   3.041  0.5805  0.5701  0.6620
   98MOL    C2333197   3.150   5.278   2.995  0.8510 -0.5595 -0.1591
   98MOL    C2433198   3.177   5.346   2.866 -0.3073  0.0791  0.1187
   98MOL    C2533199   3.056   5.434   2.831  0.8497 -0.6129 -0.1061
   98MOL    O2633200   3.055   5.511   2.735  0.1347  0.0909  0.0805
   98MOL    H2733201   2.667   5.568   2.865  0.1464  1.1058 -0.7596
   98MOL    H2833202   2.788   5.542   2.743 -2.5016  1.9631  0.5973
   98MOL    H2933203   2.791   5.454   3.042 -1.0235 -0.0151 -0.9290
   98MOL    H3033204   3.047   5.405   3.124  0.0704  0.7857  0.6677
   98MOL    H3133205   2.946   5.272   3.083 -0.8133  0.7309 -1.4034
   98MOL    H3233206   3.221   5.285   3.078 -0.7562  0.9003  1.1412
   98MOL    H3333207   3.119   5.175   2.977 -0.1634  0.0604 -2.1772
   98MOL    H3433208   3.271   5.401   2.863 -1.2546  1.6843 -0.2575
   98MOL    H3533209   3.195   5.275   2.785 -2.2372 -0.7543  0.3907
   98MOL    C3633210   2.880   5.646   3.003  0.2638 -0.7605 -0.1092
   98MOL    C3733211   2.780   5.750   3.064  0.0998 -0.7839  0.6133
   98MOL    N3833212   2.720   5.690   3.185 -0.1186 -0.5679 -0.3215
   98MOL    C3933213   2.800   5.683   3.311 -0.0668 -0.8319  0.1774
   98MOL    C4033214   2.694   5.637   3.411  0.7257 -0.3248 -0.4380
   98MOL    C4133215   2.577   5.577   3.325  0.1380 -0.0858 -0.8935
   98MOL    C4233216   2.600   5.642   3.193 -0.0220  0.2791  0.9286
   98MOL    O4333217   2.520   5.643   3.098  0.6529  1.0470  0.1953
   98MOL    H4433218   2.929   5.694   2.918  0.6863  2.2120  1.6930
   98MOL    H4533219   2.966   5.635   3.070  0.4579  1.1353  0.0033
   98MOL    H4633220   2.697   5.775   2.997  0.8398  2.3713  0.8336
   98MOL    H4733221   2.871   5.602   3.297 -0.4832 -1.1074 -0.3525
   98MOL    H4833222   2.850   5.773   3.347  0.9922 -0.6092 -1.7811
   98MOL    H4933223   2.743   5.571   3.482 -1.3071 -1.8711 -0.4105
   98MOL    H5033224   2.651   5.723   3.463 -0.8414 -1.8784  0.8984
   98MOL    H5133225   2.591   5.469   3.322  0.0481 -0.0888 -1.3332
   98MOL    H5233226   2.479   5.606   3.364  0.2320  1.3072 -1.6292
   98MOL    C5333227   2.853   5.886   3.091  0.2476  0.8725  0.1286
   98MOL    C5433228   2.774   5.995   3.174  0.3107  0.3605  0.0685
   98MOL    N5533229   2.866   6.088   3.245 -0.1937  0.4046  0.1520
   98MOL    C5633230   2.878   6.086   3.389 -0.2838 -0.0705 -0.0750
   98MOL    C5733231   2.985   6.192   3.423 -0.8006 -0.3187  0.2062
   98MOL    C5833232   3.042   6.235   3.290  0.0931 -0.3732  0.3519
   98MOL    C5933233   2.954   6.169   3.191 -0.8609  0.6739 -0.4386
   98MOL    O6033234   2.964   6.192   3.072  0.4601  0.6724 -0.2525
   98MOL    H6133235   2.893   5.927   2.998 -1.5406  3.1588  0.3085
   98MOL    H6233236   2.943   5.858   3.145 -0.1021 -0.6533 -0.0574
   98MOL    H6333237   2.714   5.949   3.252  0.2880  0.8400  0.3376
   98MOL    H6433238   2.783   6.101   3.440 -0.0663 -0.0061  0.3107
   98MOL    H6533239   2.911   5.985   3.416  3.0036  0.7554 -0.7604
   98MOL    H6633240   2.939   6.280   3.468 -1.5609  0.0125 -1.2117
   98MOL    H6733241   3.060   6.156   3.494  0.7066  1.8951 -0.2078
   98MOL    H6833242   3.027   6.341   3.272 -1.9428 -0.4007  1.6817
   98MOL    H6933243   3.147   6.217   3.266 -0.0099  1.8186 -1.9402
   98MOL    C7033244   2.678   6.084   3.086  0.3712  0.0610 -0.2358
   98MOL    C7133245   2.529   6.041   3.096  0.5830 -0.5017 -0.5365
   98MOL    N7233246   2.474   6.010   3.225 -0.4052 -0.6565  0.0379
   98MOL    C7333247   2.364   5.913   3.234 -0.3042 -0.7131 -0.2681
   98MOL    C7433248   2.333   5.889   3.381  0.2908 -0.0407 -0.0930
   98MOL    C7533249   2.393   6.003   3.450 -0.5801 -0.1167 -0.0148
   98MOL    C7633250   2.481   6.075   3.341  0.8407 -0.1637 -0.3418
   98MOL    O7733251   2.546   6.175   3.361 -0.0812  0.5730 -0.4925
   98MOL    H7833252   2.705   6.089   2.981 -0.2297 -0.2344 -0.4028
   98MOL    H7933253   2.677   6.190   3.111 -1.4413 -0.8358  3.9404
   98MOL    H8033254   2.522   5.947   3.042 -2.1708 -0.2191 -0.7151
   98MOL    H8133255   2.281   5.955   3.178  0.3788 -0.4408 -1.0868
   98MOL    H8233256   2.394   5.815   3.198  0.0698 -0.3708 -0.8989
   98MOL    H8333257   2.227   5.887   3.404  0.1466  0.6652 -0.6667
   98MOL    H8433258   2.372   5.794   3.416 -1.7558 -0.4910  1.0257
   98MOL    H8533259   2.309   6.062   3.487 -0.3847  0.9237 -1.1872
   98MOL    H8633260   2.454   5.983   3.539 -0.3427 -0.8295 -0.3337
   98MOL    C8733261   2.445   6.148   3.033  0.6930  0.5215 -0.6485
   98MOL    C8833262   2.450   6.161   2.881  0.1138  0.2566 -0.4200
   98MOL    N8933263   2.431   6.026   2.819 -0.6862 -0.0161  0.7185
   98MOL    C9033264   2.546   5.975   2.743  0.2481  0.0026  0.1336
   98MOL    C9133265   2.494   5.845   2.680 -0.6551 -0.1501 -0.0566
   98MOL    C9233266   2.367   5.811   2.773  0.4163 -0.3287 -0.6836
   98MOL    C9333267   2.326   5.949   2.825  0.3642  0.3468 -0.4068
   98MOL    O9433268   2.214   5.977   2.872 -0.2974 -0.5024 -0.3431
   98MOL    H9533269   2.466   6.240   3.088  0.8788  0.1212 -0.0511
   98MOL    H9633270   2.343   6.117   3.054  0.7285 -1.1193 -2.6693
   98MOL    H9733271   2.554   6.186   2.861  1.0256 -0.5750  3.0934
   98MOL    H9833272   2.572   6.050   2.668  2.4712 -0.4220  0.4721
   98MOL    H9933273   2.630   5.966   2.810  0.8858 -1.3852 -0.8385
   98MOL   H10033274   2.469   5.871   2.577 -2.0016 -1.2721 -0.0225
   98MOL   H10133275   2.577   5.775   2.686 -1.0383 -0.5825  0.1912
   98MOL   H10233276   2.278   5.771   2.723  0.7481  0.4359 -1.9265
   98MOL   H10333277   2.402   5.766   2.865 -0.2674 -1.5360 -1.0099
   98MOL   C10433278   2.349   6.263   2.827  0.0007  0.8114 -0.2629
   98MOL   C10533279   2.387   6.412   2.844  0.3269  0.1034  0.0493
   98MOL   N10633280   2.534   6.437   2.847  0.5673  0.3911 -0.8859
   98MOL   C10733281   2.592   6.491   2.969  0.0192  0.4707  0.0053
   98MOL   C10833282   2.741   6.511   2.940  0.7382 -0.1400 -0.8042
   98MOL   C10933283   2.764   6.466   2.800  0.1086  0.3811  0.3504
   98MOL   C11033284   2.626   6.418   2.751 -0.3883 -0.1676  0.4732
   98MOL   O11133285   2.605   6.365   2.642 -0.0801 -0.2220  0.3333
   98MOL   H11233286   2.248   6.246   2.863 -1.5881 -0.5077 -4.9041
   98MOL   H11333287   2.340   6.235   2.722  1.2756  1.9689 -0.6941
   98MOL   H11433288   2.356   6.445   2.944  2.8350 -0.7235  1.1457
   98MOL   H11533289   2.545   6.586   2.995 -2.0099 -1.0066  1.9978
   98MOL   H11633290   2.580   6.424   3.054 -1.5009  0.9109  0.1501
   98MOL   H11733291   2.766   6.615   2.960  2.1604 -0.1984 -2.1972
   98MOL   H11833292   2.801   6.454   3.011  2.2188  1.8034 -0.4294
   98MOL   H11933293   2.823   6.375   2.796 -1.7480 -0.8327 -0.5492
   98MOL   H12033294   2.806   6.540   2.732  0.0493  0.3711  0.3027
   98MOL   C12133295   2.312   6.500   2.737 -0.4478 -0.7674  0.2817
   98MOL   C12233296   2.327   6.657   2.743 -0.2098  0.1262  0.9058
   98MOL   N12333297   2.312   6.732   2.616 -0.1416  0.0556  0.3373
   98MOL   C12433298   2.433   6.784   2.554  0.0281 -0.0050 -0.2477
   98MOL   C12533299   2.384   6.869   2.435  0.1469  0.4235 -0.6489
   98MOL   C12633300   2.238   6.823   2.408 -0.5244 -0.2567 -0.3481
   98MOL   C12733301   2.207   6.743   2.533  0.0430 -0.3119  0.5583
   98MOL   O12833302   2.093   6.703   2.557 -0.5091 -0.1877  0.0935
   98MOL   H12933303   2.211   6.458   2.743 -1.6659  2.1842  1.0786
   98MOL   H13033304   2.350   6.464   2.641  0.0119 -1.5935  0.7697
   98MOL   H13133305   2.428   6.661   2.784  0.7666 -0.8051 -1.3398
   98MOL   H13233306   2.494   6.704   2.512 -0.3798 -1.4179  1.8147
   98MOL   H13333307   2.500   6.843   2.616  0.4201  1.8725 -2.3609
   98MOL   H13433308   2.395   6.972   2.469 -2.7268  0.3661  0.6003
   98MOL   H13533309   2.453   6.866   2.351  1.1945  1.0864  0.1759
   98MOL   H13633310   2.192   6.921   2.394  3.4368  1.6856 -0.5058
   98MOL   H13733311   2.220   6.767   2.317  0.6148 -3.2791  1.1892
   98MOL   C13833312   2.239   6.721   2.851  0.3854 -0.1434 -1.0462
   98MOL   C13933313   2.275   6.876   2.876  0.4512  0.4048 -0.4282
   98MOL   N14033314   2.150   6.956   2.904 -0.4804 -0.0083  0.3068
   98MOL   C14133315   2.080   7.013   2.797  0.4214  0.3630  0.2702
   98MOL   C14233316   1.957   7.086   2.858 -0.0026  0.1354  0.8354
   98MOL   C14333317   1.971   7.070   3.007 -0.0108 -0.2750 -0.3945
   98MOL   C14433318   2.078   6.971   3.019 -0.4882 -0.1562  0.3218
   98MOL   O14533319   2.104   6.918   3.127 -0.0210 -0.4598 -0.0811
   98MOL   H14633320   2.259   6.664   2.941 -1.0727  0.4336 -0.3512
   98MOL   H14733321   2.136   6.701   2.824  0.3792 -0.6042 -0.6764
   98MOL   H14833322   2.313   6.918   2.783 -1.2032  3.2174  0.0898
   98MOL   H14933323   2.150   7.083   2.752  0.7790  0.2252  0.6073
   98MOL   H15033324   2.052   6.929   2.735 -1.4612  0.6873  0.6463
   98MOL   H15133325   1.960   7.190   2.826 -0.5416 -0.0594  0.1322
   98MOL   H15233326   1.861   7.046   2.827  0.0453  1.1025 -0.6182
   98MOL   H15333327   1.877   7.045   3.057  0.1561 -0.8304 -0.3549
   98MOL   H15433328   2.010   7.154   3.065  1.9685 -2.2694  1.2141
   98MOL   C15533329   2.378   6.894   2.989 -0.1299 -0.0020  0.5076
   98MOL   C15633330   2.441   7.035   3.015 -0.1424  0.1770 -0.5498
   98MOL   N15733331   2.512   7.023   3.142 -0.3066 -0.4579 -0.5295
   98MOL   C15833332   2.461   7.074   3.267  1.0422 -0.4730  0.3854
   98MOL   C15933333   2.562   7.052   3.375 -0.3746  0.0637 -0.2782
   98MOL   C16033334   2.673   6.989   3.295  0.7325  0.0761  0.2938
   98MOL   C16133335   2.629   6.960   3.161 -0.2938  0.6415 -0.1993
   98MOL   O16233336   2.695   6.901   3.077 -0.3122 -0.8819  0.3506
   98MOL   H16333337   2.455   6.820   2.967  1.7616  2.3591 -1.0273
   98MOL   H16433338   2.332   6.845   3.074 -0.6550  0.4398  0.4788
   98MOL   H16533339   2.361   7.106   3.034 -1.7858 -1.5734 -0.8588
   98MOL   H16633340   2.442   7.181   3.262 -1.4155 -0.9018 -0.1720
   98MOL   H16733341   2.361   7.036   3.289  1.2931 -2.6025 -1.9492
   98MOL   H16833342   2.608   7.139   3.421  0.1730 -1.0266  1.2931
   98MOL   H16933343   2.517   6.992   3.455  1.5663  0.5789  1.2348
   98MOL   H17033344   2.770   7.040   3.299  0.6309  0.2362  0.9243
   98MOL   H17133345   2.701   6.896   3.344  0.8923  0.8832  1.7728
   98MOL   C17233346   2.532   7.080   2.902 -0.0674 -0.6599  0.9738
   98MOL   C17333347   2.463   7.177   2.799  0.4235 -0.2792 -0.3803
   98MOL   N17433348   2.425   7.300   2.861 -0.3243 -0.2667 -0.0127
   98MOL   C17533349   2.284   7.324   2.894  0.1346  0.3957 -0.0276
   98MOL   C17633350   2.266   7.464   2.950  0.9845 -0.5226 -0.0230
   98MOL   C17733351   2.407   7.530   2.921 -0.2606 -0.4357  0.4506
   98MOL   C17833352   2.494   7.413   2.888 -0.4697 -0.4895  0.1340
   98MOL   O17933353   2.613   7.427   2.885  0.1326 -0.1542 -0.3560
   98MOL   H18033354   2.574   6.987   2.864 -0.3366 -0.1869 -0.4947
   98MOL   H18133355   2.622   7.131   2.936  0.3426 -0.6027 -0.1649
   98MOL   H18233356   2.373   7.127   2.763  0.9080 -0.2670 -1.6202
   98MOL   H18333357   2.232   7.310   2.799  0.5024 -2.0415  0.1071
   98MOL   H18433358   2.236   7.251   2.959 -3.0746  0.7366 -1.8780
   98MOL   H18533359   2.246   7.462   3.057 -0.7024  0.0293 -0.3155
   98MOL   H18633360   2.197   7.526   2.892  1.6922  0.1393 -0.1646
   98MOL   H18733361   2.403   7.602   2.839 -2.3288 -2.1829 -1.0550
   98MOL   H18833362   2.437   7.586   3.009  2.2188  0.6912 -1.0616
   98MOL   C18933363   2.547   7.194   2.669 -0.1267  0.6054  0.0610
   98MOL   C19033364   2.493   7.288   2.561  0.4605 -0.5600  0.0476
   98MOL   N19133365   2.597   7.306   2.458 -0.0995  0.1540 -0.2768
   98MOL   C19233366   2.683   7.427   2.457  0.4217  0.4386  0.1366
   98MOL   C19333367   2.801   7.395   2.368 -0.0957 -0.9643 -0.6121
   98MOL   C19433368   2.763   7.266   2.303  0.0035  0.9189  0.0250
   98MOL   C19533369   2.652   7.209   2.386 -0.0493 -0.3066  0.1937
   98MOL   O19633370   2.609   7.092   2.373  0.0375 -0.2898  0.0416
   98MOL   H19733371   2.566   7.096   2.624 -0.9074 -0.7123  2.4757
   98MOL   H19833372   2.648   7.223   2.696  0.6534 -1.7224 -0.2097
   98MOL   H19933373   2.478   7.383   2.612  0.2084  0.6753 -2.2578
   98MOL   H20033374   2.628   7.508   2.407  1.2469  2.4456  2.3844
   98MOL   H20133375   2.715   7.461   2.555 -0.6900  0.6707  0.4260
   98MOL   H20233376   2.813   7.474   2.294  1.0882 -1.3114 -0.7941
   98MOL   H20333377   2.879   7.370   2.439  1.0693 -0.2673 -1.6256
   98MOL   H20433378   2.733   7.268   2.198  0.4847  0.3511 -0.1256
   98MOL   H20533379   2.833   7.182   2.302 -1.5737 -0.4351 -0.1014
   98MOL   C20633380   2.348   7.261   2.502 -0.3423  0.6811  0.4283
   98MOL   C20733381   2.277   7.380   2.434 -0.2309 -0.0217 -0.5218
   98MOL   N20833382   2.146   7.342   2.393  0.4687  0.2591  0.3870
   98MOL   C20933383   2.139   7.308   2.252 -0.7653  0.6336 -0.2053
   98MOL   C21033384   1.992   7.256   2.238 -0.1550  0.3391 -0.2676
   98MOL   C21133385   1.923   7.280   2.367 -0.2716 -0.0748 -0.2488
   98MOL   C21233386   2.034   7.316   2.464 -0.3639 -0.0020 -0.7608
   98MOL   O21333387   2.024   7.327   2.583  0.3095  0.0880 -0.7252
   98MOL   H21433388   2.292   7.228   2.590 -1.5270  0.0230 -0.5558
   98MOL   H21533389   2.342   7.182   2.428  0.9460  1.2679 -0.3105
   98MOL   H21633390   2.330   7.413   2.344 -0.7919 -0.7262 -1.1106
   98MOL   H21733391   2.162   7.401   2.200 -1.0210 -0.5147 -2.4418
   98MOL   H21833392   2.213   7.228   2.240 -2.4013 -1.0172  0.5747
   98MOL   H21933393   1.938   7.297   2.153 -0.2547  2.3748  0.7467
   98MOL   H22033394   1.983   7.150   2.215  1.1533  0.5257 -1.7545
   98MOL   H22133395   1.867   7.373   2.359  0.9488  0.7514  0.6112
   98MOL   H22233396   1.868   7.190   2.398  1.0386 -1.4637 -1.8875
   98MOL   C22333397   2.282   7.511   2.518  0.2709  0.0487  0.6074
   98MOL   C22433398   2.189   7.636   2.488 -0.5979 -0.3167  0.1774
   98MOL   N22533399   2.180   7.729   2.602  0.5173  0.4576 -0.0939
   98MOL   C22633400   2.061   7.720   2.690 -0.4809  0.0909  0.9648
   98MOL   C22733401   2.082   7.827   2.796  0.1679  0.1202 -0.0796
   98MOL   C22833402   2.223   7.879   2.766  0.5028 -0.0782  0.5934
   98MOL   C22933403   2.275   7.816   2.645  0.4833 -0.4092 -0.2817
   98MOL   O23033404   2.384   7.834   2.589 -0.7706 -0.5304 -0.4418
   98MOL   H23133405   2.386   7.544   2.519  0.1789  0.3473  0.2170
   98MOL   H23233406   2.267   7.478   2.621  2.6941 -0.9957  0.6515
   98MOL   H23333407   2.089   7.595   2.470 -0.0142 -2.7224  2.1554
   98MOL   H23433408   1.971   7.730   2.629 -0.2984  1.3076  0.8896
   98MOL   H23533409   2.060   7.621   2.736  0.7257 -0.8551 -0.9687
   98MOL   H23633410   2.001   7.895   2.770  0.1268 -0.1431 -0.6568
   98MOL   H23733411   2.057   7.780   2.891  0.8771 -2.8256 -1.3098
   98MOL   H23833412   2.222   0.082   2.763  2.9793 -0.0661 -1.1838
   98MOL   H23933413   2.299   7.843   2.836  1.1557 -1.5905 -0.8496
   98MOL   C24033414   2.239   7.709   2.353 -0.0400 -0.2366 -0.7465
   98MOL   C24133415   2.172   7.846   2.323  0.2690  0.2740  0.2186
   98MOL   N24233416   2.236   0.016   2.210  0.1229  0.3174  0.6685
   98MOL   C24333417   2.301   0.148   2.233  0.6059  0.0469  0.0047
   98MOL   C24433418   2.383   0.178   2.105 -0.0438  0.6845 -0.5551
   98MOL   C24533419   2.323   0.078   1.997 -0.9483 -0.4300  0.2313
   98MOL   C24633420   2.242   7.886   2.080  0.0814 -0.6238  0.1182
   98MOL   O24733421   2.188   7.788   2.030 -0.5113 -0.3449  0.5811
   98MOL   H24833422   2.212   7.642   2.272  1.4177 -1.8663  0.0821
   98MOL   H24933423   2.347   7.726   2.356 -0.0696 -0.2131  0.9261
   98MOL   H25033424   2.184   7.904   2.415  3.7109 -1.6359  1.0501
   98MOL   H25133425   2.220   0.220   2.239 -0.3933 -0.9980 -0.6722
   98MOL   H25233426   2.363   0.153   2.322 -0.3961  0.6710  0.6685
   98MOL   H25333427   2.374   0.281   2.070  1.4531  1.9021  2.4161
   98MOL   H25433428   2.483   0.142   2.129 -0.3917  1.0752  1.5639
   98MOL   H25533429   2.270   0.123   1.913  0.6871 -0.7584 -0.9978
   98MOL   H25633430   2.401   0.024   1.943 -0.2171 -1.0793  1.9152
   98MOL   C25733431   2.024   7.832   2.287  0.6013  0.7772  0.3699
   98MOL   C25833432   1.945   0.061   2.301 -0.1477 -0.4734  0.4459
   98MOL   N25933433   1.896   0.103   2.161  0.4306 -0.2615 -0.0343
   98MOL   C26033434   1.965   0.214   2.094  0.4756  0.3006 -0.2392
   98MOL   C26133435   1.910   0.203   1.948 -0.1533  0.1247 -0.5594
   98MOL   C26233436   1.801   0.103   1.943 -0.1900  0.2110  0.8620
   98MOL   C26333437   1.811   0.040   2.083  0.0960  0.6556  0.4110
   98MOL   O26433438   1.729   7.859   2.117  0.0722  0.4078 -0.1574
   98MOL   H26533439   1.980   7.758   2.354  0.2249 -0.1708 -0.8987
   98MOL   H26633440   2.009   7.784   2.190  0.5817  0.6088  0.4555
   98MOL   H26733441   2.006   0.142   2.340  0.5086 -0.5387 -0.4448
   98MOL   H26833442   1.936   0.305   2.147  0.0977  0.3387 -0.5061
   98MOL   H26933443   2.073   0.208   2.098  0.4406  0.0890  0.4853
   98MOL   H27033444   1.873   0.301   1.915 -1.1612 -0.4019 -1.0052
   98MOL   H27133445   1.996   0.172   1.889 -0.1679  1.8382 -1.5462
   98MOL   H27233446   1.702   0.149   1.940 -0.8815 -1.2332  1.2780
   98MOL   H27333447   1.810   0.033   1.859 -0.7798  0.9420  0.1734
   98MOL   C27433448   1.840   0.046   2.410 -0.4803 -0.4589  0.2592
   98MOL   C27533449   1.745   0.162   2.450  0.4230  1.0844  0.6983
   98MOL   N27633450   1.624   0.114   2.514  0.4118 -0.2889 -0.5763
   98MOL   C27733451   1.497   0.125   2.453  0.0118 -0.4249  0.1602
   98MOL   C27833452   1.399   0.090   2.559 -0.5557  0.4621  0.7070
   98MOL   C27933453   1.472   0.012   2.667 -0.6912 -0.3126 -1.3117
   98MOL   C28033454   1.615   0.050   2.636 -0.9009 -0.5139 -0.2711
   98MOL   O28133455   1.704   0.015   2.716 -0.0833 -0.0879 -0.3634
   98MOL   H28233456   1.890   0.022   2.504  0.0668  1.1833  0.3980
   98MOL   H28333457   1.784   7.860   2.391  1.2465 -1.4914  0.0606
   98MOL   H28433458   1.710   0.195   2.352  1.4889  0.6455  0.1654
   98MOL   H28533459   1.486   0.225   2.412 -2.0901 -0.0321  1.5505
   98MOL   H28633460   1.496   0.056   2.369 -0.2164  0.4083 -0.5210
   98MOL   H28733461   1.353   0.180   2.599 -0.0688  0.3272  1.5611
   98MOL   H28833462   1.330   0.020   2.511  0.7029 -0.4848  0.2346
   98MOL   H28933463   1.440   0.048   2.764 -1.2186  0.1008 -1.6359
   98MOL   H29033464   1.457   7.810   2.654 -2.8611 -0.2734  0.6699
   98MOL   C29133465   1.824   0.274   2.525  0.1921  0.9023 -0.0152
   98MOL   C29233466   1.755   0.419   2.500  0.0493  0.2296 -1.0344
   98MOL   N29333467   1.790   0.522   2.608  0.6629 -0.0907  0.5232
   98MOL   C29433468   1.685   0.582   2.691  0.2253  0.6446  0.3273
   98MOL   C29533469   1.760   0.676   2.775  0.4938  0.3891  0.3478
   98MOL   C29633470   1.909   0.641   2.762  0.5820 -0.3421 -0.3221
   98MOL   C29733471   1.918   0.548   2.643 -0.1953  0.7793 -0.7168
   98MOL   O29833472   2.014   0.517   2.574 -0.2556  0.4648 -0.5576
   98MOL   H29933473   1.931   0.278   2.509  0.7536 -1.3969  2.7485
   98MOL   H30033474   1.821   0.246   2.630  0.0808  0.8203 -0.0401
   98MOL   H30133475   1.647   0.412   2.508 -0.0181  2.5637  0.5284
   98MOL   H30233476   1.610   0.638   2.635  0.4562 -0.3215 -0.9722
   98MOL   H30333477   1.621   0.510   2.742  1.0785 -3.4001 -3.9356
   98MOL   H30433478   1.752   0.778   2.740 -0.1218 -0.7606 -3.0491
   98MOL   H30533479   1.718   0.682   2.875 -0.2756  0.6006  0.0106
   98MOL   H30633480   1.967   0.733   2.746 -0.5110  0.6596  1.3323
   98MOL   H30733481   1.939   0.588   2.852 -0.1824 -0.2955 -0.0416
   98MOL   C30833482   1.777   0.476   2.357  0.5491 -0.3050  0.7880
   98MOL   C30933483   1.743   0.620   2.329  0.3579  0.8264  0.0024
   98MOL   N31033484   1.792   0.660   2.197  0.4782  0.1495  0.4268
   98MOL   C31133485   1.912   0.739   2.189  0.4190  0.1744  0.0463
   98MOL   C31233486   1.966   0.730   2.039  0.4345 -0.8122 -0.5596
   98MOL   C31333487   1.847   0.671   1.958 -0.0088  0.0081 -0.4131
   98MOL   C31433488   1.754   0.621   2.074 -0.6971  0.2186  0.6381
   98MOL   O31533489   1.665   0.542   2.052  0.7359  0.1018  0.2534
   98MOL   H31633490   1.723   0.415   2.284  2.9873  2.4292 -3.4527
   98MOL   H31733491   1.882   0.469   2.329  0.5570 -0.5449  0.8683
   98MOL   H31833492   1.794   0.687   2.398  0.6941  0.0711  0.4850
   98MOL   H31933493   1.892   0.831   2.244 -0.7487  0.2721 -0.5124
   98MOL   H32033494   1.985   0.687   2.251 -0.0960  1.1310  1.4843
   98MOL   H32133495   2.005   0.823   1.998  0.9226 -0.9531 -0.4220
   98MOL   H32233496   2.048   0.658   2.041  0.0387 -1.2492  0.0905
   98MOL   H32333497   1.802   0.755   1.907  1.0315  0.9619  0.2159
   98MOL   H32433498   1.875   0.582   1.900  0.0489 -0.4519  0.3133
   98MOL   C32533499   1.587   0.647   2.339  0.8906  0.3499  0.3721
   98MOL   C32633500   1.549   0.791   2.332  0.3814  0.2356 -0.1904
   98MOL   N32733501   1.416   0.811   2.279 -0.5770 -0.1617  0.2352
   98MOL   C32833502   1.320   0.868   2.371  0.4499  0.3583  0.4031
   98MOL   C32933503   1.196   0.894   2.288  0.0561 -0.3938  0.5947
   98MOL   C33033504   1.249   0.895   2.147 -0.1015  0.4717  0.0796
   98MOL   C33133505   1.386   0.828   2.153  0.3377  0.3661 -0.8398
   98MOL   O33233506   1.451   0.800   2.056  0.3794 -0.2090 -0.3819
   98MOL   H33333507   1.553   0.615   2.437 -1.2325 -0.9257 -0.7630
   98MOL   H33433508   1.537   0.587   2.263 -0.1498 -0.7930  1.9444
   98MOL   H33533509   1.615   0.841   2.261 -1.0446  1.9426 -0.3683
   98MOL   H33633510   1.298   0.792   2.446  0.8007 -0.2569 -0.1094
   98MOL   H33733511   1.356   0.962   2.413 -0.0153  0.4158  0.6754
   98MOL   H33833512   1.120   0.823   2.319 -0.3197 -0.7021 -1.0116
   98MOL   H33933513   1.165   0.997   2.309  0.1685  0.1567 -1.8068
   98MOL   H34033514   1.182   0.843   2.079 -0.4042 -1.3843  1.7241
   98MOL   H34133515   1.260   0.997   2.112 -1.1236  0.9874  1.2436
   98MOL   H34233516   1.553   0.841   2.429 -0.0282  1.1575 -0.6387
   99MOL     C133517   0.131   3.584   0.775 -0.1052 -0.2843 -0.1753
   99MOL     C233518   0.029   3.568   0.664 -0.0727  0.5028 -0.2815
   99MOL     N333519   0.067   3.453   0.579  0.3439  0.7405  0.2304
   99MOL     C433520   0.154   3.478   0.460  0.3209 -0.2604  0.0558
   99MOL     C533521   0.207   3.345   0.417 -0.2006 -0.1489 -0.0979
   99MOL     C633522   0.126   3.235   0.495 -0.2267 -0.4233  1.0054
   99MOL     C733523   0.052   3.318   0.601 -0.2805 -0.2411 -0.6779
   99MOL     O833524   0.005   3.266   0.701  0.1661  0.7635 -0.4112
   99MOL     H933525   0.220   3.624   0.727 -0.0025  1.9040  1.7784
   99MOL    H1033526   0.104   3.653   0.854 -0.5091  1.1618 -1.5520
   99MOL    H1133527   0.044   3.659   0.605 -0.3763 -0.2810 -1.5900
   99MOL    H1233528   0.102   3.528   0.379  0.9639  1.1063  0.4707
   99MOL    H1333529   0.240   3.541   0.479  0.1501  0.0248 -0.1158
   99MOL    H1433530   0.199   3.344   0.308 -1.5571 -0.9090 -0.0061
   99MOL    H1533531   0.309   3.327   0.450 -0.5083 -1.1600  0.3253
   99MOL    H1633532   0.054   3.183   0.432  0.1107 -0.8055  0.9304
   99MOL    H1733533   0.192   3.156   0.532  1.9147  0.9530  0.1630
   99MOL    H1833534   0.163   3.483   0.803 -0.2176  0.2206  1.8482
   99MOL    C1933535   7.787   3.557   0.720 -0.1456 -0.4000 -0.1283
   99MOL    C2033536   7.675   3.589   0.631  0.4647 -0.2619  0.4608
   99MOL    N2133537   7.661   3.491   0.519 -0.2037  0.6230  0.2437
   99MOL    C2233538   7.694   3.532   0.387  0.2347 -0.4503  0.7149
   99MOL    C2333539   7.689   3.400   0.302  0.1191  0.1217 -0.1107
   99MOL    C2433540   7.625   3.293   0.391 -0.3763  0.4604  0.5712
   99MOL    C2533541   7.622   3.360   0.530  0.3434  0.2435 -0.8964
   99MOL    O2633542   7.585   3.305   0.639  0.6847  0.4394  0.4038
   99MOL    H2733543   7.793   3.623   0.806  1.4895  0.2444 -0.7058
   99MOL    H2833544   7.781   3.456   0.760  1.2746 -1.0026 -1.3609
   99MOL    H2933545   7.718   3.675   0.581  0.9697 -1.3769 -1.0814
   99MOL    H3033546   7.634   3.615   0.350 -0.8573 -1.7063 -0.3788
   99MOL    H3133547   7.797   3.569   0.393 -0.0233  1.0583 -2.8856
   99MOL    H3233548   7.622   3.418   0.218 -1.6553 -1.5385  0.8947
   99MOL    H3333549   7.787   3.364   0.271 -0.1852 -1.2436  0.4648
   99MOL    H3433550   7.530   3.249   0.361  1.3857 -1.9924 -1.5644
   99MOL    H3533551   7.693   3.208   0.399 -1.6778 -1.0102 -3.1663
   99MOL    C3633552   7.539   3.619   0.710  0.5486 -0.1851  1.4597
   99MOL    C3733553   7.433   3.701   0.623 -0.3502 -0.0248 -0.6431
   99MOL    N3833554   7.294   3.648   0.640  0.1230 -0.2028 -0.1753
   99MOL    C3933555   7.216   3.576   0.542  0.0726 -0.5829 -0.3403
   99MOL    C4033556   7.073   3.560   0.594 -0.0046 -0.1815  0.4404
   99MOL    C4133557   7.088   3.594   0.739 -0.5743  0.4165  0.2328
   99MOL    C4233558   7.235   3.628   0.761 -0.1594 -0.6114  1.0209
   99MOL    O4333559   7.282   3.638   0.871  0.1241 -0.0202  0.4030
   99MOL    H4433560   7.572   3.686   0.790  1.0119  1.9114 -0.4145
   99MOL    H4533561   7.497   3.529   0.754 -0.2146  0.3527  1.8421
   99MOL    H4633562   7.455   3.668   0.522 -0.9705  0.0945 -0.8199
   99MOL    H4733563   7.214   3.634   0.449  0.1181  0.6931  0.4507
   99MOL    H4833564   7.263   3.483   0.510 -1.2292 -0.8073 -1.7163
   99MOL    H4933565   7.008   3.624   0.534 -0.0045 -1.0020 -0.4539
   99MOL    H5033566   7.042   3.457   0.582  1.3874 -0.5403 -0.2204
   99MOL    H5133567   7.031   3.685   0.755 -1.5417  0.1295 -1.4952
   99MOL    H5233568   7.066   3.513   0.809  0.1347 -0.4892 -0.5826
   99MOL    C5333569   7.445   3.857   0.618  0.9893 -0.2985 -0.3480
   99MOL    C5433570   7.358   3.947   0.711 -0.5048 -0.9558  1.0293
   99MOL    N5533571   7.396   3.943   0.854 -0.2107 -0.1626  0.1548
   99MOL    C5633572   7.290   3.958   0.961 -0.3734  0.2943  0.4275
   99MOL    C5733573   7.361   3.960   1.098 -0.6518  0.5351 -0.1951
   99MOL    C5833574   7.508   3.971   1.058  0.2128 -0.0675 -0.1570
   99MOL    C5933575   7.517   3.949   0.908  0.1500 -0.5221  0.3186
   99MOL    O6033576   7.631   3.938   0.856  0.6131 -0.0616 -0.1139
   99MOL    H6133577   7.425   3.889   0.515  0.6261 -2.0387 -0.8261
   99MOL    H6233578   7.549   3.889   0.628  0.3974  1.4814  0.4552
   99MOL    H6333579   7.256   3.909   0.704 -0.3476 -1.2147  0.1262
   99MOL    H6433580   7.230   4.046   0.939 -0.4754  0.1535  0.1278
   99MOL    H6533581   7.228   3.868   0.952  0.3933 -0.1983  0.0415
   99MOL    H6633582   7.327   4.047   1.155 -0.7085 -0.6863  1.6968
   99MOL    H6733583   7.355   3.869   1.158 -0.6501  0.9051  0.3668
   99MOL    H6833584   7.540   4.074   1.070 -1.2978  0.4264 -0.2528
   99MOL    H6933585   7.574   3.908   1.117  1.3717  0.9079 -0.4097
   99MOL    C7033586   7.354   4.098   0.674  0.0440  0.3058 -0.6077
   99MOL    C7133587   7.283   4.131   0.538 -0.8101 -0.1125  0.2750
   99MOL    N7233588   7.142   4.084   0.550  0.0042  0.3087 -0.3060
   99MOL    C7333589   7.093   3.980   0.458 -0.2442  0.3468  0.3142
   99MOL    C7433590   6.941   3.987   0.466  0.0131  0.0845  0.5638
   99MOL    C7533591   6.908   4.073   0.593  0.7942  0.5590  0.7929
   99MOL    C7633592   7.043   4.138   0.621  0.0166 -0.5406 -0.2279
   99MOL    O7733593   7.052   4.228   0.703 -0.0869  0.3291  0.5855
   99MOL    H7833594   7.457   4.134   0.683  0.0569 -0.0828  0.9701
   99MOL    H7933595   7.297   4.148   0.752  3.1570  0.3936  1.6944
   99MOL    H8033596   7.330   4.094   0.446  1.0666  1.1804  0.6895
   99MOL    H8133597   7.134   3.991   0.357  0.9118  1.2790  0.8806
   99MOL    H8233598   7.137   3.887   0.492  0.4260 -0.1470 -1.8315
   99MOL    H8333599   6.917   4.038   0.373  1.1523 -1.9502 -0.8811
   99MOL    H8433600   6.905   3.884   0.472 -1.3098  0.6676  3.7388
   99MOL    H8533601   6.840   4.154   0.568 -0.2518 -0.4481  0.3055
   99MOL    H8633602   6.865   4.011   0.672  1.4444  2.4860  2.7313
   99MOL    C8733603   7.300   4.293   0.521  0.1530  1.2128 -0.0554
   99MOL    C8833604   7.224   4.337   0.396 -0.4618 -0.4564 -0.2979
   99MOL    N8933605   7.166   4.464   0.414 -0.5818 -0.0077  0.5844
   99MOL    C9033606   7.024   4.478   0.443  0.1155  0.6746 -0.3602
   99MOL    C9133607   6.989   4.627   0.456  0.1649  0.6156  0.0299
   99MOL    C9233608   7.127   4.695   0.443 -0.1815 -0.3882 -0.0939
   99MOL    C9333609   7.222   4.584   0.416 -0.3333  0.2227 -0.6778
   99MOL    O9433610   7.335   4.602   0.379  0.6179 -0.0845  0.1112
   99MOL    H9533611   7.402   4.330   0.514 -0.4674  3.0378  0.2256
   99MOL    H9633612   7.248   4.335   0.608  0.2602  2.1622 -0.4465
   99MOL    H9733613   7.139   4.272   0.374  0.4841 -2.1311  0.8758
   99MOL    H9833614   6.952   4.441   0.370 -1.9006  2.5879  0.6192
   99MOL    H9933615   7.011   4.443   0.545 -1.7699  2.4420  0.0221
   99MOL   H10033616   6.936   4.669   0.371  2.5662  1.5534 -1.0305
   99MOL   H10133617   6.944   4.657   0.551 -1.2421 -0.9507 -0.1126
   99MOL   H10233618   7.128   4.751   0.350 -0.6663  0.3353  0.3318
   99MOL   H10333619   7.159   4.748   0.533 -1.1983  0.3194 -0.1389
   99MOL   C10433620   7.301   4.326   0.263 -0.4422  0.0719  0.0041
   99MOL   C10533621   7.224   4.380   0.138 -0.4640  0.3429 -0.1802
   99MOL   N10633622   7.312   4.387   0.018  0.4843 -0.3680 -0.4848
   99MOL   C10733623   7.328   4.517   7.855  0.2710 -0.0497 -0.4564
   99MOL   C10833624   7.426   4.490   7.740 -0.5117 -0.6364  0.2437
   99MOL   C10933625   7.424   4.339   7.719  0.1878  0.1800  0.0807
   99MOL   C11033626   7.358   4.290   7.846  0.2669 -0.4716 -0.2871
   99MOL   O11133627   7.353   4.175   7.870 -0.0413  0.5544  0.7549
   99MOL   H11233628   7.329   4.221   0.247 -0.7465  0.0538 -0.4337
   99MOL   H11333629   7.402   4.366   0.262 -0.0454 -0.9199 -1.8965
   99MOL   H11433630   7.201   4.479   0.176 -0.0753 -0.0347  1.0898
   99MOL   H11533631   7.225   4.528   7.821 -0.6316 -2.5076  1.2866
   99MOL   H11633632   7.358   4.594   0.019  3.0089 -1.9368  0.5031
   99MOL   H11733633   7.386   4.561   7.667 -3.3615 -1.3042  1.1274
   99MOL   H11833634   7.530   4.523   7.752 -0.2885 -1.2998  0.1414
   99MOL   H11933635   7.517   4.289   7.691  0.9002  1.0661  0.8494
   99MOL   H12033636   7.348   4.326   7.642 -0.2483  2.5182  0.0919
   99MOL   C12133637   7.087   4.304   0.107 -0.4870  0.3306 -0.0790
   99MOL   C12233638   6.989   4.374   0.016  0.3407 -0.2649 -0.2982
   99MOL   N12333639   6.885   4.280   7.880 -0.7597 -0.4516 -0.3488
   99MOL   C12433640   6.868   4.254   7.735  0.6734 -0.2062 -0.1399
   99MOL   C12533641   6.746   4.161   7.726  0.1597  0.0101  0.7125
   99MOL   C12633642   6.693   4.134   7.865 -0.4895  0.0305  0.0720
   99MOL   C12733643   6.790   4.222   0.045  0.6944 -0.0291  0.8500
   99MOL   O12833644   6.771   4.238   0.166 -0.2374  0.3942 -0.0517
   99MOL   H12933645   7.037   4.282   0.201 -1.0829  0.4174 -0.3756
   99MOL   H13033646   7.121   4.208   0.069  0.5930  1.7764 -2.9505
   99MOL   H13133647   7.052   4.395   7.835  1.1120  1.4091  0.6411
   99MOL   H13233648   6.956   4.203   7.696  2.0684  1.5474  0.6820
   99MOL   H13333649   6.855   4.343   7.673 -1.6576 -1.0941 -0.9997
   99MOL   H13433650   6.667   4.205   7.665  0.3158 -1.2235 -0.4168
   99MOL   H13533651   6.769   4.067   7.675 -0.2235  0.6568 -0.6682
   99MOL   H13633652   6.592   4.173   7.878 -0.2882  0.2614  1.0094
   99MOL   H13733653   6.703   4.032   7.901  1.3585  0.8656  2.0563
   99MOL   C13833654   6.939   4.509   0.079  0.3009  1.2643 -0.1993
   99MOL   C13933655   6.841   4.594   7.899 -1.1267  0.3662 -1.1817
   99MOL   N14033656   6.791   4.700   0.075 -0.4789 -0.2473 -0.2843
   99MOL   C14133657   6.645   4.700   0.099 -0.5656 -0.3539 -0.3394
   99MOL   C14233658   6.629   4.816   0.196  0.3277 -0.8362 -0.3305
   99MOL   C14333659   6.761   4.880   0.217 -0.3666  0.7145 -0.1209
   99MOL   C14433660   6.856   4.791   0.146  0.2690  0.1217 -0.0910
   99MOL   O14533661   6.975   4.821   0.136  0.0741  0.2712 -0.3296
   99MOL   H14633662   7.019   4.574   0.114  1.3372 -1.1696  2.0676
   99MOL   H14733663   6.888   4.487   0.172  0.3229  1.6478 -0.0964
   99MOL   H14833664   6.768   4.521   7.866  0.0614 -0.6188 -1.6780
   99MOL   H14933665   6.586   4.711   0.008 -2.1345 -1.1303  0.5552
   99MOL   H15033666   6.605   4.605   0.133  0.5315 -1.4293 -2.0210
   99MOL   H15133667   6.549   4.884   0.166  1.0624  0.4518  0.5447
   99MOL   H15233668   6.584   4.774   0.286 -1.9104  0.5889 -0.7536
   99MOL   H15333669   6.785   4.888   0.323 -1.1486 -0.3012  0.1422
   99MOL   H15433670   6.772   4.976   0.167  1.6867 -0.1438 -1.3921
   99MOL   C15533671   6.923   4.651   7.769 -0.1070  0.3240  0.2305
   99MOL   C15633672   6.837   4.748   7.689 -0.0838  0.2288 -0.1879
   99MOL   N15733673   6.909   4.875   7.657  0.2220  0.4750 -0.2961
   99MOL   C15833674   6.832   4.999   7.675  0.4121 -0.4802 -0.2660
   99MOL   C15933675   6.909   5.100   7.589 -0.4789 -0.8718  0.5731
   99MOL   C16033676   7.052   5.046   7.567  0.1715 -0.1479 -0.1509
   99MOL   C16133677   7.033   4.894   7.604 -0.4704  0.3852  0.1050
   99MOL   O16233678   7.113   4.800   7.584 -0.6574 -0.0303  0.1523
   99MOL   H16333679   6.954   4.567   7.706  1.3652  1.0920 -0.0765
   99MOL   H16433680   7.019   4.697   7.793 -0.2473  1.1109 -0.6911
   99MOL   H16533681   6.749   4.782   7.744 -0.3525 -0.5318 -0.1421
   99MOL   H16633682   6.730   4.982   7.641  0.3536  0.9179 -0.8260
   99MOL   H16733683   6.842   5.031   7.779 -0.0878 -1.4254  0.0746
   99MOL   H16833684   6.871   5.101   7.487  0.9837 -2.1955 -0.0036
   99MOL   H16933685   6.908   5.200   7.632  0.0686 -0.5868 -0.0669
   99MOL   H17033686   7.097   5.058   7.468 -0.3758  1.3059 -0.2264
   99MOL   H17133687   7.126   5.089   7.634  0.6414  0.0012 -0.7624
   99MOL   C17233688   6.790   4.696   7.549  0.4853  0.1746 -0.0634
   99MOL   C17333689   6.691   4.575   7.531 -0.8398 -0.0461  0.4275
   99MOL   N17433690   6.572   4.598   7.611 -0.2071  0.5469  0.1722
   99MOL   C17533691   6.498   4.482   7.659 -0.3858 -0.3669  0.0917
   99MOL   C17633692   6.378   4.547   7.741 -0.4064 -0.0304  0.3338
   99MOL   C17733693   6.378   4.696   7.707  0.0134  0.1139 -0.0743
   99MOL   C17833694   6.498   4.707   7.617  0.5212 -0.2374  0.5892
   99MOL   O17933695   6.517   4.814   7.557 -0.5310  0.5695 -0.2024
   99MOL   H18033696   6.881   4.661   7.500  1.3568  0.4654  1.3307
   99MOL   H18133697   6.748   4.777   7.490  0.1036  0.0524  0.0355
   99MOL   H18233698   6.741   4.490   7.578 -0.6010  0.7763  1.6926
   99MOL   H18333699   6.465   4.427   7.571 -1.4397 -1.0448  0.8974
   99MOL   H18433700   6.558   4.403   7.705  0.1679  0.7023  1.2587
   99MOL   H18533701   6.385   4.531   7.849  1.4376  1.5276  0.4744
   99MOL   H18633702   6.282   4.505   7.712 -0.3203 -0.1891  0.2778
   99MOL   H18733703   6.281   4.722   7.665 -0.1855 -1.0968 -0.3684
   99MOL   H18833704   6.400   4.747   7.801 -0.3906  0.7904 -0.3448
   99MOL   C18933705   6.660   4.548   7.385 -0.4449  0.0485  0.6745
   99MOL   C19033706   6.761   4.527   7.275  0.3035  0.5669  0.1151
   99MOL   N19133707   6.796   4.383   7.272  0.5515 -0.1118  0.0226
   99MOL   C19233708   6.716   4.292   7.196  0.3279  0.0673  0.5274
   99MOL   C19333709   6.753   4.149   7.242  0.0333  0.2078  0.4087
   99MOL   C19433710   6.873   4.165   7.329  0.2937 -0.0261  0.5073
   99MOL   C19533711   6.883   4.316   7.355 -0.1573  0.1403 -0.0116
   99MOL   O19633712   6.951   4.367   7.442  0.3693 -0.3940  0.2887
   99MOL   H19733713   6.587   4.626   7.361  0.1403  0.4950  0.3320
   99MOL   H19833714   6.598   4.460   7.374  0.7802 -0.9358  1.5866
   99MOL   H19933715   6.848   4.589   7.300  1.1301 -0.4608 -0.1912
   99MOL   H20033716   6.611   4.318   7.212 -0.0815 -2.5934  2.2703
   99MOL   H20133717   6.728   4.308   7.088  1.7769  2.1701  0.9650
   99MOL   H20233718   6.677   4.094   7.296 -0.6605  0.1213 -0.6438
   99MOL   H20333719   6.775   4.088   7.154 -0.7557  1.0403 -0.3715
   99MOL   H20433720   6.850   4.120   7.426 -0.9398 -0.4234  0.0458
   99MOL   H20533721   6.970   4.122   7.306 -0.6798 -2.9601  1.5096
   99MOL   C20633722   6.718   4.585   7.140  0.7872 -0.5915  0.5591
   99MOL   C20733723   6.700   4.744   7.128 -0.4539  0.7447 -0.3773
   99MOL   N20833724   6.819   4.799   7.066  0.0520 -0.1939  0.4590
   99MOL   C20933725   6.931   4.856   7.145  1.0854  0.3241 -0.2651
   99MOL   C21033726   7.035   4.908   7.045 -0.8503  0.5929  0.9012
   99MOL   C21133727   6.994   4.837   6.914  0.3193 -0.2903 -0.2007
   99MOL   C21233728   6.852   4.798   6.932  0.1893 -0.2879  0.0492
   99MOL   O21333729   6.786   4.769   6.834 -0.1250 -0.7838 -0.2639
   99MOL   H21433730   6.628   4.534   7.107  0.3141  0.5921 -0.0109
   99MOL   H21533731   6.792   4.551   7.068 -3.1248 -1.0827 -3.3964
   99MOL   H21633732   6.697   4.774   7.233  1.0044  4.9089 -1.4379
   99MOL   H21733733   6.898   4.929   7.219 -1.8502 -0.3720 -0.7956
   99MOL   H21833734   6.981   4.781   7.205  2.8823 -1.3492 -3.7256
   99MOL   H21933735   7.026   5.017   7.035 -0.3326  0.5375 -0.2793
   99MOL   H22033736   7.136   4.875   7.068 -1.1993 -0.2004  1.2952
   99MOL   H22133737   7.018   4.904   6.831 -0.0718  0.8388  0.5829
   99MOL   H22233738   7.046   4.741   6.908 -0.2440 -0.6782  0.9267
   99MOL   C22333739   6.565   4.783   7.061  0.2669  0.1698  1.0358
   99MOL   C22433740   6.546   4.938   7.058  0.0340  0.1289 -0.6343
   99MOL   N22533741   6.494   4.977   6.925  0.2619 -0.7313  0.0784
   99MOL   C22633742   6.587   5.016   6.818  0.4119  0.2625 -0.0302
   99MOL   C22733743   6.508   5.054   6.700 -0.5398 -0.1436 -0.5322
   99MOL   C22833744   6.363   5.025   6.736 -0.4991  0.7611  0.3762
   99MOL   C22933745   6.377   4.962   6.873  0.3075 -0.4556 -0.2133
   99MOL   O23033746   6.286   4.908   6.931 -0.0169  0.0149 -0.4418
   99MOL   H23133747   6.479   4.734   7.108 -1.1227  0.0584 -1.5553
   99MOL   H23233748   6.560   4.750   6.957 -0.8145 -1.4654  1.5763
   99MOL   H23333749   6.645   4.982   7.070  0.4378 -0.3919 -1.9357
   99MOL   H23433750   6.650   5.098   6.852  1.6448 -1.4150  1.8657
   99MOL   H23533751   6.645   4.934   6.774 -0.0635 -0.1179  0.0419
   99MOL   H23633752   6.521   5.157   6.666 -0.0374  0.1002  0.3712
   99MOL   H23733753   6.527   4.989   6.615 -0.8113  1.2599 -1.6853
   99MOL   H23833754   6.312   5.119   6.751 -0.8339  0.7374 -0.5965
   99MOL   H23933755   6.305   4.960   6.671 -1.6998 -0.1065  2.2655
   99MOL   C24033756   6.454   4.983   7.179  0.4258 -0.0235  0.5316
   99MOL   C24133757   6.410   5.130   7.193  0.2973 -0.3555  0.0419
   99MOL   N24233758   6.304   5.147   7.292  0.6798 -0.2225  0.4176
   99MOL   C24333759   6.289   5.055   7.407  0.2202 -0.2026 -0.5822
   99MOL   C24433760   6.180   5.119   7.495 -0.0952  0.0093  0.3549
   99MOL   C24533761   6.117   5.237   7.421  0.3565  0.6706  0.3087
   99MOL   C24633762   6.221   5.251   7.312  0.9045 -0.1927 -0.8674
   99MOL   O24733763   6.224   5.347   7.239 -0.0639  0.4557  0.0953
   99MOL   H24833764   6.505   4.958   7.272  1.5827  2.2323  0.5593
   99MOL   H24933765   6.362   4.925   7.183  0.6783 -0.7091 -2.2683
   99MOL   H25033766   6.370   5.156   7.095  0.8111  1.1396  0.2143
   99MOL   H25133767   6.254   4.959   7.368 -1.3311  1.1622 -2.6618
   99MOL   H25233768   6.379   5.048   7.468 -0.3857 -0.0427  0.3445
   99MOL   H25333769   6.107   5.055   7.543  1.0016 -1.5673 -0.0380
   99MOL   H25433770   6.233   5.168   7.577 -0.2780  0.3459  0.2719
   99MOL   H25533771   6.018   5.213   7.383  0.7243 -0.4082 -0.0109
   99MOL   H25633772   6.121   5.325   7.484 -0.8066 -0.8747  2.6285
   99MOL   C25733773   6.538   5.210   7.232 -0.5250  0.7238 -0.2164
   99MOL   C25833774   6.609   5.280   7.117 -0.1503 -0.3348 -0.2052
   99MOL   N25933775   6.513   5.389   7.071  0.2962 -0.4457 -0.0057
   99MOL   C26033776   6.437   5.377   6.947  0.0074 -0.0208 -0.5445
   99MOL   C26133777   6.377   5.505   6.924  0.1515 -1.0737 -0.1581
   99MOL   C26233778   6.390   5.590   7.052  0.3594 -0.0326 -0.3086
   99MOL   C26333779   6.483   5.503   7.141  0.2133 -0.2116  1.1195
   99MOL   O26433780   6.523   5.540   7.252 -0.3994 -0.2466 -0.0516
   99MOL   H26533781   6.617   5.146   7.271  0.4523  1.9192 -0.1923
   99MOL   H26633782   6.517   5.277   7.316  0.6041 -0.2678  0.8619
   99MOL   H26733783   6.623   5.209   7.035  1.6389 -0.9039  0.5769
   99MOL   H26833784   6.505   5.335   6.873  0.7611 -1.9177  1.1581
   99MOL   H26933785   6.364   5.296   6.952 -0.6901  0.4210 -3.0057
   99MOL   H27033786   6.428   5.550   6.840  2.1054  2.1745  2.6134
   99MOL   H27133787   6.269   5.494   6.911  0.0542  0.8279 -1.0579
   99MOL   H27233788   6.435   5.684   7.022  1.3108 -0.6912 -0.9769
   99MOL   H27333789   6.295   5.596   7.105  0.9173 -0.1989  0.7336
   99MOL   C27433790   6.753   5.335   7.159  0.5922 -0.2518 -0.0140
   99MOL   C27533791   6.811   5.456   7.088  0.6477  0.2693  0.2555
   99MOL   N27633792   6.933   5.501   7.152 -0.2057  0.2097  0.3692
   99MOL   C27733793   6.933   5.635   7.208 -0.0946 -0.4423  0.3088
   99MOL   C27833794   7.068   5.649   7.280 -0.0013  0.3381 -0.1330
   99MOL   C27933795   7.151   5.523   7.246  0.1539 -0.1758 -0.2128
   99MOL   C28033796   7.052   5.438   7.171  0.2497 -0.2311 -0.2207
   99MOL   O28133797   7.075   5.327   7.130 -0.2678 -0.0414  0.6935
   99MOL   H28233798   6.825   5.254   7.171  1.2571  0.9016  5.1515
   99MOL   H28333799   6.744   5.369   7.262 -1.1428 -2.1555  0.4873
   99MOL   H28433800   6.737   5.534   7.102  1.2522  0.7389  0.8278
   99MOL   H28533801   6.924   5.712   7.131 -0.8306  1.1374  1.9296
   99MOL   H28633802   6.847   5.655   7.273 -1.0368  1.2136 -1.3998
   99MOL   H28733803   7.110   5.749   7.267 -1.0377  0.9851  1.3477
   99MOL   H28833804   7.041   5.651   7.386  2.1088 -1.5999  0.4653
   99MOL   H28933805   7.227   5.543   7.171  1.2208 -0.3936  0.7898
   99MOL   H29033806   7.195   5.462   7.325  0.5415 -1.0196 -1.0704
   99MOL   C29133807   6.820   5.433   6.934  0.2588 -0.9397 -0.4729
   99MOL   C29233808   6.865   5.559   6.852 -0.4250 -0.3110  0.3695
   99MOL   N29333809   6.891   5.521   6.706  0.1499  0.4176  0.2372
   99MOL   C29433810   7.022   5.483   6.657 -0.5221  0.2307 -0.1637
   99MOL   C29533811   7.024   5.459   6.508 -0.7126  0.2819 -0.3958
   99MOL   C29633812   6.872   5.473   6.476  0.1353  0.1771  0.2762
   99MOL   C29733813   6.799   5.493   6.608 -0.7266 -0.3023 -0.3311
   99MOL   O29833814   6.677   5.486   6.626 -0.5378  0.1260 -0.5213
   99MOL   H29933815   6.720   5.406   6.901 -0.1249 -0.7413  0.5312
   99MOL   H30033816   6.894   5.356   6.911  2.3313  0.9757 -0.4280
   99MOL   H30133817   6.961   5.593   6.890 -0.3795 -0.4305  0.3642
   99MOL   H30233818   7.085   5.569   6.682 -1.2561  1.0570 -1.1196
   99MOL   H30333819   7.042   5.395   6.718 -2.7658  0.3933  0.8469
   99MOL   H30433820   7.086   5.530   6.454  0.1456 -0.9398 -1.0560
   99MOL   H30533821   7.063   5.360   6.485 -1.4332 -0.0827 -0.0658
   99MOL   H30633822   6.846   5.561   6.417  1.1489  0.0763 -0.3417
   99MOL   H30733823   6.829   5.385   6.430 -0.7958  0.1650  1.1589
   99MOL   C30833824   6.762   5.682   6.869  0.0042  0.2576  0.1519
   99MOL   C30933825   6.784   5.812   6.783  0.6381 -0.4539 -0.3339
   99MOL   N31033826   6.700   5.916   6.848 -0.1349  1.2895  0.1657
   99MOL   C31133827   6.576   5.957   6.790  0.9362  0.3057 -0.1881
   99MOL   C31233828   6.528   6.079   6.866  0.0550 -0.1562  0.1756
   99MOL   C31333829   6.631   6.104   6.979 -0.0687 -0.0273 -0.0602
   99MOL   C31433830   6.729   5.993   6.960  0.2644 -0.7987 -0.2774
   99MOL   O31533831   6.821   5.985   7.044 -0.0397 -0.1841 -0.1570
   99MOL   H31633832   6.761   5.704   6.975  0.4733  1.0348 -0.0050
   99MOL   H31733833   6.660   5.649   6.848 -0.1294 -0.5799  2.0483
   99MOL   H31833834   6.748   5.797   6.681  0.4219 -1.2539 -0.1434
   99MOL   H31933835   6.579   5.976   6.683 -3.2924  1.4083 -0.2017
   99MOL   H32033836   6.504   5.875   6.793  1.5135 -0.3291 -2.6576
   99MOL   H32133837   6.530   6.165   6.799  0.7698 -0.8920 -0.7645
   99MOL   H32233838   6.429   6.075   6.911  0.0246  1.4547  0.2691
   99MOL   H32333839   6.685   6.198   6.969  0.0349 -0.0306  0.4589
   99MOL   H32433840   6.587   6.102   7.079  4.0289 -0.8266  1.8235
   99MOL   C32533841   6.936   5.846   6.769 -0.1595 -0.1323 -0.1626
   99MOL   C32633842   6.961   5.993   6.721 -0.2853  0.0331  0.3397
   99MOL   N32733843   6.882   6.040   6.605 -0.5609  0.2093 -0.4953
   99MOL   C32833844   6.830   6.175   6.592  0.4204  0.1249  0.6056
   99MOL   C32933845   6.809   6.204   6.448  0.1809  0.0682 -0.0658
   99MOL   C33033846   6.826   6.072   6.380 -0.5272  0.7484 -0.2890
   99MOL   C33133847   6.886   5.979   6.486 -0.3774 -0.0349  0.4451
   99MOL   O33233848   6.916   5.862   6.465 -0.0659  0.2845  0.2160
   99MOL   H33333849   6.980   5.776   6.698 -1.9696  0.7831 -2.2290
   99MOL   H33433850   6.985   5.834   6.866  1.8747 -0.0031 -1.1585
   99MOL   H33533851   7.068   5.999   6.698 -0.4025  1.7956  0.1927
   99MOL   H33633852   6.730   6.175   6.635 -0.6155 -2.1397 -1.6739
   99MOL   H33733853   6.886   6.253   6.644  2.1796  1.7105 -3.4998
   99MOL   H33833854   6.707   6.239   6.428  0.9016  2.4556  0.1998
   99MOL   H33933855   6.874   6.284   6.413 -1.4718  0.8658 -1.4179
   99MOL   H34033856   6.726   6.036   6.357  0.4903 -0.5699 -2.8101
   99MOL   H34133857   6.885   6.074   6.288  0.3329 -0.2836  0.2323
   99MOL   H34233858   6.945   6.069   6.797 -0.1779  2.2938 -1.8401
  100MOL     C133859   4.491   1.086   1.642 -0.0093  0.3336 -0.4203
  100MOL     C233860   4.378   1.134   1.739  0.1361  0.5951  0.5292
  100MOL     N333861   4.391   1.053   1.866 -0.4408 -0.0536  0.2919
  100MOL     C433862   4.287   0.971   1.908  0.1895 -0.0052  0.8698
  100MOL     C533863   4.319   0.913   2.039  0.0662 -0.2804 -0.9374
  100MOL     C633864   4.473   0.925   2.041  0.5063  0.1528 -0.1899
  100MOL     C733865   4.491   1.048   1.950 -0.4158  0.6335 -0.7280
  100MOL     O833866   4.590   1.120   1.946 -0.4689  0.0662 -0.0957
  100MOL     H933867   4.583   1.141   1.660 -0.3682  1.6600 -2.3998
  100MOL    H1033868   4.521   0.982   1.649  0.0453  0.4016  0.3531
  100MOL    H1133869   4.289   1.092   1.692  1.5307 -1.4449 -0.3831
  100MOL    H1233870   4.192   1.022   1.917  0.1792 -0.2517  2.2313
  100MOL    H1333871   4.273   0.885   1.842 -0.2812  1.2911 -0.7448
  100MOL    H1433872   4.273   0.965   2.123  1.0580 -1.8745  0.6424
  100MOL    H1533873   4.292   0.807   2.041  0.1177 -0.2816  0.9330
  100MOL    H1633874   4.505   0.937   2.145 -0.2168  0.4830 -0.0041
  100MOL    H1733875   4.516   0.835   1.997 -1.6330 -1.6983  1.3618
  100MOL    H1833876   4.469   1.115   1.539  0.8844 -0.3170 -0.7938
  100MOL    C1933877   4.366   1.287   1.772  0.3680  0.3934  0.3552
  100MOL    C2033878   4.244   1.332   1.856 -0.1028  0.4709 -0.5009
  100MOL    N2133879   4.281   1.470   1.896 -0.5700 -0.2877 -0.6880
  100MOL    C2233880   4.357   1.483   2.018 -0.2772  0.0267  0.0429
  100MOL    C2333881   4.412   1.629   2.028  0.4177 -0.0717  0.5239
  100MOL    C2433882   4.324   1.694   1.917  0.1857 -0.5678 -0.9965
  100MOL    C2533883   4.276   1.585   1.828  0.0608 -0.3460  0.4296
  100MOL    O2633884   4.236   1.601   1.712  0.0072 -0.2622 -0.7542
  100MOL    H2733885   4.356   1.330   1.672  0.2718 -3.1800 -1.2765
  100MOL    H2833886   4.462   1.325   1.808  0.5898  1.3584 -1.2099
  100MOL    H2933887   4.242   1.273   1.947 -1.3110 -1.1440 -1.5434
  100MOL    H3033888   4.319   1.448   2.114 -0.3500  0.2556  0.0993
  100MOL    H3133889   4.442   1.415   2.012  1.7869  2.4686  0.6751
  100MOL    H3233890   4.403   1.671   2.128  0.8834  1.9539 -0.2545
  100MOL    H3333891   4.518   1.626   2.000  0.5338  0.3124  0.9163
  100MOL    H3433892   4.237   1.750   1.954  0.1396 -1.7462  0.7567
  100MOL    H3533893   4.378   1.759   1.849  0.3662 -1.4133 -1.6696
  100MOL    C3633894   4.108   1.315   1.785  0.2617 -1.0772 -0.4851
  100MOL    C3733895   3.979   1.383   1.843  0.5346 -0.7518  0.1271
  100MOL    N3833896   3.865   1.334   1.761  0.2676  0.1236  0.0957
  100MOL    C3933897   3.819   1.396   1.635  0.5488  0.3689  0.3096
  100MOL    C4033898   3.725   1.305   1.570 -0.7416  0.6245  0.2237
  100MOL    C4133899   3.727   1.175   1.661  0.3796 -0.0804 -0.5529
  100MOL    C4233900   3.809   1.211   1.773 -0.1831 -0.4457 -0.5752
  100MOL    O4333901   3.842   1.124   1.854  0.3324  0.0029  0.7021
  100MOL    H4433902   4.092   1.208   1.775 -0.0450 -1.1064  0.2790
  100MOL    H4533903   4.123   1.354   1.685 -2.6308  2.5364  0.3389
  100MOL    H4633904   3.995   1.490   1.838 -2.7405 -0.2373 -1.1283
  100MOL    H4733905   3.766   1.486   1.668 -0.3558 -0.0343 -0.0459
  100MOL    H4833906   3.902   1.425   1.571  0.0190 -0.1813 -0.6315
  100MOL    H4933907   3.627   1.351   1.557 -1.2899  0.3239  2.9406
  100MOL    H5033908   3.757   1.282   1.469  0.4794 -0.9131  0.9416
  100MOL    H5133909   3.630   1.144   1.701  0.4480 -0.0471 -0.3596
  100MOL    H5233910   3.769   1.100   1.594  1.6619 -0.5682  0.7762
  100MOL    C5333911   3.963   1.358   2.000  0.1831  0.4992 -0.6363
  100MOL    C5433912   3.831   1.408   2.075 -0.0853  0.3214  0.2120
  100MOL    N5533913   3.841   1.409   2.223 -0.2749 -0.0558 -0.3385
  100MOL    C5633914   3.727   1.356   2.301  0.1334 -0.0211 -0.4931
  100MOL    C5733915   3.768   1.362   2.445  0.0683  0.1091  0.0274
  100MOL    C5833916   3.919   1.400   2.446  0.1950 -0.4884 -0.0066
  100MOL    C5933917   3.949   1.440   2.299  0.6054  0.4788 -0.0436
  100MOL    O6033918   4.055   1.486   2.268  0.5592 -0.2492  0.0646
  100MOL    H6133919   4.040   1.422   2.044 -1.0863  0.4910  1.6797
  100MOL    H6233920   3.996   1.258   2.029  0.6340  0.3549 -1.6011
  100MOL    H6333921   3.761   1.328   2.052  0.3613 -0.0863  0.2713
  100MOL    H6433922   3.631   1.401   2.275 -1.3401 -3.1535 -0.7179
  100MOL    H6533923   3.731   1.252   2.271  2.4735 -0.4269  1.1130
  100MOL    H6633924   3.715   1.437   2.504  0.6770  0.7977 -0.2971
  100MOL    H6733925   3.742   1.263   2.484 -0.2703  0.6547  1.2110
  100MOL    H6833926   3.932   1.490   2.506 -0.1844 -0.3927 -0.0656
  100MOL    H6933927   3.980   1.323   2.492 -2.4636 -1.6816  1.6097
  100MOL    C7033928   3.783   1.550   2.028 -0.4382 -0.7721 -0.3846
  100MOL    C7133929   3.625   1.573   2.017  0.4778 -0.2058  0.1600
  100MOL    N7233930   3.595   1.717   2.004 -0.1376  0.2678 -0.1724
  100MOL    C7333931   3.568   1.786   2.125 -0.1828 -0.6559  0.1390
  100MOL    C7433932   3.557   1.936   2.084 -0.2578  0.2944  0.1767
  100MOL    C7533933   3.569   1.935   1.927 -0.1491 -0.1451 -0.4637
  100MOL    C7633934   3.609   1.795   1.893  0.5180  0.5356 -0.3865
  100MOL    O7733935   3.652   1.757   1.776 -0.0276  0.0667 -0.1506
  100MOL    H7833936   3.832   1.567   1.932 -0.3952 -0.3402 -0.2855
  100MOL    H7933937   3.822   1.627   2.095  0.1185 -1.4004  0.0234
  100MOL    H8033938   3.595   1.535   2.114  2.8545 -0.5857  0.7682
  100MOL    H8133939   3.483   1.752   2.184 -0.8842 -1.8212 -1.4721
  100MOL    H8233940   3.653   1.771   2.191 -0.2228 -0.4659  0.2336
  100MOL    H8333941   3.462   1.976   2.120 -0.2532  0.7746 -0.3434
  100MOL    H8433942   3.630   2.002   2.131 -1.5019  0.9150  1.3002
  100MOL    H8533943   3.473   1.967   1.884 -1.2998 -1.0461  1.3535
  100MOL    H8633944   3.646   2.006   1.896  0.3259 -0.6902 -0.5315
  100MOL    C8733945   3.558   1.489   1.906  0.1185  0.7873 -0.2989
  100MOL    C8833946   3.416   1.523   1.862 -0.8489 -0.6168  0.1100
  100MOL    N8933947   3.386   1.444   1.739 -0.1184  0.2536  0.2154
  100MOL    C9033948   3.394   1.512   1.606 -0.6021 -0.0470 -1.2292
  100MOL    C9133949   3.361   1.407   1.503 -0.2472  0.7711  0.2553
  100MOL    C9233950   3.341   1.268   1.576 -0.2558 -0.2969  1.0004
  100MOL    C9333951   3.360   1.313   1.730 -0.3565  0.6867 -0.0407
  100MOL    O9433952   3.353   1.234   1.819  0.1015  0.0933 -0.0522
  100MOL    H9533953   3.567   1.384   1.936  0.4358  1.4523  1.9900
  100MOL    H9633954   3.618   1.503   1.815  1.2987 -1.8713 -0.0049
  100MOL    H9733955   3.408   1.622   1.816 -0.2317 -0.3805  0.5130
  100MOL    H9833956   3.327   1.597   1.590 -0.0105  0.4578 -1.0251
  100MOL    H9933957   3.499   1.535   1.591 -0.2323 -0.9784 -0.1600
  100MOL   H10033958   3.268   1.437   1.455  0.0337  1.6837  0.2824
  100MOL   H10133959   3.435   1.393   1.423 -0.0566 -1.4409  0.7636
  100MOL   H10233960   3.245   1.223   1.551  0.2966 -0.8625 -0.1738
  100MOL   H10333961   3.429   1.207   1.555  2.0300  2.7132  1.4690
  100MOL   C10433962   3.306   1.516   1.973 -0.4344 -0.1181  0.3642
  100MOL   C10533963   3.153   1.550   1.936  0.1317 -0.4274  0.4746
  100MOL   N10633964   3.133   1.669   1.853 -0.0660  0.6433 -0.0122
  100MOL   C10733965   3.145   1.799   1.933  0.2265  0.3328 -0.2015
  100MOL   C10833966   3.111   1.907   1.829 -0.1177  0.2889  0.1975
  100MOL   C10933967   3.076   1.835   1.696  0.1615  0.7187 -0.0747
  100MOL   C11033968   3.090   1.689   1.723 -0.4431 -0.6921  0.5305
  100MOL   O11133969   3.067   1.601   1.640  0.3069  0.4494  0.3018
  100MOL   H11233970   3.331   1.579   2.059 -0.5139 -0.4185  0.6087
  100MOL   H11333971   3.313   1.417   2.018  0.9370 -0.1333  0.1462
  100MOL   H11433972   3.110   1.582   2.030  1.2182  0.7729  0.5784
  100MOL   H11533973   3.082   1.808   2.021 -0.0348 -0.3606 -0.3159
  100MOL   H11633974   3.246   1.809   1.974 -0.0980  0.1182  0.6580
  100MOL   H11733975   3.024   1.962   1.865 -0.7906  0.9009 -2.2097
  100MOL   H11833976   3.189   1.980   1.809  0.3180 -0.4681 -0.9414
  100MOL   H11933977   3.139   1.867   1.613 -0.4047 -1.1257 -1.2293
  100MOL   H12033978   2.972   1.855   1.669 -0.7186 -1.3351  1.7059
  100MOL   C12133979   3.076   1.433   1.883  0.0282  0.2461 -0.5033
  100MOL   C12233980   3.062   1.306   1.985 -0.2375 -0.7531  0.4261
  100MOL   N12333981   2.986   1.344   2.108  0.2661 -0.1032  0.2117
  100MOL   C12433982   3.061   1.394   2.226  0.6418  0.1861  0.8078
  100MOL   C12533983   2.967   1.494   2.286  0.3906  0.6086  0.2773
  100MOL   C12633984   2.826   1.460   2.237 -0.3069  0.5177 -0.2962
  100MOL   C12733985   2.858   1.389   2.110  0.0799  0.3145 -0.8401
  100MOL   O12833986   2.782   1.378   2.015 -0.4614  0.4505 -0.3692
  100MOL   H12933987   3.116   1.415   1.784  1.7196 -0.0291  0.2166
  100MOL   H13033988   2.968   1.452   1.879 -0.2897 -1.5359 -0.7850
  100MOL   H13133989   3.155   1.255   2.012  0.2487  0.8174  1.7571
  100MOL   H13233990   3.157   1.434   2.193  0.1018  1.0955  0.3072
  100MOL   H13333991   3.069   1.306   2.289 -2.9559 -0.6831  0.1672
  100MOL   H13433992   2.969   1.487   2.395  1.4224 -0.2834  0.1977
  100MOL   H13533993   2.990   1.597   2.260  0.0786  0.8116  0.7894
  100MOL   H13633994   2.762   1.395   2.297 -1.2881  0.8074 -1.0004
  100MOL   H13733995   2.768   1.552   2.220 -1.2733 -0.3611 -1.9688
  100MOL   C13833996   3.003   1.188   1.897  0.0863 -0.2350 -1.1309
  100MOL   C13933997   3.024   1.049   1.958  0.1512 -0.5406  0.4067
  100MOL   N14033998   2.951   1.037   2.088 -0.0289 -0.4907  0.2841
  100MOL   C14133999   2.811   1.028   2.108 -0.6986 -0.0081 -0.4076
  100MOL   C14234000   2.772   1.071   2.249 -0.1705  0.4024 -0.0699
  100MOL   C14334001   2.912   1.064   2.317 -0.3070 -0.2689  0.0242
  100MOL   C14434002   3.012   1.050   2.205 -0.6714  0.3629  0.3130
  100MOL   O14534003   3.133   1.063   2.222 -0.4230 -0.2747 -0.6979
  100MOL   H14634004   3.048   1.195   1.798 -0.3942  3.5755 -1.1320
  100MOL   H14734005   2.896   1.200   1.877  0.0058 -2.4338 -2.1696
  100MOL   H14834006   3.130   1.033   1.979  0.0165  0.0426  1.5859
  100MOL   H14934007   2.766   1.084   2.026 -0.2966 -2.7269 -2.5434
  100MOL   H15034008   2.792   0.926   2.075  0.7523 -0.1461 -0.8703
  100MOL   H15134009   2.737   1.173   2.266 -1.5266  0.3506 -2.3804
  100MOL   H15234010   2.703   0.998   2.291 -1.7511  0.7130 -2.0618
  100MOL   H15334011   2.924   0.970   2.371 -1.4002 -1.1018 -1.1612
  100MOL   H15434012   2.935   1.146   2.385 -1.9311  0.0604  0.2046
  100MOL   C15534013   2.983   0.929   1.864 -0.7200 -0.4218 -0.5804
  100MOL   C15634014   3.008   0.785   1.922  0.5566 -0.1342 -0.4575
  100MOL   N15734015   2.954   0.689   1.828  0.0674 -0.4041 -0.1897
  100MOL   C15834016   2.837   0.604   1.850  0.7302 -0.1561 -0.4753
  100MOL   C15934017   2.841   0.496   1.743  0.4868 -0.7370 -0.1485
  100MOL   C16034018   2.920   0.557   1.633  0.3219  0.2590  0.0943
  100MOL   C16134019   2.996   0.673   1.701  0.5010 -0.4220  0.0984
  100MOL   O16234020   3.091   0.737   1.650  0.0405 -0.4667 -0.5295
  100MOL   H16334021   3.038   0.949   1.772  2.1728  1.0024  1.4006
  100MOL   H16434022   2.876   0.946   1.851 -0.9417 -0.8380  0.6351
  100MOL   H16534023   2.948   0.773   2.012  0.6819  1.1252 -0.1973
  100MOL   H16634024   2.829   0.564   1.951 -3.1914  1.4137 -0.0612
  100MOL   H16734025   2.754   0.674   1.838  0.3223 -0.3053  1.2595
  100MOL   H16834026   2.893   0.415   1.792  1.6264  0.3137  0.4026
  100MOL   H16934027   2.737   0.478   1.714  1.1394 -1.0759 -2.3750
  100MOL   H17034028   3.001   0.497   1.592  0.1344  0.0841 -0.0207
  100MOL   H17134029   2.849   0.594   1.558  1.8161  1.2738 -0.8525
  100MOL   C17234030   3.161   0.753   1.949  1.1776  0.1399  0.3259
  100MOL   C17334031   3.203   0.731   2.103  0.0482 -1.0135 -0.0501
  100MOL   N17434032   3.111   0.639   2.165 -0.5330  0.3429  0.0036
  100MOL   C17534033   3.051   0.673   2.287 -0.2821  0.0669  0.6551
  100MOL   C17634034   2.962   0.550   2.329 -0.7879 -0.5051  0.8455
  100MOL   C17734035   2.964   0.458   2.203 -1.1237  0.2698 -0.3437
  100MOL   C17834036   3.077   0.515   2.122  0.0578 -0.3162  0.6273
  100MOL   O17934037   3.121   0.461   2.018  0.5815 -0.1521  0.1042
  100MOL   H18034038   3.219   0.825   1.892  1.0050  0.1586  0.1764
  100MOL   H18134039   3.184   0.663   1.891 -0.6840  0.4363 -0.9226
  100MOL   H18234040   3.198   0.817   2.170 -0.7554 -1.1454  0.0517
  100MOL   H18334041   3.126   0.703   2.361 -1.4377  2.2802  0.9849
  100MOL   H18434042   2.984   0.759   2.278 -0.2778  0.0706  0.6606
  100MOL   H18534043   2.864   0.568   2.371 -1.7289 -0.6079 -1.2099
  100MOL   H18634044   3.019   0.500   2.408  1.2652 -1.5194 -1.1866
  100MOL   H18734045   2.987   0.356   2.235 -0.2306  0.5152 -0.1996
  100MOL   H18834046   2.871   0.455   2.146 -1.4171  1.6333  0.0432
  100MOL   C18934047   3.348   0.671   2.123  0.0980  0.2793  0.0021
  100MOL   C19034048   3.474   0.751   2.064 -0.4482 -0.4167 -0.0800
  100MOL   N19134049   3.480   0.891   2.121 -0.1634 -0.2953 -0.3215
  100MOL   C19234050   3.500   1.009   2.044 -0.5158 -0.2021  0.2709
  100MOL   C19334051   3.480   1.130   2.139  0.0534 -1.3074  0.4517
  100MOL   C19434052   3.496   1.071   2.275 -0.2030 -1.1361 -0.7113
  100MOL   C19534053   3.478   0.924   2.256 -0.1670 -0.3495  0.0214
  100MOL   O19634054   3.474   0.839   2.348 -0.3647 -0.1481 -0.2702
  100MOL   H19734055   3.359   0.578   2.068 -2.8732 -0.8198  1.1369
  100MOL   H19834056   3.372   0.646   2.226  3.1979  1.0665 -0.4882
  100MOL   H19934057   3.464   0.779   1.959  0.0622 -0.9748 -0.2748
  100MOL   H20034058   3.600   1.018   2.002 -0.6255 -1.1407 -0.2106
  100MOL   H20134059   3.448   1.015   1.948 -1.4038  0.2593  0.7702
  100MOL   H20234060   3.556   1.203   2.111 -0.3522 -1.0232  0.0875
  100MOL   H20334061   3.382   1.167   2.111  1.7940  0.7927 -3.2520
  100MOL   H20434062   3.592   1.088   2.323 -2.1376  1.0059  2.6157
  100MOL   H20534063   3.428   1.118   2.347  0.4244  0.5968 -1.2494
  100MOL   C20634064   3.607   0.676   2.080  0.1960 -0.5584 -0.4620
  100MOL   C20734065   3.621   0.560   1.983  0.0538  0.7246 -0.1815
  100MOL   N20834066   3.634   0.605   1.845 -0.2649  0.1291 -0.4580
  100MOL   C20934067   3.514   0.597   1.760 -0.2663  0.6812 -0.1831
  100MOL   C21034068   3.541   0.714   1.651  0.1371  0.1438  0.2557
  100MOL   C21134069   3.690   0.748   1.673 -0.1292 -0.5549  0.3223
  100MOL   C21234070   3.737   0.683   1.802  0.1204 -0.1561 -0.0116
  100MOL   O21334071   3.841   0.709   1.869 -0.2217 -0.6802  0.3517
  100MOL   H21434072   3.607   0.652   2.186 -1.5300  4.1224  0.6829
  100MOL   H21534073   3.697   0.737   2.071  0.1225 -0.8261 -3.7404
  100MOL   H21634074   3.531   0.499   1.990 -0.5713  1.4833 -1.4179
  100MOL   H21734075   3.513   0.495   1.722  2.4847 -0.7916  3.3632
  100MOL   H21834076   3.424   0.611   1.819  0.6837  0.8811  1.2501
  100MOL   H21934077   3.519   0.673   1.552  0.7692 -1.7930  0.8807
  100MOL   H22034078   3.479   0.799   1.678 -0.6682 -0.1516 -0.6253
  100MOL   H22134079   3.742   0.701   1.590  0.4682  2.4455 -1.0478
  100MOL   H22234080   3.709   0.855   1.671  3.1066 -1.1013 -3.1826
  100MOL   C22334081   3.732   0.454   2.009 -0.4954 -0.4386  0.0572
  100MOL   C22434082   3.727   0.380   2.149  0.4526 -0.2737  0.1880
  100MOL   N22534083   3.599   0.318   2.180 -0.2804 -0.1319  0.0629
  100MOL   C22634084   3.518   0.367   2.290  0.7339  0.1862 -0.0973
  100MOL   C22734085   3.375   0.297   2.272 -0.4832 -0.1273 -0.3261
  100MOL   C22834086   3.391   0.204   2.151 -0.4948  0.0120 -0.6934
  100MOL   C22934087   3.530   0.229   2.104 -0.1302  0.0898  0.4360
  100MOL   O23034088   3.581   0.165   2.011 -0.6106  0.6069 -0.1070
  100MOL   H23134089   3.826   0.508   2.004 -0.1266 -0.9552  1.2648
  100MOL   H23234090   3.738   0.377   1.932 -0.4437  1.1403 -1.5563
  100MOL   H23334091   3.747   0.456   2.224  3.0188  0.2144 -0.8969
  100MOL   H23434092   3.562   0.330   2.382 -0.9638 -0.3809  0.4921
  100MOL   H23534093   3.507   0.475   2.300 -1.5191 -0.2102  2.3664
  100MOL   H23634094   3.352   0.245   2.365  0.1883 -2.6173 -1.5364
  100MOL   H23734095   3.289   0.362   2.256  0.4456  1.1538 -0.2328
  100MOL   H23834096   3.392   0.100   2.184  1.3219 -0.6893 -2.8436
  100MOL   H23934097   3.326   0.220   2.065  0.0447  2.0187 -0.7567
  100MOL   C24034098   3.837   0.271   2.145 -0.0989  0.6673  1.0859
  100MOL   C24134099   3.984   0.320   2.161  0.0552  0.1265 -0.0088
  100MOL   N24234100   4.019   0.323   2.304  0.1262 -0.1931 -0.4732
  100MOL   C24334101   4.075   0.450   2.351  0.6623 -0.3780 -0.2851
  100MOL   C24434102   4.112   0.422   2.500 -0.1022  0.0942  0.1748
  100MOL   C24534103   4.086   0.274   2.531 -0.9846 -0.2642 -0.6110
  100MOL   C24634104   4.019   0.223   2.400  0.3742 -0.6683  0.1752
  100MOL   O24734105   3.977   0.110   2.380 -0.2348 -0.1594  0.3164
  100MOL   H24834106   3.825   0.211   2.055  0.5256  0.3857  1.1870
  100MOL   H24934107   3.821   0.184   2.208 -1.2589 -0.3109 -0.5222
  100MOL   H25034108   3.986   0.421   2.119 -0.7554  0.1591  0.0378
  100MOL   H25134109   4.163   0.476   2.292 -0.0881  1.1164 -0.7605
  100MOL   H25234110   3.994   0.521   2.340  0.7899 -0.3938 -1.3210
  100MOL   H25334111   4.218   0.438   2.519  0.2566  0.1310 -1.7342
  100MOL   H25434112   4.047   0.481   2.564 -0.9408 -0.7656  0.1299
  100MOL   H25534113   4.180   0.223   2.554 -1.0790 -0.1546  0.0174
  100MOL   H25634114   4.026   0.263   2.620 -1.2214  1.5633 -0.5246
  100MOL   C25734115   4.076   0.220   2.088  0.0799  0.0344  0.2699
  100MOL   C25834116   4.085   0.245   1.934 -0.1447 -0.7452  0.9945
  100MOL   N25934117   4.120   0.389   1.894 -0.0494  1.2036  0.1577
  100MOL   C26034118   4.062   0.447   1.772  0.2497  0.2990  0.6834
  100MOL   C26134119   4.117   0.586   1.756  0.1421 -0.6265 -0.2373
  100MOL   C26234120   4.181   0.618   1.886  0.1265 -0.1873 -0.1045
  100MOL   C26334121   4.202   0.480   1.956 -0.3242  0.7846 -0.2373
  100MOL   O26434122   4.279   0.456   2.051  0.1721 -0.0631 -0.3600
  100MOL   H26534123   4.058   0.117   2.121  1.7346 -1.4684 -3.2361
  100MOL   H26634124   4.180   0.228   2.118  0.1058  1.9798 -0.3245
  100MOL   H26734125   3.987   0.230   1.891  0.3278  0.7614 -0.6800
  100MOL   H26834126   4.077   0.378   1.689  0.8532  1.5953 -0.3008
  100MOL   H26934127   3.954   0.455   1.787  0.0032 -0.2943 -0.6506
  100MOL   H27034128   4.190   0.601   1.677 -0.0443 -0.1992 -0.3348
  100MOL   H27134129   4.045   0.663   1.728  1.1834 -0.1041 -1.5479
  100MOL   H27234130   4.276   0.672   1.880 -0.1790  0.7089  2.5468
  100MOL   H27334131   4.119   0.676   1.955 -0.7579 -2.9107  1.4730
  100MOL   C27434132   4.182   0.147   1.862  0.0116 -0.0088 -0.3277
  100MOL   C27534133   4.164   7.904   1.887 -0.9169 -0.5437 -0.3146
  100MOL   N27634134   4.028   7.858   1.863  0.1949  0.3718 -0.7339
  100MOL   C27734135   3.953   7.788   1.962 -0.5923  0.5380  0.6537
  100MOL   C27834136   3.821   7.752   1.895  0.0473 -0.5973 -0.3932
  100MOL   C27934137   3.849   7.766   1.744 -0.7469  0.0503  0.0326
  100MOL   C28034138   3.964   7.857   1.748  0.5677  0.4039 -0.5322
  100MOL   O28134139   3.997   0.009   1.645 -0.1154  0.6317  0.0441
  100MOL   H28234140   4.285   0.180   1.877 -0.1502  0.1083  0.6152
  100MOL   H28334141   4.162   0.164   1.757 -2.2565 -1.6158 -0.1889
  100MOL   H28434142   4.168   7.896   1.995 -2.6247  0.2042 -0.1857
  100MOL   H28534143   4.008   7.697   1.986  1.8161  1.7806 -0.0292
  100MOL   H28634144   3.936   7.841   2.056  2.1961 -1.9436  2.6519
  100MOL   H28734145   3.774   7.659   1.927  2.0887 -1.3586  0.5067
  100MOL   H28834146   3.755   7.832   1.927 -0.8389 -1.3207 -0.3903
  100MOL   H28934147   3.893   7.668   1.722 -0.1700  0.1799  0.5910
  100MOL   H29034148   3.764   7.805   1.689 -1.3877  1.9203  2.2980
  100MOL   C29134149   4.265   7.817   1.803 -0.4275 -0.2673  0.1924
  100MOL   C29234150   4.263   7.669   1.827 -0.3016 -0.3724  0.9087
  100MOL   N29334151   4.231   7.584   1.710 -0.3319 -0.0989  0.2617
  100MOL   C29434152   4.141   7.466   1.735 -0.6810  0.5838  0.0389
  100MOL   C29534153   4.113   7.411   1.595  0.0366 -0.9119 -0.0454
  100MOL   C29634154   4.172   7.508   1.495 -0.9475 -0.1501  0.7841
  100MOL   C29734155   4.251   7.606   1.580 -0.2990 -0.1541 -0.8314
  100MOL   O29834156   4.330   7.678   1.523  0.4674 -0.1172 -0.1351
  100MOL   H29934157   4.368   7.851   1.812 -0.6479  0.5840 -0.4693
  100MOL   H30034158   4.260   7.847   1.698  0.7512 -0.0514  0.1863
  100MOL   H30134159   4.197   7.636   1.907 -0.4810  0.8833  1.2871
  100MOL   H30234160   4.196   7.397   1.799  0.8723  1.9847  0.2485
  100MOL   H30334161   4.053   7.500   1.790 -2.0485  0.4771 -2.0574
  100MOL   H30434162   4.162   7.314   1.594 -1.4171 -1.6453 -0.0890
  100MOL   H30534163   4.010   7.384   1.571  0.0583 -0.4891 -0.6327
  100MOL   H30634164   4.245   7.453   1.435  0.0851 -0.1128  1.9802
  100MOL   H30734165   4.102   7.571   1.441 -1.8495  0.5653  2.7333
  100MOL   C30834166   4.392   7.613   1.883 -0.0457 -0.0396 -0.1393
  100MOL   C30934167   4.426   7.651   2.029  0.4167 -0.2903  0.1514
  100MOL   N31034168   4.348   7.566   2.125 -0.2782 -0.4740 -0.2254
  100MOL   C31134169   4.222   7.618   2.187 -0.1800 -0.7236 -0.2052
  100MOL   C31234170   4.209   7.528   2.305 -0.2125  0.4511 -0.4050
  100MOL   C31334171   4.305   7.406   2.289 -0.1550  0.9657 -0.2269
  100MOL   C31434172   4.383   7.442   2.163 -0.4837  0.3524  0.2136
  100MOL   O31534173   4.474   7.371   2.113 -0.5693  0.7289  0.0844
  100MOL   H31634174   4.478   7.635   1.819 -1.0430  0.1832 -1.4285
  100MOL   H31734175   4.384   7.505   1.896 -1.8955 -0.0409 -1.1556
  100MOL   H31834176   4.396   7.752   2.058 -0.0431  0.4292 -2.6472
  100MOL   H31934177   4.240   7.722   2.213  0.1397 -0.8994  0.2820
  100MOL   H32034178   4.144   7.606   2.111 -0.1886 -1.0677 -0.1461
  100MOL   H32134179   4.235   7.585   2.394  0.1698 -0.4338  0.0489
  100MOL   H32234180   4.104   7.502   2.318 -0.1136  0.0343 -0.4482
  100MOL   H32334181   4.376   7.406   2.372  0.2262  0.3711 -0.5481
  100MOL   H32434182   4.250   7.313   2.276  2.1597 -0.5821  0.6581
  100MOL   C32534183   4.576   7.652   2.056 -0.0675  0.4604 -0.1217
  100MOL   C32634184   4.636   7.788   2.000  0.0681  0.4434  0.9977
  100MOL   N32734185   4.785   7.798   2.006  0.2119 -0.2177  0.0386
  100MOL   C32834186   4.876   7.794   1.887  0.1754  0.5480  0.1238
  100MOL   C32934187   5.014   7.837   1.950  0.4401 -0.0192 -0.1149
  100MOL   C33034188   4.991   7.821   2.103  0.0393  0.2720 -0.7067
  100MOL   C33134189   4.842   7.814   2.124  0.1060  0.1549 -0.1003
  100MOL   O33234190   4.783   7.804   2.232 -0.2392  0.1670 -0.0177
  100MOL   H33334191   4.627   7.562   2.021 -1.8435 -1.5356  2.2547
  100MOL   H33434192   4.603   7.654   2.161 -0.2146  2.5844 -0.1008
  100MOL   H33534193   4.586   7.863   2.062 -0.2049 -0.4313  1.8436
  100MOL   H33634194   4.876   7.692   1.848  0.0753 -0.5509  2.9014
  100MOL   H33734195   4.840   7.863   1.810 -0.1026 -1.0843 -1.2573
  100MOL   H33834196   5.096   7.769   1.928  1.7761  1.7687 -0.8676
  100MOL   H33934197   5.050   0.027   1.910 -2.5370  1.3887  0.4361
  100MOL   H34034198   5.030   7.726   2.139 -4.8498 -0.4923  3.0605
  100MOL   H34134199   5.040   7.905   2.153  1.7976 -0.2411 -1.5309
  100MOL   H34234200   4.601   7.787   1.897  0.8229  1.9656  0.7170
  101MOL     C134201   3.292   0.680   2.595  0.2635  0.5055  0.1939
  101MOL     C234202   3.395   0.641   2.710 -0.3583 -0.3020  0.5330
  101MOL     N334203   3.301   0.637   2.835  1.3267  0.6595 -0.6185
  101MOL     C434204   3.275   0.747   2.928  0.1689 -0.7501 -0.0501
  101MOL     C534205   3.154   0.709   3.009 -0.3914  0.6411  0.1677
  101MOL     C634206   3.139   0.560   2.989  0.1453  0.6731  0.3558
  101MOL     C734207   3.219   0.534   2.864 -0.5448  0.1608 -0.2694
  101MOL     O834208   3.211   0.426   2.805  0.1885  0.3557 -0.8022
  101MOL     H934209   3.350   0.697   2.504  1.2290  3.5136  1.3191
  101MOL    H1034210   3.215   0.604   2.579  0.5659  0.6592 -2.1918
  101MOL    H1134211   3.472   0.718   2.715 -0.0504 -0.2936 -3.3159
  101MOL    H1234212   3.361   0.770   2.990 -0.4449 -0.0474  0.5602
  101MOL    H1334213   3.250   0.842   2.880 -0.2344 -1.5537 -1.4716
  101MOL    H1434214   3.167   0.725   3.117  2.6986 -1.3620  0.1510
  101MOL    H1534215   3.062   0.764   2.990  0.9453  2.1921 -1.9511
  101MOL    H1634216   3.180   0.501   3.071  0.3309  0.1370 -0.1223
  101MOL    H1734217   3.032   0.541   2.981  0.2265 -0.7176  2.2678
  101MOL    H1834218   3.246   0.772   2.629  0.9034  0.2974  1.6300
  101MOL    C1934219   3.475   0.513   2.679  0.3511  0.3288  0.0750
  101MOL    C2034220   3.602   0.501   2.766  0.1237  0.3454  0.0703
  101MOL    N2134221   3.639   0.359   2.794 -0.1721  0.1118 -0.2556
  101MOL    C2234222   3.683   0.265   2.687 -0.0965  0.1136  0.0107
  101MOL    C2334223   3.736   0.143   2.766  0.6868  0.2694  0.1273
  101MOL    C2434224   3.668   0.151   2.902 -0.2346  0.3134 -0.3352
  101MOL    C2534225   3.627   0.297   2.913 -0.4614  0.3779  0.9444
  101MOL    O2634226   3.602   0.350   3.020 -0.0865 -0.1574 -0.3235
  101MOL    H2734227   3.506   0.513   2.574 -0.4173  0.2323 -0.1595
  101MOL    H2834228   3.417   0.421   2.685  1.1500 -0.1051  1.2167
  101MOL    H2934229   3.569   0.552   2.857 -0.1023  1.8046 -0.8052
  101MOL    H3034230   3.600   0.223   2.630  0.9202  0.2033 -1.5894
  101MOL    H3134231   3.763   0.304   2.624  0.6404 -0.7172  0.4259
  101MOL    H3234232   3.721   0.044   2.723 -0.1197  0.4056  0.0913
  101MOL    H3334233   3.843   0.157   2.777  0.9461 -0.1835 -1.7306
  101MOL    H3434234   3.585   0.082   2.912  0.4244 -0.2275  1.6244
  101MOL    H3534235   3.736   0.138   2.986 -0.6686  2.3815  0.3639
  101MOL    C3634236   3.723   0.585   2.716  0.0011 -0.2205  0.9622
  101MOL    C3734237   3.785   0.683   2.821  0.9191  0.0480  0.6098
  101MOL    N3834238   3.840   0.611   2.935  0.1069  0.2590  0.8272
  101MOL    C3934239   3.784   0.644   3.065  0.4256  0.0701  0.3538
  101MOL    C4034240   3.886   0.585   3.169  0.0621  0.2624 -0.1997
  101MOL    C4134241   3.987   0.506   3.078 -0.0062  0.5424 -0.9292
  101MOL    C4234242   3.946   0.531   2.935 -0.4229  0.5979  0.2699
  101MOL    O4334243   4.014   0.501   2.839  0.3443 -0.0140  0.1529
  101MOL    H4434244   3.681   0.649   2.638 -0.6164  1.8700  2.9412
  101MOL    H4534245   3.797   0.531   2.657 -0.9322 -0.5041  0.0422
  101MOL    H4634246   3.701   0.740   2.861  1.6276  0.7435  1.1330
  101MOL    H4734247   3.782   0.753   3.071  0.6729 -0.0104  2.0294
  101MOL    H4834248   3.688   0.594   3.073  1.3375 -1.6783  0.5184
  101MOL    H4934249   3.933   0.666   3.224 -0.1131  0.4854 -0.3815
  101MOL    H5034250   3.846   0.526   3.251  2.2273 -0.5438  0.3112
  101MOL    H5134251   4.090   0.536   3.095 -0.4649  2.1246 -0.8604
  101MOL    H5234252   3.978   0.398   3.081  0.3089  0.5585  1.0642
  101MOL    C5334253   3.891   0.786   2.760 -0.0825  0.5521  0.2619
  101MOL    C5434254   3.839   0.901   2.671 -0.3116  0.0882  0.0537
  101MOL    N5534255   3.709   0.951   2.719 -0.6632 -0.0008 -0.3779
  101MOL    C5634256   3.591   0.967   2.628 -0.8528 -0.0848  0.3602
  101MOL    C5734257   3.486   1.029   2.720  0.2654 -1.0092 -0.2461
  101MOL    C5834258   3.548   1.047   2.860  0.2647  0.4184  0.3066
  101MOL    C5934259   3.690   1.002   2.841 -0.4845 -0.0609 -0.0147
  101MOL    O6034260   3.767   1.010   2.933  0.0369 -0.3303 -0.2974
  101MOL    H6134261   3.983   0.744   2.719 -0.5366 -0.5816  0.3963
  101MOL    H6234262   3.937   0.831   2.848 -1.5203 -0.6495  1.6588
  101MOL    H6334263   3.815   0.849   2.578 -2.1002  0.2703  0.3788
  101MOL    H6434264   3.625   1.031   2.547 -0.5210 -1.9245 -0.9854
  101MOL    H6534265   3.564   0.873   2.580  1.7082 -1.2894  1.1931
  101MOL    H6634266   3.457   1.126   2.681  1.5404 -0.4641  0.1098
  101MOL    H6734267   3.402   0.961   2.706  1.5350 -2.2607 -2.0313
  101MOL    H6834268   3.545   1.154   2.882 -0.7503  0.0158  2.1620
  101MOL    H6934269   3.489   1.008   2.942  1.4361 -1.7431  0.1569
  101MOL    C7034270   3.939   1.021   2.674  0.6018 -0.4122 -0.3358
  101MOL    C7134271   4.075   1.001   2.600  0.1173  0.2721  0.9319
  101MOL    N7234272   4.044   0.964   2.462  0.0772  0.1308  0.2304
  101MOL    C7334273   3.972   1.055   2.381  0.2948 -0.5707  0.5844
  101MOL    C7434274   3.958   0.991   2.244  0.4867  0.1474 -0.9233
  101MOL    C7534275   4.017   0.848   2.256 -1.0954 -0.5567 -0.1734
  101MOL    C7634276   4.087   0.860   2.389  0.5945 -0.0004 -0.4373
  101MOL    O7734277   4.151   0.770   2.446 -0.7961  0.6040  0.4247
  101MOL    H7834278   3.962   1.036   2.780 -1.4951  1.1465 -0.0767
  101MOL    H7934279   3.891   1.113   2.642  0.1106  0.0400  1.6239
  101MOL    H8034280   4.125   0.915   2.644  1.0519 -0.3614 -1.3017
  101MOL    H8134281   3.873   1.067   2.424  0.0727  0.2243 -0.1373
  101MOL    H8234282   4.016   1.155   2.382 -1.3057  0.1553  1.8588
  101MOL    H8334283   3.859   0.991   2.198 -0.4920  0.8031  1.1006
  101MOL    H8434284   4.017   1.059   2.183 -0.3301  0.6947 -1.1056
  101MOL    H8534285   3.938   0.774   2.270 -2.0991  0.6309  0.6372
  101MOL    H8634286   4.078   0.822   2.170 -0.5831 -1.4409  0.4447
  101MOL    C8734287   4.176   1.113   2.618 -1.3273  0.1278  0.1946
  101MOL    C8834288   4.232   1.118   2.765  0.3336 -0.1890 -0.2930
  101MOL    N8934289   4.330   1.007   2.787  0.5182 -0.0862 -0.0149
  101MOL    C9034290   4.453   1.009   2.711 -0.6254  0.3580 -0.2968
  101MOL    C9134291   4.532   0.885   2.758 -0.2786  0.3513  0.2016
  101MOL    C9234292   4.435   0.805   2.857 -0.3681  0.0436  0.3410
  101MOL    C9334293   4.309   0.892   2.852 -0.5739  0.0707 -0.3672
  101MOL    O9434294   4.210   0.865   2.915  0.5424  0.3072  0.0753
  101MOL    H9534295   4.116   1.201   2.594  0.6309  1.5665  0.4178
  101MOL    H9634296   4.246   1.104   2.535 -2.0289 -1.2332 -0.2703
  101MOL    H9734297   4.155   1.095   2.839  0.7049  3.4356  1.3082
  101MOL    H9834298   4.423   0.994   2.607  0.9455 -3.0383 -0.3373
  101MOL    H9934299   4.519   1.095   2.713  0.8462 -0.7817  1.0968
  101MOL   H10034300   4.573   0.833   2.671 -0.4424  0.6478 -0.0554
  101MOL   H10134301   4.621   0.915   2.812  0.7041  0.1796 -1.3033
  101MOL   H10234302   4.404   0.712   2.810  1.4838 -1.1756  1.4915
  101MOL   H10334303   4.467   0.776   2.957 -2.2803 -1.1792  0.6252
  101MOL   C10434304   4.303   1.257   2.806 -0.6752 -0.8332 -0.1280
  101MOL   C10534305   4.207   1.383   2.803 -0.0117 -0.4941  1.2579
  101MOL   N10634306   4.095   1.361   2.897  0.1261 -0.2976  0.0586
  101MOL   C10734307   4.114   1.337   3.038 -0.1937  0.2190 -0.2160
  101MOL   C10834308   3.968   1.319   3.092  0.4994 -0.4861 -0.0013
  101MOL   C10934309   3.871   1.334   2.979  0.0539 -0.1539  0.1051
  101MOL   C11034310   3.964   1.362   2.858  0.1013  0.4257 -0.2359
  101MOL   O11134311   3.929   1.367   2.740 -0.0754 -0.0644  0.7968
  101MOL   H11234312   4.385   1.280   2.738  1.6436  0.0208  2.8695
  101MOL   H11334313   4.344   1.260   2.907  0.9952  2.1271 -0.8283
  101MOL   H11434314   4.174   1.405   2.702  2.1372 -0.1039  0.5996
  101MOL   H11534315   4.172   1.249   3.066 -0.7549 -0.4997 -1.2969
  101MOL   H11634316   4.152   1.427   3.088 -0.1477  0.6512 -1.0254
  101MOL   H11734317   3.964   1.222   3.142  2.1310 -0.8952 -0.6288
  101MOL   H11834318   3.946   1.394   3.169  0.9075 -0.0544 -0.3010
  101MOL   H11934319   3.811   1.422   3.004  2.9252  1.7619  0.4972
  101MOL   H12034320   3.814   1.241   2.973  1.0725 -0.6671 -1.9211
  101MOL   C12134321   4.272   1.519   2.851 -0.3529  0.0941  0.2161
  101MOL   C12234322   4.412   1.556   2.785  0.8914  0.1788 -0.6157
  101MOL   N12334323   4.417   1.531   2.643  0.7461 -0.2127 -0.5173
  101MOL   C12434324   4.538   1.476   2.586 -0.3014  0.2363 -0.3555
  101MOL   C12534325   4.511   1.457   2.438  0.1465  0.1455 -0.1289
  101MOL   C12634326   4.394   1.544   2.414 -0.4467 -0.6377  0.3978
  101MOL   C12734327   4.326   1.571   2.550 -0.2686 -0.0331  0.2809
  101MOL   O12834328   4.215   1.626   2.567  0.3641  0.2915  0.2639
  101MOL   H12934329   4.298   1.517   2.957  0.2492  0.7049  0.0837
  101MOL   H13034330   4.199   1.598   2.839  0.7171  1.3437  1.7268
  101MOL   H13134331   4.489   1.497   2.834 -2.5942 -0.9759  3.7540
  101MOL   H13234332   4.566   1.383   2.636  2.2196  1.8281  1.3214
  101MOL   H13334333   4.622   1.546   2.590 -0.3897  0.2700  1.7958
  101MOL   H13434334   4.597   1.491   2.381 -1.7043  1.7161 -2.0602
  101MOL   H13534335   4.500   1.351   2.419  0.0415  0.1334  0.0019
  101MOL   H13634336   4.430   1.637   2.371 -0.7965 -0.9285 -0.5437
  101MOL   H13734337   4.322   1.491   2.352  0.6524  0.1199 -1.6015
  101MOL   C13834338   4.462   1.699   2.808  0.4860  0.6563 -0.1252
  101MOL   C13934339   4.464   1.759   2.952 -0.1476  0.3012  0.1722
  101MOL   N14034340   4.550   1.678   3.035 -0.3343 -0.0211  0.3325
  101MOL   C14134341   4.495   1.618   3.157  0.1598 -0.4000  0.3139
  101MOL   C14234342   4.597   1.521   3.217  0.1271  0.1905  0.2617
  101MOL   C14334343   4.728   1.563   3.145  0.0823 -0.0187  0.1081
  101MOL   C14434344   4.685   1.658   3.034  0.2719  0.0402  0.5596
  101MOL   O14534345   4.761   1.712   2.950  0.2867  0.2691  0.7001
  101MOL   H14634346   4.410   1.769   2.743 -2.5123  0.8685  2.4312
  101MOL   H14734347   4.567   1.687   2.779  0.8597  2.5817  0.3395
  101MOL   H14834348   4.359   1.755   2.982 -0.2304  1.0355 -0.0115
  101MOL   H14934349   4.464   1.693   3.229 -0.4018 -1.7282  1.4831
  101MOL   H15034350   4.409   1.555   3.134 -0.5352  0.8566 -0.5664
  101MOL   H15134351   4.602   1.547   3.322 -1.4403  0.6977  0.2174
  101MOL   H15234352   4.578   1.415   3.199  2.3157  0.1060 -1.9011
  101MOL   H15334353   4.774   1.471   3.110  1.9602  0.2600  1.7784
  101MOL   H15434354   4.791   1.612   3.218  0.2584 -2.1101  1.3952
  101MOL   C15534355   4.509   1.904   2.947 -0.0080 -0.3533  0.6734
  101MOL   C15634356   4.430   1.997   2.850 -1.1690 -0.1336 -0.1890
  101MOL   N15734357   4.406   2.132   2.907  0.0307  0.7343 -0.1427
  101MOL   C15834358   4.276   2.181   2.934 -0.3323 -0.4176  0.2011
  101MOL   C15934359   4.298   2.313   3.014  0.5345 -0.0053 -0.6607
  101MOL   C16034360   4.450   2.331   3.023  0.6772  0.1396 -0.1839
  101MOL   C16134361   4.505   2.211   2.948 -0.8961  0.2844  0.5199
  101MOL   O16234362   4.625   2.184   2.944  0.0727  0.4128  0.0006
  101MOL   H16334363   4.618   1.915   2.940 -0.3417  3.1365  0.0883
  101MOL   H16434364   4.498   1.946   3.047 -1.4399 -3.1460  1.7379
  101MOL   H16534365   4.332   1.964   2.817 -0.3282  0.1029 -3.0800
  101MOL   H16634366   4.211   2.181   2.847  1.2801  0.3661 -1.0274
  101MOL   H16734367   4.240   2.100   2.998  1.0971  0.2127  1.8374
  101MOL   H16834368   4.264   2.405   2.968  0.3053  0.5679  0.6170
  101MOL   H16934369   4.258   2.303   3.116  0.2770 -0.4897 -0.8067
  101MOL   H17034370   4.480   2.428   2.984 -1.7717  0.4324 -1.4059
  101MOL   H17134371   4.480   2.326   3.128  2.6210 -0.9182 -0.7539
  101MOL   C17234372   4.518   2.007   2.716  0.1614 -0.1196 -0.4135
  101MOL   C17334373   4.449   2.066   2.590  0.0387  0.7325 -0.7820
  101MOL   N17434374   4.556   2.085   2.491  0.0691 -0.2005  0.5867
  101MOL   C17534375   4.589   2.220   2.442 -0.0293  0.2908  0.1716
  101MOL   C17634376   4.658   2.194   2.305  0.6663 -0.0619  0.8350
  101MOL   C17734377   4.704   2.048   2.306  0.1889  0.0571 -0.9521
  101MOL   C17834378   4.619   1.986   2.422  0.4985 -0.3739 -0.4106
  101MOL   O17934379   4.611   1.866   2.430  0.7361 -0.0120  0.2983
  101MOL   H18034380   4.574   1.916   2.695  0.2559  0.2620 -1.8737
  101MOL   H18134381   4.601   2.076   2.732  0.5168 -0.7444  0.4896
  101MOL   H18234382   4.412   2.162   2.628 -1.7169  0.3741 -1.5255
  101MOL   H18334383   4.503   2.286   2.431 -0.8565 -0.6280  1.0969
  101MOL   H18434384   4.664   2.266   2.506  0.4509  0.6113 -0.6065
  101MOL   H18534385   4.731   2.273   2.283  1.0150 -1.2839 -2.7068
  101MOL   H18634386   4.597   2.213   2.217  0.3542  1.3901  1.3432
  101MOL   H18734387   4.689   1.993   2.213 -2.2656 -0.0664 -0.5120
  101MOL   H18834388   4.812   2.041   2.322 -0.2358 -0.0953  2.2298
  101MOL   C18934389   4.320   1.985   2.545  0.2481  0.4070  0.0133
  101MOL   C19034390   4.258   2.041   2.407 -0.4096  0.6002 -0.1913
  101MOL   N19134391   4.152   1.954   2.347  0.6532 -0.0675 -0.4600
  101MOL   C19234392   4.184   1.865   2.240 -0.5348  0.6205  0.0082
  101MOL   C19334393   4.053   1.842   2.174  0.2325 -0.2166  0.2561
  101MOL   C19434394   3.940   1.875   2.276  0.5461  0.0306 -0.9536
  101MOL   C19534395   4.023   1.952   2.377 -0.1153 -0.2790 -0.0080
  101MOL   O19634396   3.974   2.011   2.469 -0.6221 -0.3235  0.2165
  101MOL   H19734397   4.246   2.015   2.620  0.0363  1.4472 -0.6048
  101MOL   H19834398   4.340   1.878   2.542  4.0610  1.0494  0.8030
  101MOL   H19934399   4.341   2.041   2.336  1.3209  0.9065  1.7978
  101MOL   H20034400   4.256   1.890   2.163 -2.2894 -3.3401 -3.0349
  101MOL   H20134401   4.210   1.770   2.285  0.2933  0.1969 -1.3518
  101MOL   H20234402   4.058   1.916   2.093 -0.3257 -0.7702 -0.2880
  101MOL   H20334403   4.040   1.739   2.143  3.0264 -0.7222  0.5990
  101MOL   H20434404   3.849   1.923   2.239 -0.0862  0.1126  0.6741
  101MOL   H20534405   3.903   1.783   2.322 -0.1378 -0.6824 -2.8702
  101MOL   C20634406   4.217   2.196   2.406  0.1636  0.3993 -0.3785
  101MOL   C20734407   4.183   2.245   2.261  0.9430 -0.4415 -0.0457
  101MOL   N20834408   4.162   2.394   2.262 -0.5942 -0.1176  0.2713
  101MOL   C20934409   4.031   2.448   2.232  0.4656  0.5529  0.0344
  101MOL   C21034410   4.061   2.599   2.219 -0.1133  0.1981  0.2206
  101MOL   C21134411   4.202   2.629   2.278  0.3901 -0.3857  0.2394
  101MOL   C21234412   4.249   2.490   2.303  0.2038  0.0467  0.0212
  101MOL   O21334413   4.361   2.471   2.350  0.3855 -0.4870 -0.6105
  101MOL   H21434414   4.305   2.252   2.437  0.6610  0.2848 -1.5423
  101MOL   H21534415   4.130   2.225   2.464  1.4605  0.2534  1.7087
  101MOL   H21634416   4.097   2.192   2.221  1.3443 -2.2412  1.4025
  101MOL   H21734417   3.978   2.404   2.147 -0.0568 -2.5127  1.8604
  101MOL   H21834418   3.957   2.432   2.310  0.9756 -0.3490  0.3471
  101MOL   H21934419   4.044   2.641   2.120  1.1729 -0.9266 -0.4991
  101MOL   H22034420   3.990   2.652   2.282  0.0802  0.9320 -0.1775
  101MOL   H22134421   4.275   2.668   2.208  0.0681 -0.6709 -0.2592
  101MOL   H22234422   4.209   2.672   2.378 -0.2322 -0.8791  0.4997
  101MOL   C22334423   4.289   2.215   2.162 -0.0235 -0.3845 -0.4592
  101MOL   C22434424   4.276   2.259   2.020 -0.9768 -0.0973 -0.4338
  101MOL   N22534425   4.407   2.247   1.959 -0.3272 -0.2833 -0.2456
  101MOL   C22634426   4.503   2.359   1.973  0.1657 -0.8117 -0.2472
  101MOL   C22734427   4.635   2.318   1.904 -1.3187  0.2703 -0.1019
  101MOL   C22834428   4.619   2.164   1.883 -0.0727  0.2893 -0.5506
  101MOL   C22934429   4.471   2.137   1.920 -1.0169  0.2195  0.4780
  101MOL   O23034430   4.423   2.024   1.917 -0.1548 -0.1074 -0.0707
  101MOL   H23134431   4.301   2.108   2.143 -1.0304 -0.2989 -1.6352
  101MOL   H23234432   4.384   2.256   2.195 -0.5440  0.5274 -0.0958
  101MOL   H23334433   4.239   2.361   2.015  0.2061  0.4708  1.9250
  101MOL   H23434434   4.462   2.448   1.924 -0.9586 -0.2826  1.6188
  101MOL   H23534435   4.526   2.385   2.076 -1.7140 -1.4426  0.3452
  101MOL   H23634436   4.658   2.362   1.806  1.4666  0.5868  0.6426
  101MOL   H23734437   4.723   2.352   1.958  0.4612 -1.8175 -1.5552
  101MOL   H23834438   4.639   2.135   1.781 -0.7086  0.7239 -0.8042
  101MOL   H23934439   4.689   2.106   1.943  0.1428  0.0850 -0.9987
  101MOL   C24034440   4.168   2.172   1.948 -0.5195  0.2246  0.6970
  101MOL   C24134441   4.129   2.209   1.796  0.4069  0.1699  0.7456
  101MOL   N24234442   4.042   2.104   1.734  0.2985 -0.6270  0.2619
  101MOL   C24334443   4.092   2.008   1.635 -0.1175 -0.3033 -0.4576
  101MOL   C24434444   3.969   1.947   1.567 -0.2104 -0.8559 -0.6473
  101MOL   C24534445   3.853   1.992   1.655 -0.3942  0.0569 -0.5900
  101MOL   C24634446   3.909   2.094   1.749 -0.0672 -0.1212  0.0674
  101MOL   O24734447   3.837   2.167   1.816  0.4883  0.3928 -0.1881
  101MOL   H24834448   4.076   2.189   2.003 -2.2628  0.9322 -2.3354
  101MOL   H24934449   4.184   2.065   1.962  0.5395  0.4532  1.3296
  101MOL   H25034450   4.223   2.207   1.741 -0.6380 -1.0977 -1.0391
  101MOL   H25134451   4.167   2.061   1.576 -0.0493 -0.5985 -0.6398
  101MOL   H25234452   4.141   1.921   1.679  0.8759  0.9453  0.9613
  101MOL   H25334453   3.955   1.994   1.470  0.9696 -0.2959 -0.5479
  101MOL   H25434454   3.975   1.838   1.565  2.0542 -0.7481 -0.6682
  101MOL   H25534455   3.760   2.015   1.604 -1.6265 -1.8790  0.6985
  101MOL   H25634456   3.817   1.915   1.724 -1.1222  0.2776 -0.7225
  101MOL   C25734457   4.068   2.358   1.788  1.0389  0.6107  0.1070
  101MOL   C25834458   4.166   2.458   1.761 -0.2508 -0.3062  0.1912
  101MOL   N25934459   4.231   2.421   1.633  0.4802 -0.1462 -0.1058
  101MOL   C26034460   4.374   2.398   1.640  0.0139 -0.0230 -0.0062
  101MOL   C26134461   4.426   2.361   1.504 -0.2455  0.0003 -0.1695
  101MOL   C26234462   4.298   2.390   1.414  0.3366  0.0382 -0.7451
  101MOL   C26334463   4.185   2.434   1.503 -0.1267 -0.2603  0.1349
  101MOL   O26434464   4.077   2.480   1.466 -0.2034  0.0642  0.2081
  101MOL   H26534465   4.024   2.393   1.880  0.1249 -0.0442 -0.0769
  101MOL   H26634466   3.986   2.360   1.717 -0.6394  1.6992  2.0462
  101MOL   H26734467   4.238   2.464   1.842  1.6390 -0.2942 -1.4449
  101MOL   H26834468   4.419   2.493   1.668 -1.0352 -0.2396  2.5621
  101MOL   H26934469   4.402   2.326   1.717 -0.5248  0.5028  0.6895
  101MOL   H27034470   4.512   2.422   1.476 -0.0120  0.1642  0.9071
  101MOL   H27134471   4.459   2.257   1.497 -0.6860 -0.3629  2.7559
  101MOL   H27234472   4.318   2.474   1.347  0.1139 -0.2674 -1.1925
  101MOL   H27334473   4.258   2.302   1.365 -1.0754  1.0841 -1.4937
  101MOL   C27434474   4.107   2.599   1.759  0.0412  0.3487  0.8371
  101MOL   C27534475   4.214   2.709   1.751 -0.0116  0.7080  0.0300
  101MOL   N27634476   4.159   2.834   1.701  0.0965 -0.2262  0.5535
  101MOL   C27734477   4.162   2.843   1.555  0.3453  0.3336  0.0532
  101MOL   C27834478   4.077   2.966   1.524 -0.4555  0.4417  0.2980
  101MOL   C27934479   3.999   3.011   1.649  0.3692  0.0642 -0.0659
  101MOL   C28034480   4.066   2.921   1.754 -0.2632  0.0544 -0.1301
  101MOL   O28134481   4.038   2.932   1.876 -0.5299 -0.5809  0.4579
  101MOL   H28234482   4.047   2.617   1.848  0.4925 -3.7768  2.0965
  101MOL   H28334483   4.031   2.611   1.681 -0.2954 -0.6003  1.0061
  101MOL   H28434484   4.283   2.678   1.673 -2.0350 -1.1375 -1.0921
  101MOL   H28534485   4.264   2.862   1.522  0.2107  0.9284 -0.0378
  101MOL   H28634486   4.128   2.746   1.519 -0.6023  0.3832  0.8170
  101MOL   H28734487   4.127   3.054   1.482 -2.1865  1.4902  0.3862
  101MOL   H28834488   4.010   2.941   1.441  0.7419 -1.8413 -0.0325
  101MOL   H28934489   4.015   3.116   1.674 -0.3769 -0.5435  3.2104
  101MOL   H29034490   3.895   2.980   1.635  0.1971  0.3473  0.5418
  101MOL   C29134491   4.287   2.736   1.884  0.0268 -0.6551 -0.1595
  101MOL   C29234492   4.410   2.830   1.882  0.3398  0.4219  0.6890
  101MOL   N29334493   4.453   2.849   2.021  0.0944 -0.2257  0.0672
  101MOL   C29434494   4.389   2.947   2.109 -0.1298 -0.2291  0.3305
  101MOL   C29534495   4.422   2.916   2.252 -0.3128  0.4543 -0.2948
  101MOL   C29634496   4.528   2.807   2.243  0.5118  0.2187  0.2318
  101MOL   C29734497   4.526   2.764   2.095 -0.1780  0.1552  0.1518
  101MOL   O29834498   4.570   2.654   2.054  0.2496  0.2167 -0.9934
  101MOL   H29934499   4.318   2.641   1.929 -0.0075 -1.2118 -1.3001
  101MOL   H30034500   4.216   2.790   1.946 -0.4748 -0.4434 -0.9203
  101MOL   H30134501   4.372   2.929   1.856  0.8747  1.0513  2.2420
  101MOL   H30234502   4.431   3.046   2.089 -0.9216  0.6467  2.7133
  101MOL   H30334503   4.282   2.947   2.090  0.0870 -3.2677 -1.1988
  101MOL   H30434504   4.443   2.999   2.319 -0.4908  0.8097 -0.6773
  101MOL   H30534505   4.329   2.868   2.285 -0.6423  0.9345 -0.5331
  101MOL   H30634506   4.627   2.847   2.264 -0.0569  1.2113  1.0462
  101MOL   H30734507   4.510   2.715   2.300  2.3944 -0.5537 -0.3689
  101MOL   C30834508   4.523   2.790   1.779  0.0088 -0.3353 -0.6450
  101MOL   C30934509   4.651   2.874   1.772 -0.0268 -0.1500 -0.7127
  101MOL   N31034510   4.775   2.787   1.787 -0.2679 -0.2147 -0.2726
  101MOL   C31134511   4.857   2.822   1.902  0.1336  0.1279 -0.0844
  101MOL   C31234512   4.925   2.691   1.941  0.5618  0.3972  0.0505
  101MOL   C31334513   4.912   2.597   1.815 -0.4242  0.1831  0.1489
  101MOL   C31434514   4.796   2.662   1.741  0.0727 -0.2923  0.2503
  101MOL   O31534515   4.738   2.604   1.651 -0.8517 -0.0427  0.1193
  101MOL   H31634516   4.478   2.790   1.679 -0.2202  1.2995 -0.5451
  101MOL   H31734517   4.544   2.686   1.804  0.5473  0.2946  1.5976
  101MOL   H31834518   4.655   2.941   1.858  2.6329 -2.4029  1.0140
  101MOL   H31934519   4.940   2.887   1.874 -0.3496 -0.1186 -2.1419
  101MOL   H32034520   4.809   2.866   1.989  0.9030  1.5409 -0.3699
  101MOL   H32134521   5.028   2.707   1.973  0.4621 -3.0060  2.3903
  101MOL   H32234522   4.871   2.638   2.019  0.2733 -0.8263 -0.9611
  101MOL   H32334523   5.007   2.594   1.761 -1.7951  3.1807 -2.6114
  101MOL   H32434524   4.897   2.496   1.851  2.5180 -0.1808  0.5021
  101MOL   C32534525   4.663   2.954   1.637 -0.6186 -0.4813  0.1683
  101MOL   C32634526   4.546   3.056   1.607 -0.0367  0.3454  0.1950
  101MOL   N32734527   4.537   3.129   1.477 -0.7824  0.0066  0.1085
  101MOL   C32834528   4.419   3.208   1.450 -0.3795  0.0969 -0.2574
  101MOL   C32934529   4.433   3.268   1.307  0.4726  0.7114 -0.6511
  101MOL   C33034530   4.578   3.238   1.264  0.5012  0.0483  0.0804
  101MOL   C33134531   4.628   3.148   1.377  0.1429 -0.4049 -0.7183
  101MOL   O33234532   4.744   3.108   1.375 -0.2619 -0.2443 -0.2854
  101MOL   H33334533   4.678   2.878   1.561 -2.2130  0.7475 -1.4093
  101MOL   H33434534   4.760   3.004   1.641 -1.8899  2.0377  0.1018
  101MOL   H33534535   4.553   3.135   1.681  0.0956  0.0399  0.5066
  101MOL   H33634536   4.322   3.158   1.453  0.5681 -1.6779  3.5049
  101MOL   H33734537   4.410   3.280   1.532  0.6831  0.1589 -0.1961
  101MOL   H33834538   4.362   3.239   1.230  0.7820  0.5280 -0.8650
  101MOL   H33934539   4.420   3.373   1.332 -1.4956  0.1163  1.0515
  101MOL   H34034540   4.588   3.182   1.171  1.6404  0.5941 -0.1394
  101MOL   H34134541   4.645   3.324   1.254 -0.2587  0.7753  1.1806
  101MOL   H34234542   4.450   3.005   1.613  1.6088 -2.8205  0.8902
  102MOL     C134543   5.296   5.813   7.790 -0.5258  0.6084 -0.1627
  102MOL     C234544   5.379   5.907   7.704 -0.0146  0.0693 -1.0674
  102MOL     N334545   5.306   5.949   7.584 -0.2077  0.2744 -0.6582
  102MOL     C434546   5.335   5.888   7.453  0.1859  0.0222  0.4289
  102MOL     C534547   5.243   5.957   7.355  0.9783  0.3680 -0.0289
  102MOL     C634548   5.138   6.042   7.440 -0.1796  0.1176  0.0585
  102MOL     C734549   5.198   6.034   7.577  0.0946  0.2543  0.0228
  102MOL     O834550   5.160   6.096   7.675  0.3363 -0.3408 -0.0613
  102MOL     H934551   5.274   5.716   7.746  0.6409  1.0259 -1.7273
  102MOL    H1034552   5.343   5.797   7.887 -0.3274 -1.4239 -0.5725
  102MOL    H1134553   5.467   5.849   7.676  0.0006 -0.0384 -0.8011
  102MOL    H1234554   5.441   5.909   7.439  0.5925 -0.4367  2.5918
  102MOL    H1334555   5.323   5.782   7.477  1.3656 -0.0917  0.5741
  102MOL    H1434556   5.299   6.025   7.291 -1.2655 -0.3982 -2.9015
  102MOL    H1534557   5.189   5.885   7.293 -0.9759 -0.7468  2.8499
  102MOL    H1634558   5.128   6.146   7.410  1.1006  0.8938  2.2318
  102MOL    H1734559   5.039   5.995   7.431 -0.3987  1.3227 -5.4752
  102MOL    H1834560   5.207   5.871   7.812 -1.0874 -0.0065 -0.7691
  102MOL    C1934561   5.427   6.027   7.789 -0.2115  0.1836  0.2534
  102MOL    C2034562   5.571   6.017   7.850  0.3215  0.3579  0.0037
  102MOL    N2134563   5.669   5.987   7.746  0.2995  0.9006  0.3506
  102MOL    C2234564   5.776   5.893   7.773 -0.7818 -0.3375 -0.0051
  102MOL    C2334565   5.879   5.909   7.664  0.2130 -1.0243  0.0251
  102MOL    C2434566   5.816   5.997   7.562  0.8966 -0.3114 -0.1239
  102MOL    C2534567   5.707   6.058   7.641  0.3589  0.1169  0.3464
  102MOL    O2634568   5.644   6.158   7.603  0.2476  0.0407  0.4709
  102MOL    H2734569   5.354   6.051   7.866  1.0590  0.9511  1.2338
  102MOL    H2834570   5.437   6.115   7.726  0.3149  0.1739  0.3200
  102MOL    H2934571   5.552   5.939   0.018  0.4805  2.5164  2.3924
  102MOL    H3034572   5.815   5.906   7.874 -0.8553  1.1801 -0.1583
  102MOL    H3134573   5.730   5.795   7.784  0.2142 -0.8119 -0.0055
  102MOL    H3234574   5.971   5.954   7.700  0.1130 -0.3316 -0.5745
  102MOL    H3334575   5.911   5.810   7.632  1.8510 -0.5098  0.0129
  102MOL    H3434576   5.889   6.071   7.528  2.5465 -0.9717  1.8979
  102MOL    H3534577   5.790   5.948   7.468  2.0571 -2.3109  0.5666
  102MOL    C3634578   5.606   6.149   0.013 -0.3631  0.2778 -0.8961
  102MOL    C3734579   5.544   6.171   0.155 -0.4702 -0.4586 -0.3928
  102MOL    N3834580   5.622   6.121   0.265 -0.2469 -0.0366  0.7731
  102MOL    C3934581   5.559   6.020   0.345  0.3333  0.4061 -0.3478
  102MOL    C4034582   5.664   5.981   0.446 -0.4631 -0.1761 -0.7453
  102MOL    C4134583   5.779   6.086   0.438  0.1313  0.4484  0.2381
  102MOL    C4234584   5.739   6.165   0.310 -0.2599 -0.4813 -0.1820
  102MOL    O4334585   5.805   6.257   0.261  0.1582  0.2677  0.1079
  102MOL    H4434586   5.587   6.234   7.854  1.3091  0.2612 -1.4275
  102MOL    H4534587   5.713   6.137   0.027 -0.5013 -0.0050 -0.0308
  102MOL    H4634588   5.453   6.110   0.152  0.2782 -1.5505 -1.0030
  102MOL    H4734589   5.471   6.064   0.390  1.0978  1.8535 -0.2205
  102MOL    H4834590   5.536   5.935   0.281 -1.0268  1.4963 -1.3181
  102MOL    H4934591   5.619   5.977   0.545  0.6007 -0.6871 -0.2761
  102MOL    H5034592   5.705   5.885   0.414  0.8652  0.3253 -0.5826
  102MOL    H5134593   5.782   6.156   0.521  0.6671 -0.8708  1.3350
  102MOL    H5234594   5.874   6.032   0.440 -0.3513 -0.3769  2.0316
  102MOL    C5334595   5.490   6.316   0.185  0.2836 -0.5190 -0.4246
  102MOL    C5434596   5.372   6.362   0.097 -0.1517  0.1496 -0.0290
  102MOL    N5534597   5.240   6.321   0.152 -0.6120  0.1127 -0.6547
  102MOL    C5634598   5.147   6.240   0.072  0.3326 -0.4627 -0.2161
  102MOL    C5734599   5.014   6.256   0.141  0.1502 -0.3129  0.0327
  102MOL    C5834600   5.052   6.291   0.285 -0.1528 -0.1736  0.0574
  102MOL    C5934601   5.191   6.339   0.275  0.1015  0.1903  0.1411
  102MOL    O6034602   5.255   6.393   0.366  0.1455  0.0415 -0.2559
  102MOL    H6134603   5.573   6.385   0.174  0.6662 -0.7118  1.1345
  102MOL    H6234604   5.461   6.313   0.290  1.1214  0.7575 -0.1511
  102MOL    H6334605   5.383   6.310   0.002 -0.3797  1.0969 -0.5841
  102MOL    H6434606   5.129   6.282   7.879  2.7718 -0.6762 -0.7735
  102MOL    H6534607   5.171   6.134   0.078 -1.0246 -0.9015 -1.9229
  102MOL    H6634608   4.968   6.340   0.089  0.9153  0.3937  0.4794
  102MOL    H6734609   4.957   6.165   0.124 -0.5309  0.0569  0.3398
  102MOL    H6834610   4.987   6.364   0.334 -1.1898  0.9164 -2.8155
  102MOL    H6934611   5.050   6.201   0.346  1.5011 -1.2954 -1.4967
  102MOL    C7034612   5.382   6.511   0.074  0.4067  0.3994 -0.2369
  102MOL    C7134613   5.268   6.570   7.885 -0.1050 -0.0603  0.1680
  102MOL    N7234614   5.144   6.608   0.049  0.2852 -0.1189  0.3447
  102MOL    C7334615   5.023   6.595   7.870  0.2380  0.0757 -0.3047
  102MOL    C7434616   4.906   6.639   0.042 -0.1880  0.6286  0.2614
  102MOL    C7534617   4.965   6.675   0.178  0.1315 -0.1644 -0.6733
  102MOL    C7634618   5.118   6.667   0.162  0.2983  0.2500 -0.0135
  102MOL    O7734619   5.199   6.719   0.233 -0.5833 -0.1333 -0.0460
  102MOL    H7834620   5.476   6.522   0.021  0.4703 -3.4107 -1.0125
  102MOL    H7934621   5.393   6.568   0.167  0.7285 -0.0063 -0.0228
  102MOL    H8034622   5.246   6.497   7.806  0.6750 -0.6211  0.4599
  102MOL    H8134623   5.038   6.642   7.773  0.7667 -0.2759 -0.3947
  102MOL    H8234624   5.009   6.490   7.844  0.6753 -0.6225  2.1144
  102MOL    H8334625   4.859   6.715   7.886  0.2159 -0.2520 -1.1747
  102MOL    H8434626   4.827   6.565   0.028 -0.4454  0.9968 -0.2755
  102MOL    H8534627   4.949   6.776   0.217 -0.6007 -0.1874 -0.8943
  102MOL    H8634628   4.946   6.601   0.256 -0.7038  0.1807 -0.5346
  102MOL    C8734629   5.321   6.688   7.804 -0.4484  0.0035  1.1768
  102MOL    C8834630   5.426   6.653   7.702  0.0283  0.3429  0.5352
  102MOL    N8934631   5.393   6.544   7.605  0.6858 -0.2970 -0.7174
  102MOL    C9034632   5.495   6.450   7.580  0.0364 -0.5849 -0.3476
  102MOL    C9134633   5.444   6.371   7.461 -0.2806  0.0968  0.2390
  102MOL    C9234634   5.298   6.411   7.436 -0.0072 -0.7042 -0.5054
  102MOL    C9334635   5.285   6.528   7.533 -0.2180 -0.5975 -0.1152
  102MOL    O9434636   5.185   6.591   7.543  0.4653  0.2532 -0.1976
  102MOL    H9534637   5.376   6.752   7.872  0.4922 -0.5827  0.9777
  102MOL    H9634638   5.234   6.742   7.767 -0.7882 -0.7229  0.8983
  102MOL    H9734639   5.518   6.624   7.752  1.2525 -0.4606 -2.1131
  102MOL    H9834640   5.584   6.509   7.557 -0.8999  2.0283  2.4423
  102MOL    H9934641   5.518   6.377   7.657  1.8792 -1.0431 -1.2824
  102MOL   H10034642   5.507   6.376   7.373 -0.1105 -2.1634  0.2075
  102MOL   H10134643   5.439   6.264   7.482 -0.9462 -0.3357 -2.0232
  102MOL   H10234644   5.279   6.449   7.336  2.2920  2.5830  0.2072
  102MOL   H10334645   5.230   6.328   7.453  0.3989 -1.0815 -0.7165
  102MOL   C10434646   5.463   6.775   7.612  0.0787  0.1015 -0.6052
  102MOL   C10534647   5.507   6.911   7.659 -0.0134  0.0500  0.1745
  102MOL   N10634648   5.637   6.909   7.733  0.3682 -0.0638  0.2853
  102MOL   C10734649   5.640   6.964   7.868  0.8088  0.2431 -0.4688
  102MOL   C10834650   5.788   6.948   0.016  0.3627  0.4637 -0.4380
  102MOL   C10934651   5.860   6.874   7.808  0.5347 -0.1177  0.5918
  102MOL   C11034652   5.756   6.856   7.695  0.1923 -1.1174 -0.5453
  102MOL   O11134653   5.784   6.807   7.589  0.1689 -0.2291 -0.2413
  102MOL   H11234654   5.377   6.793   7.548  0.3707 -0.4522 -1.1587
  102MOL   H11334655   5.527   6.743   7.531 -0.0959 -0.7591 -0.4137
  102MOL   H11434656   5.429   6.931   7.732 -0.2214  0.9857 -0.3077
  102MOL   H11534657   5.616   7.070   7.857  2.9055  0.9749  1.5596
  102MOL   H11634658   5.566   6.932   0.036  1.5555  0.3646  0.3426
  102MOL   H11734659   5.822   7.049   0.036  0.7305  0.2153  0.1901
  102MOL   H11834660   5.793   6.893   0.110  0.6750  0.5363 -0.4131
  102MOL   H11934661   5.901   6.777   7.836  0.2536 -0.9483 -1.7272
  102MOL   H12034662   5.946   6.935   7.777  0.4233 -0.9584 -1.5137
  102MOL   C12134663   5.510   7.013   7.539  0.2031  0.3591  0.0238
  102MOL   C12234664   5.513   7.164   7.579  0.8541  0.0686  0.2290
  102MOL   N12334665   5.542   7.245   7.459 -0.5597  0.5722 -0.1185
  102MOL   C12434666   5.448   7.237   7.348  0.5752 -0.8006  0.1249
  102MOL   C12534667   5.502   7.344   7.254  0.3126 -0.0937  0.5933
  102MOL   C12634668   5.651   7.366   7.293 -0.0643  0.8430  0.0339
  102MOL   C12734669   5.652   7.305   7.428 -0.6226  0.3282 -0.4652
  102MOL   O12834670   5.750   7.303   7.500  0.4914  0.1268  0.1192
  102MOL   H12934671   5.424   6.997   7.474 -0.0930 -0.9768  0.7341
  102MOL   H13034672   5.587   6.981   7.469 -0.3327  1.6120 -1.1497
  102MOL   H13134673   5.591   7.168   7.655 -0.6584 -0.5587  1.8626
  102MOL   H13234674   5.340   7.253   7.351  0.8674  1.2231  0.8816
  102MOL   H13334675   5.468   7.145   7.294 -0.9685 -0.8590 -0.3673
  102MOL   H13434676   5.479   7.318   7.150 -0.1970 -0.2079  0.7325
  102MOL   H13534677   5.440   7.430   7.280  0.5916  0.0638  0.7364
  102MOL   H13634678   5.716   7.318   7.220 -1.6971 -1.7171  0.1923
  102MOL   H13734679   5.666   7.474   7.289 -1.0786  1.0529  1.6342
  102MOL   C13834680   5.381   7.206   7.642  0.1231 -0.1439 -0.4542
  102MOL   C13934681   5.375   7.337   7.728 -0.3181 -0.2458  0.6506
  102MOL   N14034682   5.428   7.454   7.654  0.5006  0.2856  0.4431
  102MOL   C14134683   5.534   7.543   7.696  0.5850 -0.5015 -0.0720
  102MOL   C14234684   5.499   7.680   7.633  0.2161  0.1021 -0.1851
  102MOL   C14334685   5.413   7.646   7.513  0.0284 -0.1477  0.2810
  102MOL   C14434686   5.356   7.509   7.546  0.5179  0.2764 -0.9982
  102MOL   O14534687   5.254   7.467   7.498  0.5299 -0.0596  0.0686
  102MOL   H14634688   5.347   7.128   7.710 -0.1718  0.8306  0.5252
  102MOL   H14734689   5.304   7.218   7.566 -0.8833  2.7180  0.9478
  102MOL   H14834690   5.440   7.313   7.812 -0.3209 -0.3944  0.6096
  102MOL   H14934691   5.531   7.561   7.803  1.1569 -3.4894  0.4754
  102MOL   H15034692   5.634   7.503   7.679  1.0868 -0.0886  1.8047
  102MOL   H15134693   5.440   7.747   7.696 -2.5253 -2.5150  0.1780
  102MOL   H15234694   5.577   7.743   7.592  0.5906 -0.9475 -1.1072
  102MOL   H15334695   5.474   7.632   7.424 -0.6634  1.1919 -0.4095
  102MOL   H15434696   5.330   7.716   7.502 -1.0535 -1.3734  0.3861
  102MOL   C15534697   5.230   7.354   7.788 -0.2159 -1.0056  0.6495
  102MOL   C15634698   5.219   7.476   7.877 -0.1386 -0.3800 -0.6527
  102MOL   N15734699   5.079   7.521   7.884 -0.3674  0.1719  0.1056
  102MOL   C15834700   5.045   7.648   7.814  0.1334  0.1468  0.0163
  102MOL   C15934701   4.893   7.655   7.812  0.0886 -0.5451  0.3718
  102MOL   C16034702   4.844   7.530   7.894  0.1063  0.5993  0.1941
  102MOL   C16134703   4.974   7.453   0.020  0.2638  0.0275  0.1202
  102MOL   O16234704   4.974   7.352   0.087 -0.1486 -0.1226 -0.1279
  102MOL   H16334705   5.190   7.263   7.833 -1.5366 -2.0015 -2.4250
  102MOL   H16434706   5.158   7.370   7.707  0.2594 -0.5401  0.3174
  102MOL   H16534707   5.277   7.553   7.826 -1.0236 -0.5577 -1.9336
  102MOL   H16634708   5.105   7.732   7.848  0.5283 -0.0705 -0.1357
  102MOL   H16734709   5.081   7.620   7.714 -1.1103 -2.2738  0.2171
  102MOL   H16834710   4.862   7.747   7.862  0.8774  0.0372 -0.1997
  102MOL   H16934711   4.860   7.659   7.709 -1.3168 -0.9122  0.8026
  102MOL   H17034712   4.798   7.567   0.080  1.1726  3.3988 -0.3313
  102MOL   H17134713   4.774   7.464   7.843 -1.5796  1.9240  0.7709
  102MOL   C17234714   5.276   7.453   0.116 -0.9239  0.1922 -0.3147
  102MOL   C17334715   5.280   7.580   0.207 -0.3921 -0.8803 -0.1828
  102MOL   N17434716   5.334   7.544   0.338 -0.0693 -0.3282  0.0586
  102MOL   C17534717   5.228   7.501   0.431  0.4026  0.0174 -0.8886
  102MOL   C17634718   5.308   7.455   0.556  0.0794 -0.1662  0.0128
  102MOL   C17734719   5.453   7.510   0.534 -0.9111  0.2514 -0.4645
  102MOL   C17834720   5.460   7.536   0.381 -0.0503  0.1304  0.3346
  102MOL   O17934721   5.558   7.556   0.308  0.1543 -0.7105 -0.1721
  102MOL   H18034722   5.378   7.414   0.112 -1.1206 -0.5250  1.0609
  102MOL   H18134723   5.229   7.364   0.159 -1.3795 -0.6480 -2.5020
  102MOL   H18234724   5.177   7.613   0.221  0.3207  1.9999 -1.2547
  102MOL   H18334725   5.177   7.593   0.459  0.8866 -0.4870  1.7273
  102MOL   H18434726   5.164   7.428   0.382 -1.3250  1.5969 -1.0452
  102MOL   H18534727   5.319   7.348   0.572 -1.7878 -0.1003  2.0253
  102MOL   H18634728   5.273   7.505   0.647  1.5317  0.9185 -0.0216
  102MOL   H18734729   5.477   7.610   0.571  3.4217 -0.1101 -1.9737
  102MOL   H18834730   5.536   7.449   0.569  1.4348  2.6721 -1.5675
  102MOL   C18934731   5.354   7.704   0.147 -0.6733  0.2006  0.2660
  102MOL   C19034732   5.366   7.833   0.231 -0.3463  0.3900  0.5633
  102MOL   N19134733   5.464   0.010   0.167  0.0459 -0.3660  0.1369
  102MOL   C19234734   5.603   7.898   0.200  0.5411 -0.8207  0.2281
  102MOL   C19334735   5.673   0.106   0.122  1.1726 -0.4647  0.5061
  102MOL   C19434736   5.580   0.157   0.023  0.6642  0.3551 -0.3953
  102MOL   C19534737   5.444   0.091   0.059  0.4222 -0.0863 -0.1129
  102MOL   O19634738   5.340   0.105   0.002 -0.4422 -0.6396 -0.6278
  102MOL   H19734739   5.306   7.731   0.053  1.5516 -1.5245 -1.4201
  102MOL   H19834740   5.455   7.672   0.120 -0.1356 -0.4468  2.9154
  102MOL   H19934741   5.411   7.797   0.324 -0.2596 -0.1359  0.3169
  102MOL   H20034742   5.619   0.019   0.304 -2.2705 -0.9647  0.7444
  102MOL   H20134743   5.639   7.802   0.161  0.5755 -0.6019 -0.2900
  102MOL   H20234744   5.681   0.192   0.189 -0.9430 -0.0608  0.2673
  102MOL   H20334745   5.770   0.087   0.077  0.7721  0.9329 -0.9930
  102MOL   H20434746   5.566   0.265   0.021 -0.7419  0.2600  2.3450
  102MOL   H20534747   5.610   0.129   7.828 -0.2897  0.8719 -0.8324
  102MOL   C20634748   5.231   7.901   0.276  0.1407 -0.0492  0.5302
  102MOL   C20734749   5.242   0.110   0.378  0.7483  0.0806 -0.6946
  102MOL   N20834750   5.296   0.234   0.331  0.0193  0.4065  0.3510
  102MOL   C20934751   5.431   0.280   0.369  0.7619 -0.1842 -0.1685
  102MOL   C21034752   5.451   0.415   0.302  0.5065 -0.2331  0.3760
  102MOL   C21134753   5.315   0.441   0.217  0.6566  0.4803  0.0840
  102MOL   C21234754   5.233   0.312   0.239 -0.4304  0.6250  0.0151
  102MOL   O21334755   5.130   0.281   0.179  0.3130 -0.1571  0.3463
  102MOL   H21434756   5.191   7.809   0.318 -0.3606 -0.5386 -1.0084
  102MOL   H21534757   5.168   0.029   0.194 -0.1009 -0.7569  0.4255
  102MOL   H21634758   5.330   0.087   0.438 -0.5695 -0.6311  0.9863
  102MOL   H21734759   5.419   0.284   0.478 -0.6053  0.2933 -0.3305
  102MOL   H21834760   5.510   0.208   0.348  0.8902  0.0185 -0.3866
  102MOL   H21934761   5.475   0.493   0.374  2.5136  0.2742 -0.7970
  102MOL   H22034762   5.528   0.400   0.226 -1.0314 -1.2469 -1.0162
  102MOL   H22134763   5.262   0.531   0.248 -0.3248 -0.4626  1.1637
  102MOL   H22234764   5.331   0.442   0.109  1.0474  0.5419  0.1419
  102MOL   C22334765   5.109   0.125   0.461 -0.0460  1.0107 -0.1674
  102MOL   C22434766   5.081   0.017   0.559  0.0153 -0.5395 -0.3612
  102MOL   N22534767   5.178   0.002   0.668  0.4544  0.9614 -0.8432
  102MOL   C22634768   5.259   7.790   0.668 -0.5098  0.2554  0.0348
  102MOL   C22734769   5.378   7.836   0.747  0.6287  0.0683  0.1642
  102MOL   C22834770   5.332   0.040   0.839 -0.0414  0.0904  0.3692
  102MOL   C22934771   5.208   0.085   0.766  0.9825 -0.6098 -0.2175
  102MOL   O23034772   5.142   0.179   0.801  0.0050  0.4852 -0.5106
  102MOL   H23134773   5.028   0.131   0.388 -1.7232 -1.8547  1.3896
  102MOL   H23234774   5.112   0.214   0.523  1.2425  1.3070 -0.6334
  102MOL   H23334775   5.087   7.839   0.490  1.1528  0.5860 -1.6600
  102MOL   H23434776   5.205   7.704   0.706  0.0011 -0.3850 -0.6723
  102MOL   H23534777   5.280   7.764   0.564 -1.9113  0.1350 -0.2370
  102MOL   H23634778   5.417   7.756   0.811 -0.5052 -1.8790 -1.5026
  102MOL   H23734779   5.453   7.889   0.689  0.4419  0.7572  0.5603
  102MOL   H23834780   5.313   7.900   0.936  0.0296  1.8010  1.1986
  102MOL   H23934781   5.406   0.119   0.854  0.9248 -0.3467 -1.8955
  102MOL   C24034782   4.937   0.019   0.624  0.3801  0.4906 -0.2350
  102MOL   C24134783   4.889   7.778   0.655 -0.1902 -0.3121  0.3424
  102MOL   N24234784   4.788   7.785   0.763 -0.2167  0.3387  0.0563
  102MOL   C24334785   4.655   7.841   0.750 -0.2619 -0.2244 -0.0447
  102MOL   C24434786   4.604   7.859   0.892 -0.4397  0.2090  0.1963
  102MOL   C24534787   4.707   7.789   0.979 -0.1470 -0.2675  0.0102
  102MOL   C24634788   4.819   7.745   0.888 -0.0908 -0.1223 -0.3380
  102MOL   O24734789   4.922   7.697   0.933  0.0110 -0.4044  0.4754
  102MOL   H24834790   4.879   0.075   0.551 -0.9022 -0.4326  0.0730
  102MOL   H24934791   4.929   0.076   0.716 -2.7801  0.4404 -0.4453
  102MOL   H25034792   4.981   7.736   0.695 -0.2279 -1.4328 -0.7189
  102MOL   H25134793   4.656   0.021   0.684  0.4856 -0.7589 -0.7345
  102MOL   H25234794   4.586   7.769   0.704 -1.7219 -0.0126  1.7503
  102MOL   H25334795   4.594   0.059   0.913  0.2912  0.1157  1.0736
  102MOL   H25434796   4.504   7.817   0.890 -0.7670  0.9671  0.5270
  102MOL   H25534797   4.745   7.856   1.056  0.4151  0.9394 -1.2805
  102MOL   H25634798   4.648   7.710   1.024 -2.5494  1.4102 -0.0683
  102MOL   C25734799   4.857   7.689   0.532  0.4800  0.4026 -0.0265
  102MOL   C25834800   4.740   7.713   0.439  0.0433  0.3951 -0.3916
  102MOL   N25934801   4.754   7.835   0.353  0.0429  0.2306  0.3624
  102MOL   C26034802   4.653   0.036   0.356 -0.3226  0.2099  0.0222
  102MOL   C26134803   4.711   0.147   0.272 -0.0846 -0.2051  0.1378
  102MOL   C26234804   4.824   0.083   0.195 -0.3224 -0.2071  0.5679
  102MOL   C26334805   4.844   7.852   0.258 -0.2706  0.3609 -0.2958
  102MOL   O26434806   4.945   7.778   0.228  0.7302 -0.3754  0.5818
  102MOL   H26534807   4.839   7.588   0.570  2.1931  0.2836  0.4961
  102MOL   H26634808   4.943   7.658   0.471 -0.2479 -0.4464 -0.6416
  102MOL   H26734809   4.650   7.733   0.496 -0.9496 -1.0314 -1.4190
  102MOL   H26834810   4.560   7.900   0.317 -0.6837 -0.7750  1.8696
  102MOL   H26934811   4.632   0.066   0.458 -0.7409 -0.5419  0.1621
  102MOL   H27034812   4.647   0.185   0.193 -0.0562  1.5405  0.9373
  102MOL   H27134813   4.746   0.232   0.331  1.5521  1.6355 -3.3523
  102MOL   H27234814   4.789   0.068   0.093  2.4396 -3.5928  0.0080
  102MOL   H27334815   4.904   0.156   0.183 -0.3616 -0.0232  1.3777
  102MOL   C27434816   4.694   7.600   0.349  0.8260  0.1284  0.4259
  102MOL   C27534817   4.665   7.453   0.405 -0.3653 -0.4146  0.1266
  102MOL   N27634818   4.566   7.382   0.314 -0.6944  0.0933  0.1547
  102MOL   C27734819   4.606   7.311   0.192  0.6039  0.6780  0.2303
  102MOL   C27834820   4.473   7.295   0.116 -0.6053 -0.6790  0.0999
  102MOL   C27934821   4.364   7.329   0.217  0.0919  0.1472 -0.3340
  102MOL   C28034822   4.438   7.401   0.325 -0.1403 -0.7150  0.4024
  102MOL   O28134823   4.378   7.461   0.419  0.5663 -0.0500  0.1341
  102MOL   H28234824   4.766   7.585   0.269 -2.3453 -2.6023 -2.0403
  102MOL   H28334825   4.599   7.633   0.309  1.6555  0.8030 -1.0319
  102MOL   H28434826   4.611   7.465   0.499 -0.7477 -0.0171 -0.1418
  102MOL   H28534827   4.681   7.358   0.127 -0.6061  1.0011 -0.9488
  102MOL   H28634828   4.661   7.222   0.223  1.8449  1.1871 -0.4719
  102MOL   H28734829   4.485   7.354   0.025  0.6567  0.6615  1.1156
  102MOL   H28834830   4.472   7.193   0.078 -0.2256  0.5337 -3.3070
  102MOL   H28934831   4.292   7.397   0.170  1.9074  0.9577 -2.0287
  102MOL   H29034832   4.314   7.241   0.255 -1.0142  0.6722 -0.5586
  102MOL   C29134833   4.799   7.373   0.421  0.4514 -0.3702  0.2349
  102MOL   C29234834   4.776   7.232   0.483  0.0607 -0.2090  0.5054
  102MOL   N29334835   4.903   7.148   0.467  0.0845 -0.0834  0.5768
  102MOL   C29434836   4.908   7.047   0.362 -0.1644  0.8188 -0.4206
  102MOL   C29534837   5.042   6.975   0.382 -0.3391  0.1120 -0.1325
  102MOL   C29634838   5.117   7.058   0.489 -0.1857  0.1955 -0.9623
  102MOL   C29734839   5.018   7.161   0.533  0.3035 -0.0495 -0.2610
  102MOL   O29834840   5.043   7.241   0.621 -0.6425  0.0355  0.9796
  102MOL   H29934841   4.868   7.425   0.488 -2.6928  2.4816  1.3628
  102MOL   H30034842   4.853   7.365   0.326 -1.4014 -0.9570 -0.7881
  102MOL   H30134843   4.704   7.177   0.423  3.1606 -1.8448 -1.8309
  102MOL   H30234844   4.829   6.973   0.374  1.8804 -0.9529  2.8428
  102MOL   H30334845   4.906   7.092   0.262  2.3024 -0.9926 -1.3676
  102MOL   H30434846   5.037   6.867   0.393 -0.2413 -0.0084 -1.2889
  102MOL   H30534847   5.103   6.990   0.293  0.7946  0.1793  0.6344
  102MOL   H30634848   5.141   6.984   0.565  0.0582 -0.1919 -1.4089
  102MOL   H30734849   5.215   7.100   0.467 -0.1222 -0.2545 -1.5525
  102MOL   C30834850   4.729   7.244   0.631 -0.5129  0.1463  0.0819
  102MOL   C30934851   4.583   7.228   0.656  0.0867  0.2973 -0.0766
  102MOL   N31034852   4.538   7.089   0.629 -0.2377  0.4173 -0.4053
  102MOL   C31134853   4.406   7.085   0.574 -0.0882  0.1639 -0.2144
  102MOL   C31234854   4.382   6.929   0.536 -0.6504  0.0979 -0.1556
  102MOL   C31334855   4.505   6.861   0.583  0.8038  0.3553 -0.1645
  102MOL   C31434856   4.593   6.970   0.651 -0.7433  0.2318  0.2915
  102MOL   O31534857   4.704   6.947   0.699 -0.2038 -0.0771  0.6055
  102MOL   H31634858   4.758   7.340   0.673 -0.2683  0.2378 -0.3008
  102MOL   H31734859   4.775   7.170   0.697 -1.8430 -0.8310 -0.0540
  102MOL   H31834860   4.539   7.298   0.586 -0.5674 -0.9581 -0.9432
  102MOL   H31934861   4.330   7.103   0.650 -0.2687  1.4773 -0.7041
  102MOL   H32034862   4.384   7.146   0.487  0.8262  2.1097  0.9014
  102MOL   H32134863   4.295   6.890   0.589 -1.0653  1.7986  0.4529
  102MOL   H32234864   4.369   6.910   0.429  2.7249  1.2355 -0.8131
  102MOL   H32334865   4.481   6.777   0.649 -1.4950 -0.2576 -1.7310
  102MOL   H32434866   4.574   6.825   0.507  3.1184  1.0377  1.5583
  102MOL   C32534867   4.530   7.262   0.800 -0.2701  0.7686 -0.2246
  102MOL   C32634868   4.549   7.405   0.840  0.4927 -0.1998 -0.3357
  102MOL   N32734869   4.508   7.426   0.975  0.5537 -0.1193 -0.3853
  102MOL   C32834870   4.390   7.520   0.999 -0.6439  0.8068  0.3687
  102MOL   C32934871   4.371   7.515   1.155 -0.0359 -0.8259  0.0462
  102MOL   C33034872   4.486   7.439   1.211  0.3897 -0.7907 -0.1662
  102MOL   C33134873   4.558   7.385   1.092  0.2211 -0.1738  0.9822
  102MOL   O33234874   4.653   7.314   1.111  0.2113  0.1623 -1.0785
  102MOL   H33334875   4.575   7.195   0.873 -0.3047  0.5563 -0.3976
  102MOL   H33434876   4.424   7.235   0.805 -0.1271  0.4312  1.5258
  102MOL   H33534877   4.504   7.479   0.773 -1.0450 -1.1282 -0.3542
  102MOL   H33634878   4.410   7.621   0.965  3.4888  1.1233  3.3694
  102MOL   H33734879   4.304   7.473   0.950 -1.1332  0.2677  1.7121
  102MOL   H33834880   4.370   7.616   1.195 -0.7970  0.1545 -2.3425
  102MOL   H33934881   4.272   7.474   1.176  0.3298 -0.0847  3.4073
  102MOL   H34034882   4.553   7.506   1.266 -1.9025 -0.3590  2.1805
  102MOL   H34134883   4.453   7.359   1.276 -1.4617  0.1294  0.0461
  102MOL   H34234884   4.655   7.428   0.829  0.3489 -0.2349 -1.9073
  103MOL     C134885   0.248   4.022   2.042  0.0816  0.0160  0.2727
  103MOL     C234886   0.181   3.900   2.102  0.2318 -0.7291  1.2531
  103MOL     N334887   0.262   3.843   2.208  0.3171 -0.2228  0.0801
  103MOL     C434888   0.345   3.717   2.185  0.5939 -0.3547 -0.4652
  103MOL     C534889   0.430   3.710   2.307 -0.6332 -0.1074 -0.0990
  103MOL     C634890   0.370   3.799   2.417  0.0382  0.4432  0.3015
  103MOL     C734891   0.282   3.897   2.332 -0.2737 -0.0048  0.3984
  103MOL     O834892   0.228   3.999   2.371  0.7871 -0.3309  0.2934
  103MOL     H934893   0.270   4.103   2.112 -1.7561 -0.0150  0.9130
  103MOL    H1034894   0.343   3.994   1.996 -1.0637 -0.9510 -1.5491
  103MOL    H1134895   0.180   3.831   2.018 -0.8744  0.6621  0.0984
  103MOL    H1234896   0.274   3.634   2.172  1.4125 -1.2000  0.4152
  103MOL    H1334897   0.404   3.717   2.094  4.1405 -1.7318  1.7293
  103MOL    H1434898   0.438   3.607   2.343  1.7782 -0.0201 -0.2831
  103MOL    H1534899   0.529   3.753   2.293 -0.0170 -0.3311  3.0255
  103MOL    H1634900   0.318   3.738   2.491 -1.1240  0.8109 -0.2005
  103MOL    H1734901   0.454   3.849   2.466 -1.3784  1.1529  2.0988
  103MOL    H1834902   0.190   4.067   1.961 -0.5949 -0.4671  0.4902
  103MOL    C1934903   0.036   3.916   2.149 -0.7718 -0.4030  0.3115
  103MOL    C2034904   7.835   3.957   2.045 -0.1726  0.2124  0.5813
  103MOL    N2134905   7.828   3.861   1.936 -0.3060  0.5549 -0.1952
  103MOL    C2234906   7.817   3.905   1.797  0.1834 -0.0175 -0.1036
  103MOL    C2334907   7.734   3.791   1.743  0.9163 -0.5687 -0.4894
  103MOL    C2434908   7.777   3.668   1.817  0.1391 -0.4050  0.2641
  103MOL    C2534909   7.806   3.727   1.948  0.0172  0.1108 -0.2646
  103MOL    O2634910   7.810   3.659   2.054 -0.0008  0.4325  0.0109
  103MOL    H2734911   0.033   3.997   2.221  0.0469  2.4982 -2.7923
  103MOL    H2834912   7.889   3.834   2.198 -3.0390  1.9552  1.9048
  103MOL    H2934913   7.855   4.051   1.994 -1.4731 -0.0352 -0.3941
  103MOL    H3034914   7.782   4.008   1.788  1.6056  0.8205  3.2223
  103MOL    H3134915   0.006   3.907   1.744  0.1709  2.8040 -0.1176
  103MOL    H3234916   7.630   3.817   1.759  0.5292 -0.1809 -3.2864
  103MOL    H3334917   7.749   3.789   1.635  1.7580 -2.5591 -0.3504
  103MOL    H3434918   7.708   3.586   1.835  0.0081 -0.5572 -0.8639
  103MOL    H3534919   7.875   3.627   1.793 -0.5331 -2.4809  0.9816
  103MOL    C3634920   7.697   3.971   2.113 -0.2314 -0.1796  0.1461
  103MOL    C3734921   7.668   4.065   2.234  0.3991  0.1481  0.2532
  103MOL    N3834922   7.680   4.206   2.193  0.0743 -0.4176  0.0750
  103MOL    C3934923   7.788   4.280   2.253  0.0173 -0.9962  0.4610
  103MOL    C4034924   7.789   4.423   2.186  0.4420  0.5310 -0.1371
  103MOL    C4134925   7.688   4.413   2.073 -0.6595 -0.0280 -0.3752
  103MOL    C4234926   7.623   4.282   2.097  0.8563 -0.7005  0.5544
  103MOL    O4334927   7.521   4.256   2.033 -0.0318  0.0192 -0.1061
  103MOL    H4434928   7.663   3.874   2.149 -0.3975 -0.1569  0.0521
  103MOL    H4534929   7.620   3.996   2.039 -2.0350 -1.8347  1.4233
  103MOL    H4634930   7.741   4.050   2.314 -0.3590 -2.0993  0.5771
  103MOL    H4734931   7.781   4.293   2.361  0.1718  0.1649  0.3435
  103MOL    H4834932   7.886   4.238   2.232  0.5860  1.2634 -1.6140
  103MOL    H4934933   7.751   4.501   2.252  2.3203  1.0686  0.3413
  103MOL    H5034934   7.893   4.437   2.154  1.4704 -0.7735  2.4622
  103MOL    H5134935   7.600   4.477   2.065 -0.2286  0.5037 -1.0082
  103MOL    H5234936   7.731   4.420   1.973  0.7741  2.4387  0.3658
  103MOL    C5334937   7.522   4.033   2.280 -0.2560 -0.8137  0.8799
  103MOL    C5434938   7.510   3.898   2.365  0.6222  0.1315  0.2385
  103MOL    N5534939   7.593   3.898   2.484 -0.8179  0.7006 -0.1653
  103MOL    C5634940   7.707   3.812   2.483 -1.1729 -0.3796  0.8982
  103MOL    C5734941   7.800   3.864   2.587  0.2164  0.3660  0.0233
  103MOL    C5834942   7.723   3.960   2.671 -0.2619  0.1685  0.4954
  103MOL    C5934943   7.598   3.989   2.583 -0.3877 -0.4202 -0.6673
  103MOL    O6034944   7.524   4.081   2.605 -0.6101  0.0977 -0.2776
  103MOL    H6134945   7.458   4.026   2.191  1.5296 -1.0645 -0.4017
  103MOL    H6234946   7.476   4.104   2.349 -0.8875 -2.2338  1.9637
  103MOL    H6334947   7.546   3.820   2.298  0.0469 -2.3629  2.7425
  103MOL    H6434948   7.670   3.710   2.500 -2.1442 -0.1811  0.0104
  103MOL    H6534949   7.768   3.812   2.393 -0.3637  0.8070  1.4364
  103MOL    H6634950   7.848   3.794   2.656 -0.5057 -1.4947 -1.3068
  103MOL    H6734951   7.887   3.909   2.540  1.1969 -0.5500  0.9149
  103MOL    H6834952   7.695   3.917   2.767  2.3947 -1.7366  0.4753
  103MOL    H6934953   7.776   4.053   2.688  1.7363 -0.9478  0.4694
  103MOL    C7034954   7.376   3.845   2.413  0.1596  0.1882  0.4809
  103MOL    C7134955   7.281   3.813   2.298 -0.6287 -0.0197 -0.3537
  103MOL    N7234956   7.304   3.674   2.240 -0.8880  0.4700  0.0568
  103MOL    C7334957   7.369   3.659   2.113 -0.2721 -0.0871  0.2970
  103MOL    C7434958   7.405   3.512   2.099  0.5032  0.7323 -0.3647
  103MOL    C7534959   7.335   3.443   2.221 -0.1707  0.4111  0.3412
  103MOL    C7634960   7.278   3.561   2.296 -0.5292 -0.1755  0.6034
  103MOL    O7734961   7.215   3.542   2.396  0.1271  0.2600  0.0800
  103MOL    H7834962   7.341   3.937   2.459  1.3802  0.6424  0.5059
  103MOL    H7934963   7.370   3.778   2.498  3.1012 -1.5384 -0.6147
  103MOL    H8034964   7.305   3.874   2.211  1.9523 -1.7839 -0.9506
  103MOL    H8134965   7.300   3.693   2.036  0.7572  0.4539 -0.3840
  103MOL    H8234966   7.461   3.717   2.113  1.1340 -2.1810  3.0719
  103MOL    H8334967   7.357   3.483   2.005  0.4525 -1.6570  0.3721
  103MOL    H8434968   7.512   3.491   2.097  0.0084 -1.9318 -1.5560
  103MOL    H8534969   7.255   3.374   2.195 -0.4896  0.7093  0.5213
  103MOL    H8634970   7.412   3.389   2.276  1.0029  0.2545 -1.4221
  103MOL    C8734971   7.131   3.830   2.325 -0.3949  0.7854 -0.1577
  103MOL    C8834972   7.041   3.806   2.200  0.3257  0.3216  0.0260
  103MOL    N8934973   6.906   3.785   2.257  0.2889 -0.3831  0.0895
  103MOL    C9034974   6.864   3.647   2.271 -0.0414 -0.0951 -0.4848
  103MOL    C9134975   6.722   3.655   2.333 -1.3798  0.6456 -0.6766
  103MOL    C9234976   6.688   3.803   2.331  0.0432  0.0629  0.0499
  103MOL    C9334977   6.821   3.874   2.312 -0.0720 -0.6639  0.4139
  103MOL    O9434978   6.847   3.995   2.330  0.1481  0.2294  0.3309
  103MOL    H9534979   7.117   3.927   2.373  3.8587  1.0157  0.8950
  103MOL    H9634980   7.110   3.758   2.404  0.5061  1.2007  0.4736
  103MOL    H9734981   7.071   3.716   2.147 -1.8424 -0.0433 -0.6308
  103MOL    H9834982   6.876   3.597   2.175  0.6375 -0.1066 -0.3957
  103MOL    H9934983   6.928   3.612   2.352  1.0506 -0.5795 -1.5387
  103MOL   H10034984   6.647   3.601   2.274 -0.8077  0.3717 -1.1591
  103MOL   H10134985   6.709   3.617   2.434 -0.8011  0.3428 -0.7154
  103MOL   H10234986   6.620   3.828   2.250  1.3545 -1.7941 -1.6762
  103MOL   H10334987   6.633   3.831   2.421 -3.3898  0.9807 -2.2782
  103MOL   C10434988   7.052   3.928   2.095  0.6353 -1.0614 -0.3831
  103MOL   C10534989   6.981   3.906   1.959  0.2063 -0.1641 -0.1709
  103MOL   N10634990   7.062   3.819   1.867  0.4381  0.5339  0.0303
  103MOL   C10734991   7.140   3.874   1.762  0.5096  0.5568  0.6575
  103MOL   C10834992   7.205   3.756   1.694 -0.4867  0.4035  0.3149
  103MOL   C10934993   7.119   3.637   1.735  0.4529 -0.4576 -1.3492
  103MOL   C11034994   7.044   3.688   1.861  0.8240 -0.2375  0.4066
  103MOL   O11134995   6.996   3.607   1.946 -0.7738 -0.0130  0.2670
  103MOL   H11234996   7.160   3.933   2.079  0.8021 -1.2862  0.6230
  103MOL   H11334997   7.009   4.017   2.141  1.2975 -0.0597 -1.6677
  103MOL   H11434998   6.977   4.004   1.912  1.8671 -0.5218 -1.1137
  103MOL   H11534999   7.079   3.934   1.695  0.1158 -0.6775 -0.0915
  103MOL   H11635000   7.215   3.945   1.799 -0.3220  1.4241  0.6945
  103MOL   H11735001   7.211   3.775   1.587 -0.1396  1.4082  0.5017
  103MOL   H11835002   7.308   3.738   1.725 -1.1081 -2.1446  1.0118
  103MOL   H11935003   7.187   3.557   1.767  0.2782 -0.9274 -2.1187
  103MOL   H12035004   7.052   3.605   1.654 -0.7596 -1.0364 -0.1339
  103MOL   C12135005   6.832   3.866   1.966 -0.2388  0.1732 -0.2468
  103MOL   C12235006   6.748   3.859   1.839 -0.0653  0.3645  0.0011
  103MOL   N12335007   6.616   3.804   1.862 -0.1069 -0.1569 -0.4709
  103MOL   C12435008   6.518   3.887   1.933 -0.0739  0.0960  0.2359
  103MOL   C12535009   6.396   3.795   1.962 -0.6521  0.9745 -0.2756
  103MOL   C12635010   6.442   3.652   1.929 -0.3245  0.5380  0.4021
  103MOL   C12735011   6.568   3.678   1.850 -0.0759  0.3373  0.6826
  103MOL   O12835012   6.630   3.590   1.786 -0.1190 -0.5464  0.0720
  103MOL   H12935013   6.786   3.935   2.036  1.4002  2.4895 -1.3763
  103MOL   H13035014   6.828   3.769   2.016  0.0594  0.8364  1.0852
  103MOL   H13135015   6.800   3.785   1.779  1.2434  0.3185  1.1911
  103MOL   H13235016   6.484   3.973   1.877 -0.9312 -1.4040 -1.6002
  103MOL   H13335017   6.561   3.923   2.027 -3.5394 -0.1451  1.9703
  103MOL   H13435018   6.344   3.805   2.057 -0.3042  1.0934 -0.0948
  103MOL   H13535019   6.317   3.810   1.889  0.3629  4.0923 -0.8378
  103MOL   H13635020   6.479   3.586   2.008 -1.5052  0.2439  0.7222
  103MOL   H13735021   6.377   3.597   1.860  1.2616 -0.5579 -0.2610
  103MOL   C13835022   6.747   3.985   1.757  0.2030 -0.5622 -0.3098
  103MOL   C13935023   6.696   3.982   1.607 -0.0116 -0.3018  0.5870
  103MOL   N14035024   6.676   4.120   1.558  0.0175  0.4626  0.5388
  103MOL   C14135025   6.784   4.201   1.504 -0.1068  0.2896 -0.5290
  103MOL   C14235026   6.727   4.345   1.479 -0.5890 -0.4162 -0.1539
  103MOL   C14335027   6.575   4.329   1.490 -0.6871 -0.5503  0.6120
  103MOL   C14435028   6.561   4.189   1.552  0.4357  0.7082 -0.3839
  103MOL   O14535029   6.449   4.148   1.569 -0.0595 -0.2259 -0.6749
  103MOL   H14635030   6.851   4.016   1.750 -0.4126  1.4599 -1.0057
  103MOL   H14735031   6.697   4.063   1.814  0.1402  0.6786 -2.0145
  103MOL   H14835032   6.596   3.941   1.612  0.2055 -0.6920  2.2759
  103MOL   H14935033   6.868   4.204   1.573  0.4001  1.7787 -1.1742
  103MOL   H15035034   6.826   4.160   1.412  0.6196  0.8092 -0.4313
  103MOL   H15135035   6.773   4.414   1.550 -2.0631  0.9952 -0.5440
  103MOL   H15235036   6.757   4.387   1.383  0.6297  1.4192  0.9987
  103MOL   H15335037   6.528   4.336   1.392 -0.9368 -1.5235  0.6487
  103MOL   H15435038   6.527   4.397   1.560 -0.5718  1.1167 -0.9099
  103MOL   C15535039   6.799   3.901   1.519 -0.0036  0.2975  0.5273
  103MOL   C15635040   6.719   3.856   1.394  0.1148  0.2069  0.4869
  103MOL   N15735041   6.818   3.831   1.287 -0.3002 -0.0478 -0.6231
  103MOL   C15835042   6.914   3.718   1.295  0.0366 -0.4332 -0.2341
  103MOL   C15935043   7.039   3.760   1.217  0.4239 -0.5917  0.3317
  103MOL   C16035044   6.977   3.863   1.112  0.3286  0.6773  0.1319
  103MOL   C16135045   6.850   3.908   1.180 -0.2330  0.2359  0.6844
  103MOL   O16235046   6.789   4.009   1.148 -0.5692  0.2230 -0.1208
  103MOL   H16335047   6.834   3.806   1.559 -2.3813 -0.4561  0.9245
  103MOL   H16435048   6.884   3.964   1.492  0.5673 -1.0233 -0.8288
  103MOL   H16535049   6.654   3.935   1.357  0.4739  0.8820  1.2885
  103MOL   H16635050   6.939   3.683   1.395 -1.6642 -0.5170  0.1793
  103MOL   H16735051   6.873   3.635   1.237 -0.6811  0.6632 -1.3177
  103MOL   H16835052   7.110   3.795   1.292  1.2615  1.7097 -1.4786
  103MOL   H16935053   7.078   3.672   1.165 -0.2029 -0.6829  0.0153
  103MOL   H17035054   7.047   3.942   1.084  1.7448 -1.2695 -1.9994
  103MOL   H17135055   6.948   3.821   1.016 -2.0050  0.9978  0.6738
  103MOL   C17235056   6.612   3.747   1.414  0.0825  0.2163 -0.1872
  103MOL   C17335057   6.488   3.725   1.324  0.0860 -0.1678 -0.2378
  103MOL   N17435058   6.484   3.807   1.205  0.0603 -0.8792 -0.0704
  103MOL   C17535059   6.405   3.933   1.218  0.5702  0.0875 -0.8606
  103MOL   C17635060   6.419   3.985   1.075 -0.1182  0.0245 -0.2656
  103MOL   C17735061   6.479   3.885   0.987 -0.2739  0.7067  0.3781
  103MOL   C17835062   6.535   3.787   1.086 -0.4453  0.4892  0.4390
  103MOL   O17935063   6.618   3.706   1.055  0.0897  0.0961 -0.0160
  103MOL   H18035064   6.582   3.740   1.519  0.3395  2.6769  0.0951
  103MOL   H18135065   6.669   3.654   1.414 -1.5010 -0.7813 -1.2331
  103MOL   H18235066   6.400   3.765   1.374 -0.2240  1.3825 -1.9502
  103MOL   H18335067   6.299   3.923   1.240  0.5232  3.0009  0.3593
  103MOL   H18435068   6.444   4.009   1.286  0.4782 -1.2935  0.7934
  103MOL   H18535069   6.483   4.073   1.077  2.2006 -1.5987 -0.9817
  103MOL   H18635070   6.319   4.021   1.051 -0.0977  0.7390  0.7054
  103MOL   H18735071   6.399   3.840   0.928  0.7674 -0.3771 -0.2513
  103MOL   H18835072   6.554   3.924   0.917  0.0248 -2.1263 -0.9808
  103MOL   C18935073   6.469   3.576   1.306 -0.0978 -0.2888  0.2051
  103MOL   C19035074   6.424   3.505   1.437 -0.3384  0.7131  0.3000
  103MOL   N19135075   6.294   3.548   1.478  0.7126  0.2094  0.1393
  103MOL   C19235076   6.281   3.614   1.612  0.1237 -0.2460  0.2673
  103MOL   C19335077   6.157   3.708   1.587 -0.0016  0.3356 -0.1151
  103MOL   C19435078   6.092   3.650   1.457  0.5260 -0.8231  0.3585
  103MOL   C19535079   6.183   3.544   1.411 -0.0233 -0.1849 -0.1479
  103MOL   O19635080   6.162   3.475   1.312  0.3272 -0.1129 -0.2887
  103MOL   H19735081   6.563   3.539   1.266  0.4159 -0.3601  1.4668
  103MOL   H19835082   6.403   3.562   1.220  0.0899 -0.0102  0.0128
  103MOL   H19935083   6.488   3.528   1.522  2.2267  3.1555 -2.1784
  103MOL   H20035084   6.265   3.541   1.691  2.0072  0.5871  1.4542
  103MOL   H20135085   6.369   3.673   1.638  1.1688 -0.1558 -3.1226
  103MOL   H20235086   6.091   3.689   1.671 -0.4753 -0.9403 -0.7622
  103MOL   H20335087   6.172   3.815   1.580  1.3080  0.0627 -1.8299
  103MOL   H20435088   6.004   3.590   1.480 -0.1398  0.4921  1.2737
  103MOL   H20535089   6.056   3.723   1.385 -2.2912  0.0768  2.5841
  103MOL   C20635090   6.430   3.359   1.416 -0.4678  0.3715 -0.4017
  103MOL   C20735091   6.571   3.293   1.400 -0.2526 -0.8350  0.1605
  103MOL   N20835092   6.647   3.302   1.524 -0.0486  0.1455  0.4930
  103MOL   C20935093   6.765   3.392   1.538  0.0035 -0.6467  0.5619
  103MOL   C21035094   6.818   3.369   1.677  0.2439  0.2633  0.3713
  103MOL   C21135095   6.721   3.280   1.754 -0.2796  0.1065  0.0010
  103MOL   C21235096   6.625   3.242   1.646 -0.6893 -0.0727  0.5918
  103MOL   O21335097   6.532   3.163   1.674  0.1640 -0.2515 -0.1601
  103MOL   H21435098   6.366   3.340   1.330  0.5930 -2.0721 -0.6987
  103MOL   H21535099   6.388   3.303   1.500  1.7407  0.4976  0.8343
  103MOL   H21635100   6.632   3.342   1.324 -0.9548  0.4069  0.3900
  103MOL   H21735101   6.840   3.364   1.464  0.8354  0.1055  1.1075
  103MOL   H21835102   6.714   3.488   1.523  0.6237 -0.5877 -1.2968
  103MOL   H21935103   6.912   3.315   1.679  0.2162  0.1999  0.0301
  103MOL   H22035104   6.822   3.466   1.725 -0.1927  1.2944 -1.6074
  103MOL   H22135105   6.772   3.192   1.793  0.0502 -0.9123 -2.6618
  103MOL   H22235106   6.683   3.331   1.843  0.7250 -0.0626  0.5330
  103MOL   C22335107   6.563   3.150   1.348 -0.1270 -0.0193 -0.5903
  103MOL   C22435108   6.697   3.070   1.344  0.0630  0.0727 -0.2203
  103MOL   N22535109   6.680   2.931   1.320 -0.0693 -0.1748 -0.3784
  103MOL   C22635110   6.706   2.846   1.437 -0.2150  0.5018  0.0360
  103MOL   C22735111   6.657   2.708   1.393  0.1564  0.2417 -0.5940
  103MOL   C22835112   6.643   2.714   1.237  0.4448  0.5514  0.4223
  103MOL   C22935113   6.677   2.862   1.203 -0.0734  0.0217  0.1526
  103MOL   O23035114   6.679   2.907   1.090 -0.0377  0.1495  0.2172
  103MOL   H23135115   6.524   3.155   1.246 -1.5906 -0.9756 -0.0908
  103MOL   H23235116   6.499   3.084   1.406  0.8599 -0.8500 -0.4406
  103MOL   H23335117   6.732   3.076   1.447 -0.0071  1.0929 -0.2560
  103MOL   H23435118   6.810   2.854   1.468 -0.5607 -1.7053  1.9691
  103MOL   H23535119   6.645   2.882   1.520  0.1308  2.0765 -0.3742
  103MOL   H23635120   6.724   2.624   1.414 -2.2652 -1.6877 -0.2676
  103MOL   H23735121   6.564   2.685   1.445  1.6761 -1.7321  1.3668
  103MOL   H23835122   6.722   2.657   1.187 -1.0679 -0.6476 -0.6679
  103MOL   H23935123   6.552   2.674   1.192  0.8611  0.6273 -0.5175
  103MOL   C24035124   6.799   3.140   1.245  0.2097 -0.0086  0.1753
  103MOL   C24135125   6.950   3.091   1.257 -0.5753  0.1107 -0.0876
  103MOL   N24235126   7.031   3.154   1.157  0.1692 -0.8477 -0.3843
  103MOL   C24335127   7.091   3.079   1.042  0.0292  0.1893  0.5037
  103MOL   C24435128   7.184   3.179   0.966  0.4102  0.2519  0.5596
  103MOL   C24535129   7.165   3.310   1.035 -0.1459 -0.5620 -0.3132
  103MOL   C24635130   7.057   3.287   1.143 -0.4398  0.7224  0.2353
  103MOL   O24735131   7.017   3.380   1.214  0.4064 -0.0296  0.1558
  103MOL   H24835132   6.802   3.248   1.253 -0.3900  0.2196 -2.4578
  103MOL   H24935133   6.769   3.119   1.142  0.3452  0.0319  0.1285
  103MOL   H25035134   6.942   2.984   1.239  2.1846  0.2792 -2.8258
  103MOL   H25135135   7.133   2.981   1.065  2.8539  0.9029 -1.3393
  103MOL   H25235136   7.009   3.056   0.974  1.0397 -0.2754 -0.5749
  103MOL   H25335137   7.289   3.155   0.982  0.0802 -1.1550  0.6185
  103MOL   H25435138   7.171   3.169   0.858  0.9302  1.9098  0.3281
  103MOL   H25535139   7.253   3.332   1.095  0.2313 -2.9820  0.0471
  103MOL   H25635140   7.147   3.395   0.969 -0.5915 -0.4601 -0.0635
  103MOL   C25735141   7.009   3.111   1.399 -0.2847 -0.5652  0.3320
  103MOL   C25835142   7.157   3.078   1.412 -0.3048 -0.2736 -0.3333
  103MOL   N25935143   7.210   3.121   1.541 -0.5301  0.4705 -0.3092
  103MOL   C26035144   7.310   3.228   1.552  0.3087 -0.0216  0.0717
  103MOL   C26135145   7.350   3.217   1.702  0.3404  0.3938  0.1557
  103MOL   C26235146   7.245   3.137   1.775  0.4493  0.5748 -0.4169
  103MOL   C26335147   7.155   3.090   1.661 -0.4443  0.4542  0.4643
  103MOL   O26435148   7.045   3.035   1.682  0.6876 -0.0168  0.1831
  103MOL   H26535149   6.945   3.053   1.466  1.8363 -1.3865  1.7159
  103MOL   H26635150   7.021   3.213   1.435 -0.4300  0.4144 -2.3304
  103MOL   H26735151   7.212   3.147   1.348  0.1493 -1.2847 -1.0516
  103MOL   H26835152   7.395   3.227   1.483 -0.8150  1.2002 -1.3546
  103MOL   H26935153   7.253   3.319   1.536 -2.1915 -1.2244  1.8543
  103MOL   H27035154   7.440   3.156   1.703 -0.3533 -0.6956 -1.7727
  103MOL   H27135155   7.376   3.307   1.757  3.0444 -0.9855  1.2481
  103MOL   H27235156   7.288   3.054   1.830 -2.3264 -0.3415  0.4862
  103MOL   H27335157   7.196   3.207   1.843  1.6603 -1.0287  2.1514
  103MOL   C27435158   7.202   2.937   1.381  0.6251  0.3394 -0.1838
  103MOL   C27535159   7.361   2.935   1.369  0.3652 -0.7309 -0.3269
  103MOL   N27635160   7.409   2.795   1.355 -0.1278 -0.9816  0.2194
  103MOL   C27735161   7.379   2.711   1.239 -0.4959  0.2412  1.3354
  103MOL   C27835162   7.450   2.582   1.269  0.1304  0.1680  0.1291
  103MOL   C27935163   7.542   2.599   1.383  0.8055 -0.4720 -0.6872
  103MOL   C28035164   7.502   2.734   1.441 -0.8034  0.0379  0.3892
  103MOL   O28135165   7.559   2.783   1.541  0.5342  0.5541  0.1254
  103MOL   H28235166   7.175   2.922   1.276  1.0212 -2.1347  0.0304
  103MOL   H28335167   7.163   2.855   1.441 -1.4018 -0.3904 -2.4180
  103MOL   H28435168   7.405   2.950   1.468  1.4824 -4.2989 -0.2346
  103MOL   H28535169   7.271   2.696   1.232 -0.1290 -1.9408 -0.3513
  103MOL   H28635170   7.403   2.762   1.146  0.0390 -0.8033  0.8973
  103MOL   H28735171   7.363   2.520   1.292 -1.2686  0.9904 -2.7501
  103MOL   H28835172   7.500   2.532   1.187 -0.3476 -0.4216  0.1894
  103MOL   H28935173   7.540   2.522   1.461  2.7542 -0.1839 -0.3362
  103MOL   H29035174   7.647   2.611   1.356  0.3324  1.5828 -1.6504
  103MOL   C29135175   7.421   3.022   1.256  0.6301  0.0630  0.0940
  103MOL   C29235176   7.574   3.016   1.250 -0.3263  0.3512 -0.0216
  103MOL   N29335177   7.628   3.092   1.136  0.5162 -0.1472 -0.2173
  103MOL   C29435178   7.628   3.237   1.130  0.1983 -0.1990  0.2570
  103MOL   C29535179   7.663   3.277   0.989 -0.2173  0.2200  0.7845
  103MOL   C29635180   7.706   3.149   0.921 -0.2975 -0.3558 -0.6032
  103MOL   C29735181   7.671   3.036   1.019  0.3276  0.2657 -0.2166
  103MOL   O29835182   7.698   2.916   0.996 -0.7755  0.0224  0.0128
  103MOL   H29935183   7.406   3.129   1.272  0.3349 -0.0294  0.4315
  103MOL   H30035184   7.370   3.000   1.162 -1.1754 -0.9335  1.2721
  103MOL   H30135185   7.607   2.913   1.242  0.3371  0.5258  0.3431
  103MOL   H30235186   7.530   3.277   1.158 -0.7301 -0.6965 -2.1202
  103MOL   H30335187   7.702   3.286   1.193 -0.3270  0.3154  0.4888
  103MOL   H30435188   7.573   3.314   0.940  0.5658 -0.9562 -1.6144
  103MOL   H30535189   7.739   3.355   0.992 -0.7791  0.7155  3.1923
  103MOL   H30635190   7.672   3.140   0.818  0.0803 -0.5281 -0.7147
  103MOL   H30735191   7.815   3.147   0.911 -0.1691  0.8869  0.3891
  103MOL   C30835192   7.639   3.081   1.378  0.3989  0.1493  0.1133
  103MOL   C30935193   7.790   3.092   1.389  0.1265 -0.3583  0.3921
  103MOL   N31035194   7.823   3.194   1.491 -0.3248  0.1001  0.3612
  103MOL   C31135195   7.787   3.175   1.639  0.1967  0.0110  0.3314
  103MOL   C31235196   7.795   3.312   1.696 -0.4563  0.1746 -0.4111
  103MOL   C31335197   7.870   3.398   1.598  0.0643  0.5027 -0.7332
  103MOL   C31435198   7.865   3.322   1.469 -0.2701  0.6838  0.1576
  103MOL   O31535199   0.002   3.363   1.363  0.0584 -0.3533  0.4359
  103MOL   H31635200   7.601   3.038   1.471  0.8337 -1.5729 -0.4852
  103MOL   H31735201   7.604   3.184   1.375  2.1375  0.7138 -1.5165
  103MOL   H31835202   7.826   3.120   1.289 -2.1820  0.9945 -0.0953
  103MOL   H31935203   7.694   3.123   1.662  1.4146 -1.8424  1.1809
  103MOL   H32035204   7.863   3.116   1.690  0.1865 -0.5345 -0.2808
  103MOL   H32135205   7.692   3.345   1.708  0.0417  1.5874  0.1641
  103MOL   H32235206   7.837   3.321   1.797  0.7571  0.6650 -0.9413
  103MOL   H32335207   7.809   3.486   1.574 -1.9205 -0.5761  0.1994
  103MOL   H32435208   0.065   3.426   1.627  0.4048 -0.8167 -0.6235
  103MOL   C32535209   7.869   2.962   1.423 -0.0170  0.6831 -0.2029
  103MOL   C32635210   7.870   2.840   1.318  0.6866  0.1057  0.0238
  103MOL   N32735211   0.041   2.718   1.346  0.8096  0.8652  0.1884
  103MOL   C32835212   0.013   2.597   1.263 -0.1406 -0.4186  0.2575
  103MOL   C32935213   0.123   2.497   1.292  0.3115  0.7247  0.0862
  103MOL   C33035214   0.186   2.556   1.411 -0.6370  0.0311 -0.3561
  103MOL   C33135215   0.141   2.698   1.429  0.2778 -0.0301  0.2147
  103MOL   O33235216   0.182   2.769   1.521  0.2303  0.4920  0.3959
  103MOL   H33335217   7.823   2.936   1.519 -3.2903  0.2349 -1.8507
  103MOL   H33435218   0.069   2.990   1.434  0.6807 -1.0295 -2.2703
  103MOL   H33535219   7.876   2.864   1.212 -0.3687  0.1738 -0.0191
  103MOL   H33635220   7.822   2.554   1.286 -0.7299  0.5522 -0.3975
  103MOL   H33735221   0.023   2.616   1.156 -3.0077 -0.8112 -0.1051
  103MOL   H33835222   0.084   2.397   1.314 -0.3550  0.7491 -0.9317
  103MOL   H33935223   0.191   2.479   1.208  0.8019 -1.6982  0.9601
  103MOL   H34035224   0.153   2.497   1.497  1.5861 -3.1441 -1.5590
  103MOL   H34135225   0.295   2.565   1.415 -0.9038  3.0454  3.3971
  103MOL   H34235226   7.764   2.814   1.323 -0.1935  3.0602 -1.9771
  104MOL     C135227   4.992   7.657   3.883 -0.1819  0.1864 -0.2110
  104MOL     C235228   5.131   7.611   3.830 -0.3471  0.1609  0.9298
  104MOL     N335229   5.126   7.608   3.680  0.3387 -0.3082  0.0626
  104MOL     C435230   5.104   7.475   3.626  0.1638  0.2237  0.8240
  104MOL     C535231   5.092   7.489   3.472 -0.5399  0.5483  0.4680
  104MOL     C635232   5.115   7.639   3.445 -0.0873 -0.3168  0.8445
  104MOL     C735233   5.140   7.701   3.588  0.1714 -0.8968  0.1076
  104MOL     O835234   5.164   7.821   3.618  0.5536  0.3533  0.4712
  104MOL     H935235   4.979   7.765   3.883  2.3749  0.5166 -0.6962
  104MOL    H1035236   4.911   7.633   3.814  0.4887  0.2715 -1.0380
  104MOL    H1135237   5.157   7.515   3.875 -0.1374  0.0911  0.6660
  104MOL    H1235238   5.179   7.400   3.651  0.7735  1.0560  1.5288
  104MOL    H1335239   5.009   7.445   3.670 -1.1605  1.3110 -1.2418
  104MOL    H1435240   5.166   7.432   3.416 -3.3159 -2.3114 -0.4665
  104MOL    H1535241   4.989   7.468   3.443 -0.0987  0.6020 -1.1615
  104MOL    H1635242   5.201   7.659   3.382  0.8155 -3.1802  1.0962
  104MOL    H1735243   5.036   7.700   3.400  1.4118  0.3211 -0.9503
  104MOL    H1835244   4.968   7.621   3.983  1.5926  1.1794  0.5905
  104MOL    C1935245   5.255   7.691   3.883 -0.4876 -0.6382  0.5620
  104MOL    C2035246   5.270   7.688   4.044 -0.3358  0.0158 -0.4804
  104MOL    N2135247   5.329   7.563   4.091  0.1287 -0.2085 -0.0922
  104MOL    C2235248   5.263   7.484   4.196 -0.3938  0.6096 -0.0578
  104MOL    C2335249   5.368   7.377   4.248  0.0250 -0.1490  0.5142
  104MOL    C2435250   5.465   7.372   4.134  0.0862 -0.2918  0.0624
  104MOL    C2535251   5.434   7.492   4.050  0.1425 -0.6262  0.2203
  104MOL    O2635252   5.509   7.515   3.957 -0.0217 -0.3495 -0.1000
  104MOL    H2735253   5.251   7.794   3.845  1.1014 -0.3470  1.1513
  104MOL    H2835254   5.343   7.646   3.839 -0.3928 -0.1623  0.2561
  104MOL    H2935255   5.172   7.702   4.088 -1.3954  0.7787 -2.9811
  104MOL    H3035256   5.233   7.549   4.279  0.3936 -0.6641  1.2452
  104MOL    H3135257   5.171   7.445   4.153  0.4472  0.2792 -1.6078
  104MOL    H3235258   5.412   7.424   4.336  0.2016 -1.7781  1.3169
  104MOL    H3335259   5.327   7.281   4.276 -0.7557 -0.6518 -2.1974
  104MOL    H3435260   5.570   7.364   4.163 -0.5476 -0.4638  2.4068
  104MOL    H3535261   5.439   7.286   4.073  2.6703 -0.1462 -1.3219
  104MOL    C3635262   5.361   7.802   4.094 -0.1700  0.4642  0.3824
  104MOL    C3735263   5.288   0.032   4.125  0.1546 -0.0490 -0.1091
  104MOL    N3835264   5.224   0.033   4.254 -0.8827 -0.3771 -0.6349
  104MOL    C3935265   5.074   0.046   4.253 -0.4125  0.7050 -0.2538
  104MOL    C4035266   5.043   0.018   4.398  0.6069  0.6778  0.1834
  104MOL    C4135267   5.169   0.032   4.481  0.7430 -0.1661  0.2323
  104MOL    C4235268   5.279   0.024   4.377 -0.0208 -0.2667  0.5326
  104MOL    O4335269   5.394   0.005   4.407 -0.3059  0.5609  0.4521
  104MOL    H4435270   5.450   7.811   4.031  0.1959 -2.5298  0.4164
  104MOL    H4535271   5.399   7.767   4.190 -1.6276 -1.6626  0.2101
  104MOL    H4635272   5.216   0.033   4.042  0.1688 -1.3706 -0.1430
  104MOL    H4735273   5.055   0.150   4.228  0.1720  0.8130 -0.2542
  104MOL    H4835274   5.016   7.884   4.191 -0.1936 -0.1728  0.4979
  104MOL    H4935275   4.966   0.089   4.426 -0.8940 -0.5623 -0.6931
  104MOL    H5035276   5.003   7.822   4.402  1.6364  0.2165 -0.8355
  104MOL    H5135277   5.176   0.113   4.552  0.6911 -1.1760  1.4059
  104MOL    H5235278   5.167   7.854   4.551 -0.7687 -1.3095 -1.1261
  104MOL    C5335279   5.374   0.153   4.104 -0.2190  0.2520  0.2935
  104MOL    C5435280   5.428   0.181   3.952 -0.0247  0.1508  0.4255
  104MOL    N5535281   5.324   0.252   3.881  0.3470 -0.3710 -0.3040
  104MOL    C5635282   5.290   0.217   3.748 -0.1401 -0.1786 -0.1571
  104MOL    C5735283   5.201   0.318   3.678 -0.4833 -0.0183 -0.4748
  104MOL    C5835284   5.195   0.430   3.789  0.5934  0.1326 -0.0332
  104MOL    C5935285   5.277   0.378   3.901  0.3352 -0.3081 -0.9912
  104MOL    O6035286   5.291   0.451   3.999  0.5275  0.2740  0.4510
  104MOL    H6135287   5.450   0.159   4.182 -0.3816 -0.3346  0.4984
  104MOL    H6235288   5.312   0.239   4.128  1.0053  1.3324 -0.3386
  104MOL    H6335289   5.439   0.082   3.907  0.1634 -0.1215  1.0695
  104MOL    H6435290   5.380   0.197   3.690  0.2659  3.7941 -1.0137
  104MOL    H6535291   5.237   0.122   3.748  1.4978 -1.1263 -1.7232
  104MOL    H6635292   5.244   0.359   3.586 -0.0153 -0.9081 -0.6562
  104MOL    H6735293   5.102   0.285   3.648 -0.2338 -2.2150  1.0318
  104MOL    H6835294   5.247   0.511   3.738 -0.3675 -0.1566 -1.5250
  104MOL    H6935295   5.097   0.466   3.822  0.6054  0.3999 -0.2826
  104MOL    C7035296   5.564   0.253   3.959  0.1066  0.3744  0.3434
  104MOL    C7135297   5.697   0.177   3.981 -0.0029  0.1744  0.6802
  104MOL    N7235298   5.725   0.081   3.870  0.3681  0.2066 -0.5706
  104MOL    C7335299   5.751   7.846   3.903  0.4260  0.2532  0.1559
  104MOL    C7435300   5.766   7.772   3.774  0.0596 -0.2830 -0.0819
  104MOL    C7535301   5.734   7.880   3.675  0.1769  0.0677 -0.7070
  104MOL    C7635302   5.729   0.101   3.742  0.6713 -0.1158  0.0470
  104MOL    O7735303   5.739   0.208   3.684 -0.7704  0.3543 -0.5762
  104MOL    H7835304   5.550   0.332   4.032 -0.0157  1.5270 -0.9147
  104MOL    H7935305   5.575   0.313   3.868 -2.2374  0.1529 -0.1294
  104MOL    H8035306   5.686   0.109   4.065  1.2773  1.1177  1.6288
  104MOL    H8135307   5.837   7.830   3.968 -0.1939  0.9201  1.1541
  104MOL    H8235308   5.667   7.801   3.957  0.0074 -0.4177 -1.0286
  104MOL    H8335309   5.869   7.737   3.770  0.0681 -0.1430 -1.3825
  104MOL    H8435310   5.698   7.687   3.760 -2.0552  1.2992  0.3834
  104MOL    H8535311   5.820   7.902   3.611  0.6119 -0.8930 -0.4618
  104MOL    H8635312   5.641   7.856   3.625 -1.1358 -0.3300  1.8481
  104MOL    C8735313   5.820   0.272   4.004  0.7011  0.6406 -0.2600
  104MOL    C8835314   5.816   0.356   4.136  0.1783 -0.4427  0.3115
  104MOL    N8935315   5.766   0.283   4.258  0.8198 -0.1755  0.4954
  104MOL    C9035316   5.646   0.347   4.323 -0.1664  0.6546 -0.7083
  104MOL    C9135317   5.616   0.267   4.454  0.6014  0.4250  0.0764
  104MOL    C9235318   5.719   0.149   4.442 -0.0265 -0.5264 -0.1868
  104MOL    C9335319   5.806   0.173   4.318  0.4269 -0.4112  0.0717
  104MOL    O9435320   5.894   0.098   4.273 -0.5166  0.3695 -0.0137
  104MOL    H9535321   5.812   0.340   3.919 -1.0852  1.1302  0.2748
  104MOL    H9635322   5.915   0.219   4.008 -0.3529 -1.2516  0.6014
  104MOL    H9735323   5.744   0.434   4.114 -0.1263 -0.1378  2.3276
  104MOL    H9835324   5.676   0.451   4.339  0.9802  0.5765 -2.2067
  104MOL    H9935325   5.562   0.345   4.254  0.9574  0.6464 -2.1091
  104MOL   H10035326   5.632   0.337   4.537 -1.2032  0.3433  0.5028
  104MOL   H10135327   5.513   0.233   4.461 -0.1388  2.2730 -1.4487
  104MOL   H10235328   5.779   0.150   4.534 -0.8374 -0.6873  0.3491
  104MOL   H10335329   5.663   0.056   4.440 -0.7466 -0.2510  3.4043
  104MOL   C10435330   5.949   0.426   4.176 -1.0871 -0.3498 -0.1764
  104MOL   C10535331   5.982   0.548   4.091  0.5024 -0.0552  0.0698
  104MOL   N10635332   5.979   0.533   3.943  0.5924 -0.5941 -0.4739
  104MOL   C10735333   6.091   0.464   3.877  0.3469 -0.5425 -0.7443
  104MOL   C10835334   6.043   0.436   3.736 -0.0880  0.2650 -0.1494
  104MOL   C10935335   5.918   0.525   3.713 -0.5932  0.0017 -0.2346
  104MOL   C11035336   5.883   0.575   3.856 -0.1528  1.4095  0.2575
  104MOL   O11135337   5.774   0.618   3.892  0.1344 -0.0616 -0.1322
  104MOL   H11235338   6.026   0.349   4.171 -2.8054 -2.1638  0.7864
  104MOL   H11335339   5.941   0.456   4.281  1.0419 -0.3878  0.0173
  104MOL   H11435340   6.085   0.571   4.119  0.4450 -1.9240  1.9717
  104MOL   H11535341   6.186   0.517   3.872 -0.6487  1.2682 -1.1056
  104MOL   H11635342   6.108   0.366   3.922  0.2565 -0.5477 -0.7217
  104MOL   H11735343   6.114   0.443   3.653  0.1481 -1.3531 -0.0997
  104MOL   H11835344   6.001   0.335   3.734 -1.0587  0.6391  0.9139
  104MOL   H11935345   5.835   0.476   3.662  0.0690 -1.4357  0.0475
  104MOL   H12035346   5.956   0.609   3.653  0.2456  0.6515  1.1743
  104MOL   C12135347   5.912   0.681   4.143  0.4110 -0.1788 -0.3635
  104MOL   C12235348   5.963   0.727   4.284 -0.5980  0.2259 -0.6356
  104MOL   N12335349   6.110   0.741   4.287 -0.2309  0.1244  0.0938
  104MOL   C12435350   6.172   0.828   4.193  0.4524  0.6330 -0.3997
  104MOL   C12535351   6.321   0.815   4.219 -0.1046 -0.3099 -0.2611
  104MOL   C12635352   6.335   0.698   4.318  0.4057  0.0222 -0.2429
  104MOL   C12735353   6.194   0.679   4.371 -0.2160  0.0933 -0.0306
  104MOL   O12835354   6.159   0.611   4.464  0.2883 -0.0436 -0.0663
  104MOL   H12935355   5.808   0.653   4.155  0.2327  1.6334  2.9731
  104MOL   H13035356   5.915   0.762   4.071  0.4111 -0.6041 -0.8478
  104MOL   H13135357   5.940   0.663   4.369  0.4135  0.1386 -0.4185
  104MOL   H13235358   6.139   0.929   4.216 -0.5362  0.5700 -1.4654
  104MOL   H13335359   6.136   0.800   4.094  3.3205  1.4038 -1.7211
  104MOL   H13435360   6.366   0.795   4.122  1.1557  0.7131  0.0873
  104MOL   H13535361   6.352   0.911   4.261  1.1387 -1.0390  0.5358
  104MOL   H13635362   6.376   0.608   4.273 -0.9655 -2.2850  2.9679
  104MOL   H13735363   6.405   0.713   4.400  0.7299 -0.4146 -0.4352
  104MOL   C13835364   5.901   0.864   4.317 -0.0527 -0.2766  0.6370
  104MOL   C13935365   5.756   0.868   4.367  0.0310  0.4264  0.4663
  104MOL   N14035366   5.739   0.818   4.509  0.1150  0.4591  0.3048
  104MOL   C14135367   5.697   0.681   4.532  0.1409  0.3237 -0.3994
  104MOL   C14235368   5.698   0.661   4.685  0.1914 -0.0239  0.3861
  104MOL   C14335369   5.743   0.791   4.749 -1.0537  0.3796  0.2296
  104MOL   C14435370   5.776   0.875   4.624  0.1994  0.8701 -0.3336
  104MOL   O14535371   5.831   0.982   4.632 -0.4826  0.0777 -0.0251
  104MOL   H14635372   5.914   0.938   4.238  2.0000  0.4380  1.5850
  104MOL   H14735373   5.962   0.902   4.399 -0.3114  2.8871 -0.5691
  104MOL   H14835374   5.705   0.795   4.304  0.3881 -2.2915  3.1726
  104MOL   H14935375   5.599   0.665   4.488 -0.1309  0.1505  0.2578
  104MOL   H15035376   5.767   0.617   4.478  0.0424 -1.1582  1.1812
  104MOL   H15135377   5.604   0.636   4.733  0.8257 -0.5207  1.3968
  104MOL   H15235378   5.770   0.585   4.716  0.4612  1.0601  2.5130
  104MOL   H15335379   5.837   0.791   4.803 -1.1507 -1.4474  0.4535
  104MOL   H15435380   5.661   0.838   4.803 -0.6154  0.9548  0.3922
  104MOL   C15535381   5.694   1.009   4.341  0.2761  0.4375 -0.1952
  104MOL   C15635382   5.643   1.027   4.195 -0.8202 -0.1253 -1.0494
  104MOL   N15735383   5.563   0.919   4.148  0.0354 -0.8053 -0.0304
  104MOL   C15835384   5.579   0.863   4.017  0.3308 -0.1283  0.3830
  104MOL   C15935385   5.496   0.732   4.017 -0.6357  0.2857 -0.5235
  104MOL   C16035386   5.399   0.741   4.128 -0.0996  0.3673 -0.4488
  104MOL   C16135387   5.466   0.859   4.208  0.8131  0.2664  0.2218
  104MOL   O16235388   5.411   0.893   4.313  0.2989 -0.1881 -0.0852
  104MOL   H16335389   5.764   1.086   4.374  0.7255  0.1590 -0.4975
  104MOL   H16435390   5.621   1.035   4.417 -0.5007 -1.1234 -0.3883
  104MOL   H16535391   5.728   1.032   4.128 -0.4152  4.5073 -0.4022
  104MOL   H16635392   5.544   0.931   3.940 -0.6705 -0.2190  0.7471
  104MOL   H16735393   5.686   0.852   3.999 -0.1504 -0.4923 -2.4804
  104MOL   H16835394   5.455   0.708   3.919 -0.3203 -0.7239 -0.4164
  104MOL   H16935395   5.557   0.644   4.039 -0.1648  1.2841  2.3506
  104MOL   H17035396   5.301   0.775   4.094 -0.0130  1.3355  0.2348
  104MOL   H17135397   5.397   0.651   4.189  1.6910  1.9146  1.9719
  104MOL   C17235398   5.571   1.163   4.173 -0.1668 -0.1070 -0.3693
  104MOL   C17335399   5.652   1.288   4.177 -0.6366 -0.6924  0.6530
  104MOL   N17435400   5.748   1.288   4.067  0.1833 -0.1585  0.2299
  104MOL   C17535401   5.885   1.336   4.086  0.3080 -0.6995  0.2530
  104MOL   C17635402   5.956   1.328   3.949  0.0314  0.3554  0.4938
  104MOL   C17735403   5.845   1.286   3.854 -0.2400 -0.5000 -0.4055
  104MOL   C17835404   5.718   1.282   3.935 -0.9830  0.2438  0.0536
  104MOL   O17935405   5.604   1.278   3.882  0.2021 -0.3590  0.5326
  104MOL   H18035406   5.490   1.176   4.245 -0.4627  0.2876 -0.7710
  104MOL   H18135407   5.510   1.149   4.084 -0.0819 -0.4595 -0.3723
  104MOL   H18235408   5.715   1.291   4.265  2.8529  0.4075 -1.7874
  104MOL   H18335409   5.882   1.436   4.129 -0.7294  0.0597 -1.5544
  104MOL   H18435410   5.936   1.268   4.155 -1.2442 -1.4417  0.6966
  104MOL   H18535411   6.044   1.265   3.943 -1.2270 -1.3291 -0.6823
  104MOL   H18635412   5.991   1.428   3.924  1.2283 -0.0086  0.6881
  104MOL   H18735413   5.831   1.344   3.764  1.1617 -0.0591 -0.3496
  104MOL   H18835414   5.851   1.182   3.822 -1.2119 -0.1785 -1.6376
  104MOL   C18935415   5.564   1.410   4.176  0.4590  0.6369  0.1941
  104MOL   C19035416   5.467   1.429   4.301 -0.6152  0.1446  0.9800
  104MOL   N19135417   5.528   1.393   4.429  0.3081  0.3773 -0.1279
  104MOL   C19235418   5.462   1.299   4.518  0.0925  0.1354  0.2800
  104MOL   C19335419   5.554   1.274   4.637  0.3258  0.1793  0.2286
  104MOL   C19435420   5.667   1.373   4.620 -0.4066  0.7752 -0.6037
  104MOL   C19535421   5.641   1.440   4.487 -0.0666  0.8410 -0.0810
  104MOL   O19635422   5.713   1.524   4.428 -0.9751 -0.2630 -0.4916
  104MOL   H19735423   5.506   1.411   4.084 -1.1178 -0.8286  1.1208
  104MOL   H19835424   5.631   1.496   4.174  0.3221  0.8346  2.1981
  104MOL   H19935425   5.388   1.355   4.296 -0.1106 -0.3994  0.9862
  104MOL   H20035426   5.374   1.348   4.560 -0.8325 -0.8126 -0.5419
  104MOL   H20135427   5.439   1.209   4.462 -0.1166 -0.2554  0.9790
  104MOL   H20235428   5.492   1.282   4.727 -0.6668 -0.7844 -0.3530
  104MOL   H20335429   5.603   1.176   4.637 -0.6804 -0.3519 -1.3025
  104MOL   H20435430   5.661   1.453   4.693  0.3995 -0.1809  0.5435
  104MOL   H20535431   5.768   1.333   4.629  0.6032  3.4172  0.2093
  104MOL   C20635432   5.407   1.570   4.310 -0.5285 -0.1068  0.1000
  104MOL   C20735433   5.360   1.645   4.184  0.0391 -1.0966  0.2413
  104MOL   N20835434   5.235   1.586   4.121  0.2245  0.2320 -0.4821
  104MOL   C20935435   5.243   1.557   3.974  0.2621  0.9700 -0.5883
  104MOL   C21035436   5.102   1.519   3.928 -0.2042 -0.5856 -0.8284
  104MOL   C21135437   5.026   1.493   4.060 -0.5949  0.3574 -0.1032
  104MOL   C21235438   5.118   1.544   4.174 -0.4063 -0.0364  0.1693
  104MOL   O21335439   5.093   1.542   4.294  0.7846 -0.1323  0.3100
  104MOL   H21435440   5.494   1.626   4.342  0.7234 -1.8820 -0.0999
  104MOL   H21535441   5.330   1.590   4.385  0.4114  1.3805  0.6726
  104MOL   H21635442   5.445   1.638   4.117 -0.5635 -1.1797 -0.5226
  104MOL   H21735443   5.273   1.650   3.926  1.4860  1.2146  0.6118
  104MOL   H21835444   5.319   1.483   3.946  0.3378  0.3975  1.0979
  104MOL   H21935445   5.055   1.601   3.873 -0.3499  1.1858  1.8371
  104MOL   H22035446   5.116   1.428   3.870 -2.1956 -0.6793 -1.1909
  104MOL   H22135447   4.932   1.548   4.068 -0.9181 -0.1369 -0.4973
  104MOL   H22235448   5.004   1.388   4.078  1.8585  0.2089  2.4529
  104MOL   C22335449   5.335   1.797   4.205  0.1155 -0.0955 -0.5722
  104MOL   C22435450   5.462   1.880   4.244  0.8022  0.0849  0.0851
  104MOL   N22535451   5.556   1.878   4.126  0.4078 -0.0625  0.4090
  104MOL   C22635452   5.700   1.859   4.148  0.0643 -0.3443 -0.4127
  104MOL   C22735453   5.766   1.854   4.015 -0.2450  0.2888  0.9777
  104MOL   C22835454   5.670   1.920   3.917  0.2527 -0.3990  0.4321
  104MOL   C22935455   5.538   1.918   3.998 -0.2601  0.0118  0.1453
  104MOL   O23035456   5.435   1.954   3.943 -0.5225  0.0858  0.3330
  104MOL   H23135457   5.276   1.805   4.297  2.5420  2.7678  0.8233
  104MOL   H23235458   5.282   1.846   4.123  1.3338  2.3773  0.0558
  104MOL   H23335459   5.492   1.837   4.339 -2.4239 -2.8758 -0.1011
  104MOL   H23435460   5.746   1.937   4.209  0.1240 -0.2143 -0.6269
  104MOL   H23535461   5.717   1.765   4.202 -1.5898  0.5967  1.8125
  104MOL   H23635462   5.862   1.903   3.999 -0.2777 -1.0007 -3.7727
  104MOL   H23735463   5.779   1.749   3.992  0.5744  0.8712 -1.3330
  104MOL   H23835464   5.690   2.024   3.891 -0.5134  0.3298  2.6794
  104MOL   H23935465   5.661   1.853   3.831 -1.9932  2.8572 -2.0320
  104MOL   C24035466   5.428   2.025   4.279  0.8287 -0.3444 -0.5959
  104MOL   C24135467   5.336   2.056   4.400 -0.1274 -0.3148 -0.0153
  104MOL   N24235468   5.345   1.965   4.516 -0.0643 -0.6455 -0.4443
  104MOL   C24335469   5.226   1.898   4.562  0.1724 -0.3991  0.2831
  104MOL   C24435470   5.269   1.802   4.667 -0.4879 -1.1230  0.0516
  104MOL   C24535471   5.401   1.862   4.726  0.5469 -0.1250  0.2837
  104MOL   C24635472   5.446   1.954   4.604  0.0696  0.2754  0.4248
  104MOL   O24735473   5.556   2.008   4.603 -0.7508  0.4760  0.3996
  104MOL   H24835474   5.396   2.079   4.190 -0.9204  1.9708  1.3738
  104MOL   H24935475   5.529   2.066   4.291  0.2731  1.8566 -2.9270
  104MOL   H25035476   5.234   2.037   4.367 -0.3644 -0.3886  0.7519
  104MOL   H25135477   5.147   1.961   4.602 -1.9587 -1.6524 -1.8181
  104MOL   H25235478   5.166   1.866   4.477 -3.7506  2.2892  1.9138
  104MOL   H25335479   5.184   1.793   4.735 -1.6918 -1.5544 -1.4791
  104MOL   H25435480   5.294   1.716   4.604  0.5467 -0.0809 -0.9869
  104MOL   H25535481   5.399   1.919   4.819 -0.9508  0.6347 -0.2033
  104MOL   H25635482   5.479   1.787   4.736  0.3853 -0.2298  0.8046
  104MOL   C25735483   5.350   2.205   4.454 -0.0186 -0.0359  0.0579
  104MOL   C25835484   5.283   2.306   4.357  0.0902 -0.1659 -0.2903
  104MOL   N25935485   5.150   2.329   4.406  0.3607 -0.1510 -0.0311
  104MOL   C26035486   5.034   2.264   4.340  0.0011 -0.1869 -0.3142
  104MOL   C26135487   4.912   2.306   4.423 -0.3908  0.4525  0.5912
  104MOL   C26235488   4.964   2.371   4.549  0.1411 -0.0233 -0.1496
  104MOL   C26335489   5.113   2.395   4.519 -0.0120  0.5326  0.0071
  104MOL   O26435490   5.190   2.461   4.594  0.0582 -0.6183 -0.2947
  104MOL   H26535491   5.450   2.239   4.481 -0.5174  3.0181 -1.6770
  104MOL   H26635492   5.305   2.216   4.553 -0.4424 -0.9070 -0.0329
  104MOL   H26735493   5.282   2.261   4.257  1.9736  1.1015 -0.8980
  104MOL   H26835494   5.025   2.294   4.236 -1.2171  1.3960  0.2262
  104MOL   H26935495   5.047   2.157   4.355  0.0726  0.2358  2.9404
  104MOL   H27035496   4.847   2.382   4.379  1.5348  2.6910  1.5211
  104MOL   H27135497   4.855   2.214   4.442  0.7039 -0.4474 -0.4576
  104MOL   H27235498   4.929   2.471   4.575 -0.5151 -0.3585  0.2862
  104MOL   H27335499   4.964   2.309   4.639 -3.2737  0.0420 -0.0355
  104MOL   C27435500   5.379   2.433   4.351 -0.0849 -0.1287  1.5635
  104MOL   C27535501   5.508   2.428   4.272  0.4201  0.5197  0.8062
  104MOL   N27635502   5.497   2.407   4.128 -0.0915  0.1063  0.0342
  104MOL   C27735503   5.599   2.327   4.063  0.1717  0.4765  0.1836
  104MOL   C27835504   5.577   2.347   3.911  0.6481 -0.8120  0.1143
  104MOL   C27935505   5.437   2.415   3.896 -0.2810 -0.2561 -0.8010
  104MOL   C28035506   5.398   2.447   4.043  0.1016  0.3074  0.1302
  104MOL   O28135507   5.300   2.510   4.070  0.2274 -0.6215  0.3726
  104MOL   H28235508   5.400   2.464   4.453 -1.1420  0.5737  1.5789
  104MOL   H28335509   5.320   2.514   4.308  3.4855  1.6378 -0.2471
  104MOL   H28435510   5.559   2.339   4.309 -1.3579 -0.5095  0.8614
  104MOL   H28535511   5.696   2.369   4.087  0.8752 -0.5994 -0.7199
  104MOL   H28635512   5.604   2.220   4.081  2.3524  0.1114 -2.3404
  104MOL   H28735513   5.660   2.404   3.869 -0.6625  0.7484 -0.3897
  104MOL   H28835514   5.576   2.248   3.865 -0.9685 -0.6835 -0.1384
  104MOL   H28935515   5.433   2.502   3.831 -0.4994  0.6594  0.4223
  104MOL   H29035516   5.358   2.347   3.861 -0.4807 -0.2785 -0.3163
  104MOL   C29135517   5.601   2.554   4.295  0.1728 -0.1000 -0.4386
  104MOL   C29235518   5.692   2.545   4.414  0.2113  0.3574  0.0552
  104MOL   N29335519   5.773   2.419   4.424  0.5288 -0.7155 -0.4000
  104MOL   C29435520   5.764   2.340   4.546 -0.5976 -0.8972  0.1802
  104MOL   C29535521   5.818   2.203   4.508  0.1869 -0.4492 -0.4575
  104MOL   C29635522   5.908   2.231   4.388 -0.9455  0.3047  0.1576
  104MOL   C29735523   5.862   2.365   4.336 -0.4740 -0.0618  0.7115
  104MOL   O29835524   5.892   2.414   4.226  0.8438  0.5621  0.3628
  104MOL   H29935525   5.543   2.645   4.281 -1.1456 -0.9649 -0.6996
  104MOL   H30035526   5.668   2.560   4.209  1.7572  0.0902  0.7680
  104MOL   H30135527   5.619   2.542   4.494  0.3486 -0.4044  0.1587
  104MOL   H30235528   5.824   2.390   4.622 -1.5313 -1.9899  1.6753
  104MOL   H30335529   5.663   2.329   4.586 -0.8976 -3.3481 -1.1213
  104MOL   H30435530   5.862   2.160   4.599  2.0458  3.5221  0.6376
  104MOL   H30535531   5.738   2.138   4.473 -0.5813  0.0143  0.3980
  104MOL   H30635532   6.013   2.231   4.418 -0.9225 -0.8411  0.1107
  104MOL   H30735533   5.905   2.155   4.310  3.8916 -0.0355  0.1562
  104MOL   C30835534   5.795   2.657   4.443  0.3189 -0.5523 -0.3791
  104MOL   C30935535   5.730   2.799   4.436 -0.1042 -0.0448  0.2692
  104MOL   N31035536   5.620   2.806   4.535 -0.4629 -0.4187  0.7314
  104MOL   C31135537   5.504   2.880   4.499  0.0334 -0.3755 -0.5535
  104MOL   C31235538   5.407   2.880   4.627  0.6862  0.2028  0.7081
  104MOL   C31335539   5.490   2.820   4.737 -0.0392 -0.1022  0.4986
  104MOL   C31435540   5.615   2.767   4.669 -1.2382  0.0892  0.5186
  104MOL   O31535541   5.704   2.702   4.731  0.3358  0.1672  0.1596
  104MOL   H31635542   5.874   2.651   4.369 -0.0949  2.4048 -1.1202
  104MOL   H31735543   5.845   2.639   4.538 -2.1590  3.6070  1.8725
  104MOL   H31835544   5.690   2.821   4.337  0.2420 -1.0227 -0.0948
  104MOL   H31935545   5.535   2.977   4.459 -0.6715 -0.1452 -0.5462
  104MOL   H32035546   5.453   2.839   4.412  0.2512 -1.8039 -0.0229
  104MOL   H32135547   5.351   2.969   4.654  0.5892 -0.5838  3.1800
  104MOL   H32235548   5.330   2.803   4.613  2.3194 -1.3207 -0.1658
  104MOL   H32335549   5.524   2.894   4.809 -0.7509  0.5349  0.1839
  104MOL   H32435550   5.452   2.734   4.792  1.1784 -0.4123  0.8641
  104MOL   C32535551   5.828   2.914   4.469 -0.4085  0.0688  0.1316
  104MOL   C32635552   5.925   2.942   4.359 -0.4703 -0.0817  0.1451
  104MOL   N32735553   6.022   3.054   4.389  0.3438 -0.4363  0.2071
  104MOL   C32835554   5.981   3.186   4.423 -0.4973  0.6339 -0.1150
  104MOL   C32935555   6.105   3.268   4.454 -0.3764 -0.3875 -0.1059
  104MOL   C33035556   6.221   3.188   4.392 -0.1102 -0.6104 -0.1663
  104MOL   C33135557   6.154   3.049   4.368  0.1139 -0.0282  0.1294
  104MOL   O33235558   6.221   2.951   4.342 -0.0166  0.5404  0.2742
  104MOL   H33335559   5.872   2.889   4.566 -0.0365 -1.0412 -0.3086
  104MOL   H33435560   5.780   3.009   4.490  1.2873  1.1687 -0.8307
  104MOL   H33535561   5.870   2.976   4.272 -1.4934 -1.0958  0.3810
  104MOL   H33635562   5.930   3.232   4.339 -3.6978 -0.6476  1.0510
  104MOL   H33735563   5.902   3.180   4.498 -0.2629 -1.6194 -0.0075
  104MOL   H33835564   6.101   3.371   4.418  1.6204 -0.5107 -0.7242
  104MOL   H33935565   6.136   3.275   4.559  0.4842  1.3325 -0.4508
  104MOL   H34035566   6.255   3.232   4.298 -1.7451  1.7398  0.2897
  104MOL   H34135567   6.308   3.186   4.457 -2.5317  3.7490  3.4780
  104MOL   H34235568   5.984   2.857   4.325  0.8976  0.5073  0.9782
  105MOL     C135569   1.767   1.188   6.901 -0.0115  0.0370  0.0134
  105MOL     C235570   1.804   1.266   7.025  0.6805 -0.4715 -0.5946
  105MOL     N335571   1.705   1.277   7.131 -0.6264 -0.6014  0.0134
  105MOL     C435572   1.618   1.389   7.136  0.3784 -0.0038 -0.5132
  105MOL     C535573   1.539   1.374   7.263  0.4725  0.1000  0.5893
  105MOL     C635574   1.559   1.227   7.298 -0.1002  0.8876  0.2964
  105MOL     C735575   1.665   1.180   7.211 -0.4465 -0.1989  0.3516
  105MOL     O835576   1.689   1.060   7.204  0.2243 -0.7815  0.4731
  105MOL     H935577   1.669   1.204   6.855  0.4480  1.9534 -0.3122
  105MOL    H1035578   1.828   1.206   6.812 -0.0339 -3.1698 -0.7106
  105MOL    H1135579   1.826   1.366   6.987 -1.2194  0.1056 -0.2119
  105MOL    H1235580   1.667   1.487   7.139  0.4165 -0.0496  0.5531
  105MOL    H1335581   1.558   1.377   7.046  0.4816  1.6845 -0.8250
  105MOL    H1435582   1.573   1.443   7.341  0.6687  1.1834 -0.4525
  105MOL    H1535583   1.440   1.401   7.228  0.4869 -0.4435  0.1237
  105MOL    H1635584   1.591   1.210   7.401 -1.2825  0.2459  0.5659
  105MOL    H1735585   1.464   1.174   7.289  0.1307  0.7742 -1.7748
  105MOL    H1835586   1.777   1.079   6.909 -0.3072  0.0261  0.2593
  105MOL    C1935587   1.943   1.222   7.078 -0.3517  0.2978  0.1361
  105MOL    C2035588   2.037   1.322   7.148  0.1474 -0.1921  0.5699
  105MOL    N2135589   2.129   1.256   7.232  0.1886 -0.1319 -0.2969
  105MOL    C2235590   2.087   1.217   7.368 -0.9952  0.1789  0.2088
  105MOL    C2335591   2.205   1.125   7.417 -1.1317 -0.0058 -0.0236
  105MOL    C2435592   2.321   1.153   7.321 -0.3988 -0.1579 -0.2690
  105MOL    C2535593   2.249   1.200   7.198 -0.2307  0.6646 -0.9245
  105MOL    O2635594   2.280   1.175   7.080  0.2226  0.4894  0.0253
  105MOL    H2735595   2.001   1.184   6.994 -0.8959 -1.6169  0.5897
  105MOL    H2835596   1.931   1.130   7.136 -0.8297 -0.1491 -0.6714
  105MOL    H2935597   1.977   1.374   7.223 -1.0571 -1.1830  0.3087
  105MOL    H3035598   2.077   1.301   7.437 -0.4004 -1.8424  2.8322
  105MOL    H3135599   1.989   1.168   7.369 -1.2424  0.7047  1.5651
  105MOL    H3235600   2.232   1.142   7.521  0.1431  1.0498 -0.5108
  105MOL    H3335601   2.176   1.020   7.405  1.9913 -0.9057 -0.2924
  105MOL    H3435602   2.386   1.232   7.356 -1.0802 -0.1320  0.9545
  105MOL    H3535603   2.376   1.061   7.305  2.0313  1.5718 -2.2322
  105MOL    C3635604   2.093   1.436   7.057 -0.1599 -0.8608  0.0723
  105MOL    C3735605   2.213   1.523   7.106  0.4398 -0.4473  0.2843
  105MOL    N3835606   2.259   1.620   7.000 -0.1870  0.1875  0.1419
  105MOL    C3935607   2.375   1.580   6.921  0.1521  0.3458  0.0695
  105MOL    C4035608   2.398   1.689   6.824  0.6353  0.2971 -1.5090
  105MOL    C4135609   2.287   1.786   6.844  0.4394  0.2504  0.2662
  105MOL    C4235610   2.203   1.736   6.959  0.0193  0.5195 -1.2896
  105MOL    O4335611   2.094   1.786   6.996 -0.3267  0.2756 -0.1953
  105MOL    H4435612   2.011   1.506   7.041  0.8925  0.0186 -1.7666
  105MOL    H4535613   2.134   1.398   6.963  3.6721  2.3722  0.2773
  105MOL    H4635614   2.302   1.459   7.113 -0.2177 -1.2979  0.9269
  105MOL    H4735615   2.468   1.567   6.976  1.3255  0.2238 -1.8870
  105MOL    H4835616   2.363   1.487   6.865 -0.4603  1.5395 -1.8218
  105MOL    H4935617   2.491   1.741   6.850 -0.7286  0.3628  3.9742
  105MOL    H5035618   2.402   1.653   6.722 -0.5451  0.0280 -1.4642
  105MOL    H5135619   2.327   1.886   6.857 -2.0463  1.3538 -0.2478
  105MOL    H5235620   2.211   1.793   6.766 -1.5064  1.5160  2.1899
  105MOL    C5335621   2.181   1.590   7.242  0.0956  0.4136 -0.5867
  105MOL    C5435622   2.282   1.681   7.315 -0.3430  1.2151 -0.5212
  105MOL    N5535623   2.227   1.767   7.415  0.1547 -0.2082  0.1071
  105MOL    C5635624   2.245   1.912   7.408  0.5575  0.4191  0.0735
  105MOL    C5735625   2.195   1.966   7.542 -0.1600  0.7612 -0.3197
  105MOL    C5835626   2.164   1.843   7.630 -0.5421 -0.3518 -0.2897
  105MOL    C5935627   2.173   1.729   7.535  0.3034 -0.2592 -0.5561
  105MOL    O6035628   2.146   1.615   7.559 -0.4841 -0.1902 -0.0573
  105MOL    H6135629   2.158   1.515   7.318 -1.2627  1.9328  0.5384
  105MOL    H6235630   2.095   1.653   7.223  0.3292  0.4902 -1.4379
  105MOL    H6335631   2.316   1.747   7.235  0.7656  0.1002 -0.9825
  105MOL    H6435632   2.347   1.944   7.388 -0.1761  2.6281 -0.3371
  105MOL    H6535633   2.179   1.946   7.328  2.7844  0.7497 -1.6814
  105MOL    H6635634   2.276   2.028   7.580 -0.4599  3.0109 -3.1640
  105MOL    H6735635   2.117   2.041   7.525 -0.2407  0.7124 -0.1635
  105MOL    H6835636   2.232   1.821   7.713  0.7435 -0.4805 -1.3568
  105MOL    H6935637   2.063   1.843   7.672 -0.3268  0.1099  0.2336
  105MOL    C7035638   2.408   1.597   7.357  0.1612  0.0416  0.0039
  105MOL    C7135639   2.533   1.690   7.374 -0.0310  0.4969 -0.7250
  105MOL    N7235640   2.622   1.625   7.469 -0.1203  0.1548 -0.3578
  105MOL    C7335641   2.588   1.652   7.612 -0.7237  0.0414 -1.0604
  105MOL    C7435642   2.700   1.572   7.691  0.1459  0.2188 -0.7223
  105MOL    C7535643   2.765   1.484   7.595  0.6394  0.8681  0.1683
  105MOL    C7635644   2.726   1.538   7.458 -0.7167  0.0521  0.0810
  105MOL    O7735645   2.778   1.503   7.351 -0.1427  0.2280 -0.0685
  105MOL    H7835646   2.440   1.521   7.287  1.6022  0.3566  0.3025
  105MOL    H7935647   2.379   1.546   7.449  0.9486  2.3934  1.5978
  105MOL    H8035648   2.505   1.787   7.416 -0.6765  0.1343 -0.3289
  105MOL    H8135649   2.597   1.756   7.644  2.3907 -0.3238 -0.5907
  105MOL    H8235650   2.489   1.608   7.630 -0.9588  0.8397 -0.3902
  105MOL    H8335651   2.776   1.641   7.728 -0.5004  2.0583 -2.7701
  105MOL    H8435652   2.640   1.524   7.769  1.7610 -1.4256 -0.4524
  105MOL    H8535653   2.873   1.466   7.595  0.6183  0.7478  0.4908
  105MOL    H8635654   2.705   1.394   7.603  0.5644  0.7523 -1.5414
  105MOL    C8735655   2.588   1.714   7.228  0.6694 -0.6308  0.0123
  105MOL    C8835656   2.718   1.803   7.228 -0.0969 -0.2658 -0.0047
  105MOL    N8935657   2.752   1.844   7.091 -0.1330  0.4166 -0.2214
  105MOL    C9035658   2.886   1.812   7.037 -0.9543 -0.0406  0.6022
  105MOL    C9135659   2.892   1.886   6.901 -0.0428 -0.7431 -0.9399
  105MOL    C9235660   2.752   1.950   6.884  0.2086 -0.1930  0.4644
  105MOL    C9335661   2.679   1.926   7.010 -0.0193 -0.4746  1.0702
  105MOL    O9435662   2.571   1.971   7.037  0.5330 -0.5541  0.0439
  105MOL    H9535663   2.516   1.780   7.179  1.0135 -0.3912 -0.1753
  105MOL    H9635664   2.596   1.619   7.176 -2.5541 -1.9998  1.9171
  105MOL    H9735665   2.798   1.737   7.262 -0.6962  0.2021  2.4643
  105MOL    H9835666   2.949   1.852   7.116 -1.7364  1.3162  0.5592
  105MOL    H9935667   2.923   1.710   7.038  0.3725  0.4414  1.9085
  105MOL   H10035668   2.973   1.959   6.892  0.6715 -1.7821 -3.4503
  105MOL   H10135669   2.892   1.816   6.817 -0.9986 -0.5646 -1.0899
  105MOL   H10235670   2.760   2.058   6.875  1.1387 -0.4025 -1.5255
  105MOL   H10335671   2.697   1.922   6.794  2.3778  3.1959 -2.0486
  105MOL   C10435672   2.728   1.922   7.325  0.4796 -0.7935  0.9975
  105MOL   C10535673   2.816   1.909   7.444 -0.2291  0.7548  0.0157
  105MOL   N10635674   2.959   1.915   7.410 -0.4795  0.2468  0.1393
  105MOL   C10735675   3.051   1.810   7.458  0.5828  0.3906  0.0086
  105MOL   C10835676   3.199   1.870   7.456 -0.1110  0.5831  0.4106
  105MOL   C10935677   3.187   1.971   7.340 -0.2784  0.3310 -0.2480
  105MOL   C11035678   3.035   1.995   7.342  0.1804  0.2811  0.0605
  105MOL   O11135679   2.999   2.090   7.280  0.4089  0.3852  0.7598
  105MOL   H11235680   2.626   1.937   7.361  0.4192 -0.4313  0.6823
  105MOL   H11335681   2.747   2.013   7.268 -0.2528 -1.0461  0.3404
  105MOL   H11435682   2.802   1.807   7.481  0.9630  0.4990 -0.2149
  105MOL   H11535683   3.019   1.782   7.559  0.1758  2.2530  0.4228
  105MOL   H11635684   3.038   1.728   7.387 -1.1067 -0.0121  0.7397
  105MOL   H11735685   3.216   1.933   7.543 -1.2607  2.2886 -0.5759
  105MOL   H11835686   3.273   1.791   7.441 -0.3931  0.6766 -1.5816
  105MOL   H11935687   3.206   1.924   7.243 -1.5039  0.1656 -0.4220
  105MOL   H12035688   3.253   2.057   7.345 -0.2001  0.2298  0.4002
  105MOL   C12135689   2.778   1.995   7.564 -0.5624  0.4552 -0.1137
  105MOL   C12235690   2.792   2.153   7.551  0.5710 -0.2479  0.2757
  105MOL   N12335691   2.672   2.210   7.482 -0.2955 -0.0112 -0.4419
  105MOL   C12435692   2.699   2.280   7.360 -0.1176  0.5792  0.4496
  105MOL   C12535693   2.571   2.280   7.289  0.2940  0.8771  0.5582
  105MOL   C12635694   2.468   2.283   7.404  0.0031  0.0510 -0.7415
  105MOL   C12735695   2.536   2.211   7.515 -0.3588  0.2878  0.3766
  105MOL   O12835696   2.482   2.157   7.612 -0.1345  0.1566 -0.0878
  105MOL   H12935697   2.849   1.962   7.639  0.4855 -0.7452 -1.6076
  105MOL   H13035698   2.673   1.988   7.593 -0.8982  1.1224 -1.0925
  105MOL   H13135699   2.882   2.179   7.495 -1.0008  1.2720 -1.6161
  105MOL   H13235700   2.774   2.227   7.301 -1.6869 -0.6206 -0.5103
  105MOL   H13335701   2.716   2.386   7.379  0.3441  0.5969 -0.0406
  105MOL   H13435702   2.559   2.367   7.224  1.5085 -0.7420 -1.9401
  105MOL   H13535703   2.573   2.186   7.234  0.4310  0.4269  1.3241
  105MOL   H13635704   2.450   2.389   7.422 -2.3063  0.1694 -3.3485
  105MOL   H13735705   2.372   2.240   7.374  0.5070 -0.8253 -1.1088
  105MOL   C13835706   2.800   2.204   7.698 -0.2399 -0.3369 -0.0656
  105MOL   C13935707   2.857   2.354   7.721  0.0586  0.3891 -0.2375
  105MOL   N14035708   2.821   2.410   7.859 -0.6267  0.7826  0.1564
  105MOL   C14135709   2.772   2.544   7.884 -0.2628  0.4253  0.4227
  105MOL   C14235710   2.737   2.556   0.127 -0.3986 -0.2202  0.2239
  105MOL   C14335711   2.769   2.421   0.181  0.4949 -0.4782  0.1452
  105MOL   C14435712   2.814   2.339   0.064  0.2142 -0.5709 -0.0326
  105MOL   O14535713   2.837   2.221   0.069 -0.7152  0.3252 -0.4533
  105MOL   H14635714   2.855   2.131   7.757  0.1631 -0.6861 -0.8713
  105MOL   H14735715   2.702   2.205   7.746 -1.1484 -0.2420 -1.8716
  105MOL   H14835716   2.810   2.417   7.644  0.3340 -1.2244 -1.7511
  105MOL   H14935717   2.855   2.615   7.872 -0.9567  0.9662 -1.1962
  105MOL   H15035718   2.693   2.583   7.821  1.4881 -0.7654 -2.6099
  105MOL   H15135719   2.799   2.630   0.176  1.5209 -1.7928  0.2044
  105MOL   H15235720   2.632   2.578   0.149 -0.1234  2.0509 -0.6409
  105MOL   H15335721   2.679   2.368   0.212  0.3348 -0.8512 -0.9697
  105MOL   H15435722   2.853   2.425   0.251  1.8032  0.0073 -1.4412
  105MOL   C15535723   3.014   2.349   7.716  0.2384 -0.1561  0.4650
  105MOL   C15635724   3.072   2.432   7.609 -0.3522 -0.0560  0.3392
  105MOL   N15735725   3.221   2.440   7.632  0.4220  0.1662  0.4263
  105MOL   C15835726   3.280   2.552   7.704  0.4872  0.1235 -0.4289
  105MOL   C15935727   3.431   2.526   7.709  0.2848 -0.2189  0.1202
  105MOL   C16035728   3.450   2.392   7.638  0.1475  0.1957  0.1410
  105MOL   C16135729   3.309   2.345   7.607  0.0605 -0.1687 -0.7808
  105MOL   O16235730   3.295   2.234   7.548 -0.0412 -0.9446  0.6235
  105MOL   H16335731   3.050   2.248   7.701  1.5317  0.1804  1.2076
  105MOL   H16435732   3.060   2.378   7.811  0.0502  0.6387  0.3225
  105MOL   H16535733   3.040   2.536   7.608  1.6270  0.5953 -2.4220
  105MOL   H16635734   3.259   2.635   7.636  2.2551  2.5093  1.8252
  105MOL   H16735735   3.231   2.551   7.801  1.3608 -2.1188  0.0209
  105MOL   H16835736   3.470   2.600   7.639  1.1809 -2.1046 -1.4180
  105MOL   H16935737   3.476   2.539   7.807 -0.6445 -0.9763  0.6568
  105MOL   H17035738   3.509   2.401   7.547 -2.4096 -0.7694 -1.6754
  105MOL   H17135739   3.489   2.308   7.696  0.7370  0.5167  0.2102
  105MOL   C17235740   3.039   2.382   7.469  0.0689  0.1486  0.0566
  105MOL   C17335741   3.084   2.478   7.357 -0.5370  0.3635 -0.5076
  105MOL   N17435742   3.072   2.415   7.224  0.4745  0.0589  0.2944
  105MOL   C17535743   3.190   2.347   7.166  0.9178 -0.0554 -0.5616
  105MOL   C17635744   3.145   2.281   7.032  0.3517  0.5286 -0.1760
  105MOL   C17735745   3.003   2.334   7.010 -0.3719  0.1078 -0.4043
  105MOL   C17835746   2.973   2.409   7.137  0.3104  0.0768 -1.1768
  105MOL   O17935747   2.859   2.452   7.156  0.2208 -0.3804  0.0101
  105MOL   H18035748   2.933   2.368   7.449 -0.2559  2.5558 -0.1469
  105MOL   H18135749   3.078   2.283   7.447 -0.1614  0.2761 -0.9758
  105MOL   H18235750   3.189   2.488   7.386 -1.0945  1.1647  1.3369
  105MOL   H18335751   3.257   2.432   7.160  2.1717 -0.9980  0.0232
  105MOL   H18435752   3.227   2.275   7.239  0.4009 -0.1102 -0.3504
  105MOL   H18535753   3.142   2.172   7.031  0.4005  0.5266 -0.1058
  105MOL   H18635754   3.210   2.300   6.946  0.5967 -0.5677 -0.2388
  105MOL   H18735755   2.997   2.399   6.923 -1.1915 -0.5332 -0.8401
  105MOL   H18835756   2.931   2.252   7.001 -1.2928  1.0720 -2.1224
  105MOL   C18935757   3.034   2.624   7.346  0.0480 -0.5858  0.1346
  105MOL   C19035758   3.096   2.717   7.245 -0.3724  0.2408  0.0099
  105MOL   N19135759   3.004   2.827   7.219 -0.8201  0.1077  0.2139
  105MOL   C19235760   2.930   2.829   7.092  0.0578 -0.5086 -0.0168
  105MOL   C19335761   2.816   2.932   7.108 -0.0156 -0.3873  0.8585
  105MOL   C19435762   2.859   3.013   7.237  0.0729 -0.3065 -0.7697
  105MOL   C19535763   2.966   2.926   7.303  0.0539 -0.1910 -0.1411
  105MOL   O19635764   3.025   2.952   7.410  0.3601  0.2038  0.5415
  105MOL   H19735765   3.054   2.664   7.445  0.5611 -0.3225 -0.0747
  105MOL   H19835766   2.925   2.625   7.339 -0.1754 -0.6178  2.8968
  105MOL   H19935767   3.104   2.660   7.153 -1.9596  0.5517 -0.3481
  105MOL   H20035768   2.984   2.860   7.002 -2.1700  1.2950 -0.7915
  105MOL   H20135769   2.894   2.726   7.089 -1.3015 -0.0179 -1.0280
  105MOL   H20235770   2.805   3.009   7.032  2.0697  0.1214  1.0481
  105MOL   H20335771   2.718   2.885   7.122  0.0304 -0.7880 -0.1034
  105MOL   H20435772   2.910   3.108   7.220  2.3776 -1.1301  1.2981
  105MOL   H20535773   2.774   3.027   7.304  1.8444  1.0801  1.2740
  105MOL   C20635774   3.246   2.748   7.293  0.5631 -1.3236  0.3275
  105MOL   C20735775   3.320   2.867   7.219 -0.3013  0.0310 -0.0575
  105MOL   N20835776   3.451   2.896   7.289 -0.1031 -0.8809  0.1473
  105MOL   C20935777   3.464   3.028   7.356 -0.0573 -0.0319 -0.5887
  105MOL   C21035778   3.591   3.009   7.448  0.2690  0.2645  0.1157
  105MOL   C21135779   3.665   2.898   7.384 -0.2141  0.2376  0.2641
  105MOL   C21235780   3.556   2.822   7.317 -0.0292 -0.2560 -0.5521
  105MOL   O21335781   3.568   2.698   7.298 -0.0548  0.5253 -0.0389
  105MOL   H21435782   3.307   2.660   7.273  0.0498 -1.9249  1.3991
  105MOL   H21535783   3.251   2.760   7.401  0.4565  1.6472  0.0551
  105MOL   H21635784   3.258   2.957   7.225 -1.1502 -0.6265  1.2463
  105MOL   H21735785   3.473   3.115   7.291 -0.2087 -0.6695 -1.4667
  105MOL   H21835786   3.376   3.058   7.413  0.2458 -0.1136 -0.0751
  105MOL   H21935787   3.649   3.099   7.469 -1.2475  0.8128  2.1154
  105MOL   H22035788   3.575   2.970   7.549 -1.9203 -1.3490 -0.8112
  105MOL   H22135789   3.722   2.946   7.305  0.3186 -0.5824  0.1432
  105MOL   H22235790   3.740   2.836   7.434  0.1097  0.3787 -0.0441
  105MOL   C22335791   3.338   2.833   7.069 -1.0234  0.3519 -0.0672
  105MOL   C22435792   3.363   2.952   6.977  0.5397 -0.4596 -0.1355
  105MOL   N22535793   3.402   2.907   6.839  0.4864  0.3505 -0.6909
  105MOL   C22635794   3.548   2.896   6.813 -0.6104  0.5369 -0.7275
  105MOL   C22735795   3.559   2.830   6.671  0.6918 -0.0934  0.0653
  105MOL   C22835796   3.419   2.783   6.633  0.4449 -1.0030 -0.0715
  105MOL   C22935797   3.337   2.837   6.741 -0.2166 -0.7310  0.6454
  105MOL   O23035798   3.218   2.803   6.741 -0.1632  0.5708  0.1439
  105MOL   H23135799   3.244   2.788   7.036 -0.7431  0.0067 -0.3962
  105MOL   H23235800   3.415   2.759   7.045 -1.7666 -0.7448  0.8849
  105MOL   H23335801   3.453   2.996   7.020 -0.9761 -0.2870  2.9600
  105MOL   H23435802   3.587   2.998   6.814 -2.2391  1.1767 -1.1475
  105MOL   H23535803   3.596   2.835   6.889 -0.2028 -0.2571 -1.6050
  105MOL   H23635804   3.592   2.902   6.596 -2.0606 -1.2573 -2.3467
  105MOL   H23735805   3.639   2.756   6.663 -0.6288 -1.4591 -0.7347
  105MOL   H23835806   3.388   2.841   6.546  2.0791 -1.1094 -0.7451
  105MOL   H23935807   3.394   2.681   6.607 -2.6796 -0.6824  1.3265
  105MOL   C24035808   3.247   3.050   6.981 -0.1199 -0.6653 -0.2321
  105MOL   C24135809   3.224   3.148   6.855  0.0909 -0.1790  0.7419
  105MOL   N24235810   3.098   3.225   6.870  0.2715  0.0523  0.2746
  105MOL   C24335811   3.094   3.352   6.952  0.2589  0.7795 -0.3391
  105MOL   C24435812   2.944   3.395   6.948 -0.4739  0.5072  0.5139
  105MOL   C24535813   2.866   3.285   6.874 -0.2170 -0.4304  0.2090
  105MOL   C24635814   2.977   3.189   6.831  0.3160  0.8677  0.3385
  105MOL   O24735815   2.950   3.087   6.771 -0.1092  0.5248  0.7808
  105MOL   H24835816   3.274   3.120   7.060  2.9939 -0.5764 -1.3011
  105MOL   H24935817   3.149   3.029   7.022 -0.6009  2.8715  0.5533
  105MOL   H25035818   3.208   3.076   6.775 -1.6057  0.0354  0.8661
  105MOL   H25135819   3.111   3.318   7.055  0.5095 -1.8741 -1.2045
  105MOL   H25235820   3.156   3.434   6.917 -0.7672  0.7554 -2.2569
  105MOL   H25335821   2.890   3.400   7.042  1.3550  1.1496  1.5626
  105MOL   H25435822   2.930   3.494   6.904  0.6129  1.2474  1.7780
  105MOL   H25535823   2.800   3.227   6.939 -0.3906 -0.3082  0.1401
  105MOL   H25635824   2.805   3.324   6.793  0.2284 -0.7110 -0.2664
  105MOL   C25735825   3.341   3.235   6.816 -0.1133 -0.2196 -0.6187
  105MOL   C25835826   3.350   3.275   6.669  0.0371 -0.4354  0.0435
  105MOL   N25935827   3.409   3.413   6.650 -0.5732 -0.0038  0.3123
  105MOL   C26035828   3.340   3.522   6.582 -0.1895  0.1704 -0.4107
  105MOL   C26135829   3.443   3.637   6.581 -0.1549  0.3237  0.0678
  105MOL   C26235830   3.563   3.591   6.659 -0.6008 -0.0347  0.4654
  105MOL   C26335831   3.527   3.450   6.703  0.1011  0.1871  0.5331
  105MOL   O26435832   3.604   3.379   6.763  0.5907  0.3210  0.3681
  105MOL   H26535833   3.433   3.181   6.839  1.4569  0.8759 -4.0500
  105MOL   H26635834   3.346   3.323   6.880 -2.8872 -0.0736 -0.5351
  105MOL   H26735835   3.247   3.287   6.637  0.8890  1.6550 -2.0197
  105MOL   H26835836   3.311   3.497   6.480 -0.5612  1.7464 -0.7103
  105MOL   H26935837   3.249   3.542   6.637  0.4803 -0.0749  0.8058
  105MOL   H27035838   3.467   3.639   6.475  1.0858  0.0928  0.3297
  105MOL   H27135839   3.400   3.735   6.600 -1.0483 -0.4321  2.0206
  105MOL   H27235840   3.658   3.580   6.607 -0.7340 -1.2132  0.4589
  105MOL   H27335841   3.587   3.658   6.742  0.8174 -1.3925  1.1744
  105MOL   C27435842   3.414   3.165   6.580 -0.0187  0.4552  0.4805
  105MOL   C27535843   3.434   3.205   6.437  0.3974  0.2562  0.1113
  105MOL   N27635844   3.572   3.240   6.396  0.0673  0.3382  0.2574
  105MOL   C27735845   3.598   3.369   6.330 -0.1955  0.3656  0.6508
  105MOL   C27835846   3.744   3.373   6.312 -0.1682 -0.5910 -0.1362
  105MOL   C27935847   3.801   3.228   6.334 -0.5745  1.1820  0.0039
  105MOL   C28035848   3.681   3.160   6.385  0.4763  0.1381 -0.8128
  105MOL   O28135849   3.676   3.039   6.411 -0.4468 -0.0198  0.5217
  105MOL   H28235850   3.351   3.077   6.585 -0.2761  0.4559 -2.1403
  105MOL   H28335851   3.508   3.139   6.628  1.5862  0.1706 -2.6606
  105MOL   H28435852   3.377   3.296   6.418 -2.3314 -1.4864 -0.3174
  105MOL   H28535853   3.553   3.375   6.231 -0.4280  0.2020  0.7461
  105MOL   H28635854   3.552   3.441   6.398 -0.4850  0.2418  0.5871
  105MOL   H28735855   3.770   3.417   6.216  1.7581 -0.4805  0.4080
  105MOL   H28835856   3.782   3.440   6.389 -0.2646 -1.8408  1.0217
  105MOL   H28935857   3.839   3.195   6.238  1.9876  1.6599  0.8124
  105MOL   H29035858   3.884   3.233   6.404 -0.6898  0.9055  0.1605
  105MOL   C29135859   3.379   3.102   6.344 -0.1385 -0.0568  0.1892
  105MOL   C29235860   3.226   3.064   6.333  0.1484 -0.4466 -0.3051
  105MOL   N29335861   3.132   3.174   6.336  0.0104 -0.3468  0.1231
  105MOL   C29435862   3.028   3.171   6.436  0.0328 -0.0216  0.1467
  105MOL   C29535863   2.962   3.308   6.431 -0.7633 -0.2948  0.0874
  105MOL   C29635864   3.034   3.383   6.321 -0.2187  0.4798  0.2127
  105MOL   C29735865   3.140   3.288   6.271  0.3501 -0.2566 -0.3378
  105MOL   O29835866   3.217   3.308   6.179  0.2482  0.4570 -0.0421
  105MOL   H29935867   3.439   3.014   6.364  2.5065  1.0745 -2.4461
  105MOL   H30035868   3.413   3.124   6.243 -1.1838 -0.1357 -0.1893
  105MOL   H30135869   3.205   2.995   6.415 -0.2764 -1.1819 -1.0294
  105MOL   H30235870   2.954   3.094   6.417 -0.8248  1.0655 -0.9971
  105MOL   H30335871   3.051   3.145   6.539 -1.8380 -3.5366 -0.2720
  105MOL   H30435872   2.855   3.300   6.414 -0.5893 -0.3129 -1.0509
  105MOL   H30535873   2.969   3.355   6.528 -2.4062  1.6849 -0.7130
  105MOL   H30635874   2.976   3.422   6.237 -0.2286 -0.4573 -0.2166
  105MOL   H30735875   3.085   3.473   6.355  1.8473  0.3195 -2.2750
  105MOL   C30835876   3.211   2.986   6.203  0.2264 -0.9519  0.0962
  105MOL   C30935877   3.242   2.831   6.214  0.3688 -0.3741  0.4814
  105MOL   N31035878   3.119   2.765   6.274 -0.1672 -0.0991 -0.1603
  105MOL   C31135879   3.116   2.714   6.411 -0.2236 -0.9746  0.1746
  105MOL   C31235880   2.990   2.632   6.422  0.0597 -0.0365 -0.2507
  105MOL   C31335881   2.902   2.673   6.300  0.0310 -0.4179 -0.2092
  105MOL   C31435882   3.004   2.744   6.210 -0.1262 -0.4359  0.2792
  105MOL   O31535883   2.976   2.771   6.092  0.5423 -0.0538  0.1021
  105MOL   H31635884   3.256   3.044   6.122 -0.5842 -1.2565 -0.5796
  105MOL   H31735885   3.107   2.994   6.170 -0.3633  1.2905  2.3011
  105MOL   H31835886   3.332   2.823   6.275  1.8701  1.4327 -1.4200
  105MOL   H31935887   3.201   2.651   6.439  0.8136 -0.7478 -2.2998
  105MOL   H32035888   3.123   2.797   6.480  0.5979  2.0645 -3.3751
  105MOL   H32135889   3.015   2.526   6.416  0.5255  0.0007  0.9229
  105MOL   H32235890   2.947   2.640   6.522 -1.2309 -1.7364 -0.6421
  105MOL   H32335891   2.874   2.582   6.246  0.9986 -0.2818 -0.9426
  105MOL   H32435892   2.825   2.750   6.312  0.3524 -0.2918  1.0994
  105MOL   C32535893   3.277   2.767   6.078  0.3938 -0.9638 -0.1798
  105MOL   C32635894   3.418   2.787   6.021 -0.1126  0.3455 -0.3348
  105MOL   N32735895   3.516   2.748   6.120 -0.7821 -0.2049  0.4112
  105MOL   C32835896   3.624   2.847   6.142 -0.3096  0.2811 -0.1229
  105MOL   C32935897   3.723   2.779   6.239  0.2175  0.1084 -0.5776
  105MOL   C33035898   3.652   2.648   6.274 -0.1399 -0.0843 -0.7814
  105MOL   C33135899   3.540   2.633   6.179 -0.1597  0.6280 -0.5863
  105MOL   O33235900   3.479   2.527   6.165  0.2427 -0.1400  0.3191
  105MOL   H33335901   3.205   2.803   6.005 -1.1324  1.5886  2.4532
  105MOL   H33435902   3.266   2.659   6.092 -2.2733 -0.6268  0.6702
  105MOL   H33535903   3.418   2.890   5.987 -0.2962  0.5825  0.3898
  105MOL   H33635904   3.668   2.872   6.046  0.3928 -0.4842 -0.0079
  105MOL   H33735905   3.577   2.939   6.176  1.2666  0.8859  0.4244
  105MOL   H33835906   3.818   2.759   6.189  0.1407  1.5160 -1.3336
  105MOL   H33935907   3.771   2.840   6.316 -1.9630 -0.1566  1.0183
  105MOL   H34035908   3.726   2.570   6.256 -1.0740 -2.0538  3.1859
  105MOL   H34135909   3.609   2.648   6.375  1.3500 -0.1609 -0.1347
  105MOL   H34235910   3.432   2.735   5.926  0.5083  1.7884 -1.0419
  106MOL     C135911   6.545   5.166   4.452  0.0440 -0.1132  0.5645
  106MOL     C235912   6.517   5.305   4.392  0.1837 -0.0894  0.3229
  106MOL     N335913   6.634   5.353   4.317  0.1641 -0.2331  0.0764
  106MOL     C435914   6.694   5.486   4.339  0.0337  1.4889 -0.3811
  106MOL     C535915   6.783   5.519   4.220 -0.0534  0.3155 -0.3829
  106MOL     C635916   6.784   5.385   4.140  0.0753 -0.4270 -0.5026
  106MOL     C735917   6.677   5.300   4.203  0.5661  0.1066  0.3860
  106MOL     O835918   6.642   5.192   4.162 -0.2828 -0.5133 -0.0688
  106MOL     H935919   6.525   5.091   4.376  0.8349  0.8832 -0.6537
  106MOL    H1035920   6.645   5.165   4.497 -0.3507  1.2455  1.5104
  106MOL    H1135921   6.523   5.369   4.480  0.6410  0.5297 -0.1510
  106MOL    H1235922   6.615   5.552   4.373 -2.0978 -0.5900 -1.1700
  106MOL    H1335923   6.759   5.474   4.426 -1.1983  1.2605  0.5197
  106MOL    H1435924   6.750   5.601   4.156  1.7462  0.5954 -0.9612
  106MOL    H1535925   6.880   5.547   4.261 -0.7120  0.6403  1.0158
  106MOL    H1635926   6.736   5.389   4.043  0.1712  0.8838 -0.5014
  106MOL    H1735927   6.878   5.329   4.134 -0.5094 -1.2587 -1.9947
  106MOL    H1835928   6.473   5.145   4.531  0.0528 -2.3777  0.0030
  106MOL    C1935929   6.381   5.317   4.327  0.3057 -0.4483  0.4467
  106MOL    C2035930   6.251   5.332   4.412  0.4041  0.0169 -0.5430
  106MOL    N2135931   6.238   5.470   4.462  0.9358 -0.0643  0.4291
  106MOL    C2235932   6.240   5.490   4.601  0.5772  0.5213  0.0018
  106MOL    C2335933   6.216   5.646   4.628 -0.1687  0.0400  0.3455
  106MOL    C2435934   6.182   5.700   4.490 -0.0721 -0.2919  0.4004
  106MOL    C2535935   6.210   5.585   4.396 -0.1774 -1.1066 -0.0188
  106MOL    O2635936   6.205   5.609   4.276 -0.2316  0.3684 -0.2529
  106MOL    H2735937   6.359   5.216   4.292  2.8669 -0.9179  0.0929
  106MOL    H2835938   6.379   5.380   4.238 -1.6847 -0.6916  0.2801
  106MOL    H2935939   6.277   5.260   4.489  0.4241 -0.3040 -0.8515
  106MOL    H3035940   6.185   5.412   4.654  3.1731 -0.6042  1.1074
  106MOL    H3135941   6.340   5.464   4.636  0.4543 -0.1806 -0.1681
  106MOL    H3235942   6.129   5.654   4.693  1.1479 -0.8202  2.2543
  106MOL    H3335943   6.301   5.684   4.685  0.3850 -1.2338  0.3888
  106MOL    H3435944   6.077   5.729   4.476 -0.6645 -2.6086 -0.1709
  106MOL    H3535945   6.255   5.775   4.460  0.8521 -1.1683  0.4435
  106MOL    C3635946   6.124   5.288   4.337 -0.2940 -0.3350  0.5103
  106MOL    C3735947   6.092   5.131   4.338 -0.2699  0.8727 -0.1397
  106MOL    N3835948   6.042   5.080   4.470 -0.5166 -0.4093 -0.0333
  106MOL    C3935949   5.902   5.086   4.505 -0.2613 -0.5235 -0.0239
  106MOL    C4035950   5.897   5.039   4.656 -0.3139  0.5280  0.4289
  106MOL    C4135951   6.036   5.017   4.703 -0.3306 -0.3772 -0.6912
  106MOL    C4235952   6.121   5.030   4.573 -0.3571  0.2349 -0.4508
  106MOL    O4335953   6.239   4.997   4.571 -0.3166 -0.3356  0.5114
  106MOL    H4435954   6.115   5.331   4.237 -0.4594 -0.3180  0.5321
  106MOL    H4535955   6.039   5.329   4.392  0.2026  2.5817 -0.8066
  106MOL    H4635956   6.185   5.076   4.322  0.0755  0.6511  2.3226
  106MOL    H4735957   5.865   5.188   4.495  0.2984 -0.4579 -1.4855
  106MOL    H4835958   5.853   5.012   4.441  1.2428 -0.9044 -0.7478
  106MOL    H4935959   5.859   5.126   4.711  2.3341  0.3869  2.6160
  106MOL    H5035960   5.841   4.953   4.691 -1.3003  0.3873 -1.4531
  106MOL    H5135961   6.059   5.101   4.769  1.1676 -1.1002 -0.2841
  106MOL    H5235962   6.056   4.926   4.758 -0.9767 -1.1265 -1.6698
  106MOL    C5335963   5.997   5.081   4.227  0.4012 -0.7864 -0.7311
  106MOL    C5435964   6.044   5.111   4.083  0.0648 -0.1768 -0.1973
  106MOL    N5535965   6.175   5.051   4.050  0.3793 -0.3124  0.7087
  106MOL    C5635966   6.278   5.124   3.983 -0.0918  0.2362  0.0230
  106MOL    C5735967   6.408   5.041   3.975 -0.2948  1.0820 -0.3455
  106MOL    C5835968   6.354   4.900   4.009 -0.3074 -0.0104  0.1076
  106MOL    C5935969   6.208   4.921   4.051  0.4030 -0.3081  0.1735
  106MOL    O6035970   6.134   4.831   4.093  0.0658 -0.5349  0.2201
  106MOL    H6135971   5.898   5.121   4.249 -0.0291 -2.3993  0.3967
  106MOL    H6235972   5.992   4.972   4.238  1.0136 -0.6615  0.8094
  106MOL    H6335973   6.068   5.217   4.074 -0.7680  0.0295 -0.0670
  106MOL    H6435974   6.247   5.151   3.882  1.3439  1.9851  0.0294
  106MOL    H6535975   6.297   5.218   4.035 -0.0256  0.1489  0.1554
  106MOL    H6635976   6.461   5.056   3.882  0.5813  0.1688 -0.0053
  106MOL    H6735977   6.477   5.061   4.057 -0.2792 -0.4979  0.0618
  106MOL    H6835978   6.377   4.829   3.929 -1.3623 -0.5742  0.2974
  106MOL    H6935979   6.409   4.846   4.087 -1.2280 -0.4257  0.4724
  106MOL    C7035980   5.940   5.071   3.979 -0.4258  0.4045 -0.2074
  106MOL    C7135981   5.808   5.144   3.980 -0.1302  0.7682  0.4671
  106MOL    N7235982   5.808   5.292   3.968  0.6963  0.6575 -0.2032
  106MOL    C7335983   5.709   5.371   4.031 -0.0831  1.0728  0.4306
  106MOL    C7435984   5.758   5.518   4.018  0.2019  0.4974 -0.8243
  106MOL    C7535985   5.862   5.514   3.904  0.0247 -0.2852  0.5085
  106MOL    C7635986   5.886   5.364   3.885  0.5660  0.2378  0.3557
  106MOL    O7735987   5.961   5.320   3.800 -0.2303  0.4088 -0.2876
  106MOL    H7835988   5.927   4.963   3.987  0.5272  0.3869  1.1420
  106MOL    H7935989   5.991   5.092   3.885 -1.5415 -0.3222 -0.9963
  106MOL    H8035990   5.768   5.142   4.082  0.3209  0.7212  0.6444
  106MOL    H8135991   5.618   5.340   3.980 -0.1788  1.4267  0.3871
  106MOL    H8235992   5.697   5.353   4.137  0.8083  1.2969  0.5783
  106MOL    H8335993   5.679   5.590   3.999 -0.8071 -0.5309 -0.5783
  106MOL    H8435994   5.800   5.548   4.114 -1.7113  0.8437 -0.0739
  106MOL    H8535995   5.826   5.558   3.810 -0.9532 -0.8080  0.6285
  106MOL    H8635996   5.950   5.572   3.933  0.4720 -0.5720 -0.2725
  106MOL    C8735997   5.713   5.081   3.879  0.1285  0.1634  0.1753
  106MOL    C8835998   5.656   4.948   3.931  0.7250 -0.3031 -0.2714
  106MOL    N8935999   5.551   4.961   4.038 -0.0100 -0.2530 -0.7623
  106MOL    C9036000   5.573   4.913   4.174  0.4425  0.3197 -1.0369
  106MOL    C9136001   5.448   4.964   4.255 -0.0116 -0.2923 -0.1434
  106MOL    C9236002   5.354   5.028   4.144  0.4383  0.7615 -0.0110
  106MOL    C9336003   5.447   5.044   4.030 -0.3161 -0.0604  0.0126
  106MOL    O9436004   5.424   5.121   3.943  1.0416 -0.3348  0.4785
  106MOL    H9536005   5.775   5.053   3.795  0.5103  2.2140 -0.2479
  106MOL    H9636006   5.644   5.151   3.830  0.6830  0.6213  0.0451
  106MOL    H9736007   5.736   4.895   3.983 -0.0487 -0.8895  0.3283
  106MOL    H9836008   5.569   4.805   4.181 -0.6508  0.3825 -0.7151
  106MOL    H9936009   5.667   4.959   4.205  0.6837 -1.6000  1.1979
  106MOL   H10036010   5.401   4.880   4.307 -0.1179  0.6582  1.3134
  106MOL   H10136011   5.475   5.030   4.337  2.6755 -1.6094  0.1128
  106MOL   H10236012   5.274   4.966   4.103  1.1149  0.9277 -1.5946
  106MOL   H10336013   5.319   5.129   4.167 -1.1347  0.5325 -1.3183
  106MOL   C10436014   5.598   4.863   3.816 -0.6120  0.5653 -0.1296
  106MOL   C10536015   5.573   4.715   3.825 -0.6482  0.1983 -0.2266
  106MOL   N10636016   5.688   4.625   3.840 -0.4844  0.3069  0.2700
  106MOL   C10736017   5.745   4.559   3.725  0.4225 -0.4471  0.4986
  106MOL   C10836018   5.859   4.470   3.779  0.0445 -0.5911  0.3501
  106MOL   C10936019   5.881   4.502   3.923  0.0398 -0.1888 -0.3835
  106MOL   C11036020   5.761   4.596   3.948 -0.3468 -0.3669  0.0966
  106MOL   O11136021   5.741   4.629   4.063 -0.0780  0.0658 -0.6564
  106MOL   H11236022   5.675   4.866   3.739 -0.3526  1.0777  0.1478
  106MOL   H11336023   5.512   4.920   3.783 -0.0399  0.9951 -0.8821
  106MOL   H11436024   5.551   4.698   3.719 -0.4289  1.7509 -0.5345
  106MOL   H11536025   5.664   4.504   3.678  1.0232 -0.4834 -0.4992
  106MOL   H11636026   5.787   4.626   3.650  2.4894  0.4436  2.3721
  106MOL   H11736027   5.843   4.362   3.778  0.6807 -0.6970  1.3400
  106MOL   H11836028   5.945   4.485   3.714 -1.1232 -0.1161 -1.1141
  106MOL   H11936029   5.976   4.553   3.937 -0.6070  0.5984  1.2487
  106MOL   H12036030   5.862   4.411   3.980 -1.1337  0.6795  0.6341
  106MOL   C12136031   5.447   4.682   3.903 -0.5443 -0.6907 -0.2392
  106MOL   C12236032   5.376   4.550   3.855  0.2546 -0.0451 -0.0878
  106MOL   N12336033   5.296   4.500   3.964 -0.0035 -0.3149 -0.0161
  106MOL   C12436034   5.342   4.376   4.027  0.6467 -0.1832  0.1349
  106MOL   C12536035   5.224   4.312   4.099  0.2738 -0.2149 -0.2212
  106MOL   C12636036   5.133   4.429   4.123  0.2395 -0.3454  0.2813
  106MOL   C12736037   5.182   4.538   4.026  0.8323  0.3328 -0.2818
  106MOL   O12836038   5.111   4.633   4.009  0.4505 -0.1213 -0.8320
  106MOL   H12936039   5.378   4.765   3.891 -3.5359 -3.1617 -0.9105
  106MOL   H13036040   5.489   4.672   4.004  4.1081  1.1913 -1.8526
  106MOL   H13136041   5.452   4.475   3.833  0.2994 -0.0898  0.2210
  106MOL   H13236042   5.422   4.393   4.099  1.1569 -1.0094 -0.2283
  106MOL   H13336043   5.378   4.303   3.955 -2.3197 -0.2430 -1.3507
  106MOL   H13436044   5.182   4.224   4.050  3.5493 -2.4715  0.7975
  106MOL   H13536045   5.252   4.269   4.195  1.8484  0.8254 -0.1974
  106MOL   H13636046   5.027   4.407   4.110  0.2433  0.6645 -1.5235
  106MOL   H13736047   5.153   4.455   4.227 -0.7560  0.4985  0.2541
  106MOL   C13836048   5.296   4.555   3.719 -0.4170 -0.8719 -0.5012
  106MOL   C13936049   5.222   4.429   3.669 -0.7106 -0.2096  0.2116
  106MOL   N14036050   5.111   4.472   3.583 -0.6519  0.4270  0.3682
  106MOL   C14136051   4.984   4.499   3.656  0.7431  0.0626 -0.5470
  106MOL   C14236052   4.887   4.551   3.557  1.0491 -0.5496 -0.1898
  106MOL   C14336053   4.974   4.565   3.422  0.7034 -0.1442 -0.6715
  106MOL   C14436054   5.116   4.520   3.456  0.3254 -0.6845  0.7692
  106MOL   O14536055   5.210   4.519   3.375 -0.1090  0.1916 -0.5177
  106MOL   H14636056   5.362   4.603   3.646 -1.6155  2.3276  0.4278
  106MOL   H14736057   5.226   4.639   3.722  0.2544 -0.3535  0.9163
  106MOL   H14836058   5.180   4.382   3.757  1.8351 -1.3048  0.9041
  106MOL   H14936059   4.944   4.415   3.713 -0.5085  0.9282 -0.1168
  106MOL   H15036060   4.992   4.576   3.732 -0.7246 -0.5499  0.2521
  106MOL   H15136061   4.800   4.488   3.538  0.4260 -0.4017  2.0287
  106MOL   H15236062   4.853   4.650   3.587 -2.6693 -1.7629 -0.1482
  106MOL   H15336063   4.974   4.660   3.370  0.7335 -0.7447 -1.7822
  106MOL   H15436064   4.927   4.499   3.350 -2.2872  2.3673 -1.1343
  106MOL   C15536065   5.315   4.326   3.603 -0.2536 -0.4831 -0.3618
  106MOL   C15636066   5.262   4.183   3.618 -0.3392 -0.4846 -0.1358
  106MOL   N15736067   5.124   4.166   3.560 -0.0156  0.6432 -0.4859
  106MOL   C15836068   5.096   4.158   3.419  0.5530  0.0362  0.7374
  106MOL   C15936069   4.945   4.157   3.408  0.1166  0.4621  0.2254
  106MOL   C16036070   4.896   4.123   3.547  0.4409  0.5681  0.1079
  106MOL   C16136071   5.018   4.145   3.635  0.2330 -0.0591 -0.2478
  106MOL   O16236072   5.014   4.149   3.758  0.0905  0.0226  0.3613
  106MOL   H16336073   5.412   4.334   3.650 -1.2369 -2.5652  2.1366
  106MOL   H16436074   5.334   4.339   3.496  0.1850  2.2337  0.0143
  106MOL   H16536075   5.255   4.153   3.723  2.9824 -2.0565 -0.3004
  106MOL   H16636076   5.138   4.242   3.364 -0.5161 -0.6072 -1.0995
  106MOL   H16736077   5.137   4.074   3.363 -0.2100 -0.1688  0.4816
  106MOL   H16836078   4.900   4.246   3.365 -1.7749 -0.6952 -0.2829
  106MOL   H16936079   4.913   4.083   3.335  3.3494 -1.9037  1.0980
  106MOL   H17036080   4.816   4.189   3.580  0.2822  0.7046 -0.5500
  106MOL   H17136081   4.861   4.020   3.548 -0.3634  0.8211 -1.2947
  106MOL   C17236082   5.357   4.072   3.562  0.2341 -0.0128  0.2834
  106MOL   C17336083   5.501   4.052   3.622 -0.0052 -0.1628  1.0525
  106MOL   N17436084   5.490   4.028   3.767 -0.2989 -0.1165 -0.0057
  106MOL   C17536085   5.402   3.920   3.821  1.2178 -0.2041  0.0278
  106MOL   C17636086   5.444   3.895   3.967  0.6651 -0.3247 -0.7388
  106MOL   C17736087   5.522   4.028   4.002 -0.5516  0.1964 -0.3083
  106MOL   C17836088   5.557   4.086   3.867  0.0955  0.2367  0.5290
  106MOL   O17936089   5.630   4.182   3.845  0.0579  0.5185  0.2783
  106MOL   H18036090   5.355   4.076   3.453  0.8038  0.3511  0.2866
  106MOL   H18136091   5.304   3.976   3.566  0.1987 -0.0489 -0.7670
  106MOL   H18236092   5.568   4.136   3.605 -1.6487  0.7572 -1.0546
  106MOL   H18336093   5.298   3.952   3.827  1.0884 -0.3117 -1.5872
  106MOL   H18436094   5.412   3.831   3.760  2.0675  0.1918 -0.4234
  106MOL   H18536095   5.503   3.804   3.981  1.9230  0.1750 -2.5253
  106MOL   H18636096   5.359   3.890   4.035  1.7932 -0.1579  0.7176
  106MOL   H18736097   5.449   4.093   4.050 -1.2354 -0.5677 -0.2828
  106MOL   H18836098   5.603   4.016   4.073  0.0589 -2.6433 -1.4050
  106MOL   C18936099   5.564   3.923   3.565  0.0014  0.3051 -0.5777
  106MOL   C19036100   5.684   3.855   3.641  0.2628  0.0927 -0.0096
  106MOL   N19136101   5.705   3.721   3.572 -0.0559  0.5171 -0.3391
  106MOL   C19236102   5.625   3.604   3.617  0.0812  0.9336  0.8099
  106MOL   C19336103   5.658   3.495   3.521  0.3700  0.0869  0.1353
  106MOL   C19436104   5.782   3.529   3.440  0.1084 -0.2024 -0.0612
  106MOL   C19536105   5.786   3.682   3.468 -0.4018  0.7752 -0.0671
  106MOL   O19636106   5.866   3.753   3.402 -0.3104  0.1269  0.2464
  106MOL   H19736107   5.596   3.946   3.463 -0.1752 -0.3886 -0.7866
  106MOL   H19836108   5.480   3.854   3.554 -1.6303  2.0162  0.6827
  106MOL   H19936109   5.655   3.830   3.743 -1.3088  0.8779 -0.2459
  106MOL   H20036110   5.669   3.572   3.711  0.7785 -0.2604  0.0875
  106MOL   H20136111   5.521   3.636   3.624 -0.0335  0.1693  2.8327
  106MOL   H20236112   5.692   3.402   3.566  3.7507  0.0238 -2.3529
  106MOL   H20336113   5.578   3.472   3.450 -0.8438 -1.3638  1.9296
  106MOL   H20436114   5.871   3.480   3.479 -1.6498 -2.4455  1.2489
  106MOL   H20536115   5.778   3.513   3.332  1.5677  0.8032 -0.2794
  106MOL   C20636116   5.811   3.938   3.648 -0.2842 -0.2723  0.3151
  106MOL   C20736117   5.911   3.878   3.753  0.4606 -0.3893 -0.2924
  106MOL   N20836118   6.054   3.905   3.719  0.1977  0.2707  0.8233
  106MOL   C20936119   6.127   3.802   3.657 -0.7005 -0.3770 -0.0950
  106MOL   C21036120   6.260   3.864   3.619 -0.2206  0.1489 -0.9547
  106MOL   C21136121   6.226   4.016   3.605  0.0208  0.1148  0.1830
  106MOL   C21236122   6.110   4.023   3.697  0.4038  0.5863 -0.1759
  106MOL   O21336123   6.067   4.132   3.738 -0.1291 -0.1522  0.1122
  106MOL   H21436124   5.793   4.044   3.665 -1.3873 -0.4378  0.2085
  106MOL   H21536125   5.861   3.936   3.550  0.0136  0.2075  0.4560
  106MOL   H21636126   5.896   3.771   3.766  1.0199 -0.2844  1.3630
  106MOL   H21736127   6.144   3.707   3.707 -3.3668 -0.5843  0.4910
  106MOL   H21836128   6.072   3.768   3.570 -1.0467 -2.1716  0.8048
  106MOL   H21936129   6.328   3.845   3.702 -1.2141  0.6157 -0.0188
  106MOL   H22036130   6.295   3.811   3.530 -1.1247  0.1725 -1.3225
  106MOL   H22136131   6.301   4.081   3.651 -0.0732  0.1046  0.3521
  106MOL   H22236132   6.207   4.050   3.504 -0.5365 -1.9953 -0.4452
  106MOL   C22336133   5.885   3.933   3.901 -0.4276 -0.6995  0.6707
  106MOL   C22436134   5.953   3.851   4.010  0.5710  0.6209 -0.4733
  106MOL   N22536135   6.038   3.938   4.092  0.1413 -0.4847  0.0542
  106MOL   C22636136   6.184   3.931   4.083 -0.1308  0.2306  0.2866
  106MOL   C22736137   6.234   4.055   4.162  0.5341 -0.2210  0.1352
  106MOL   C22836138   6.109   4.123   4.223  0.3559 -0.5330 -0.1053
  106MOL   C22936139   5.996   4.036   4.174  0.2407 -0.0693 -0.1475
  106MOL   O23036140   5.873   4.059   4.210 -0.8948  0.0108 -0.5326
  106MOL   H23136141   5.776   3.934   3.914 -0.3056 -0.3888  1.7497
  106MOL   H23236142   5.899   4.041   3.914  0.6061 -0.9778  1.9748
  106MOL   H23336143   6.025   3.786   3.960  1.3558  2.4719 -1.8064
  106MOL   H23436144   6.236   3.849   4.133 -0.8955  0.3155  1.2461
  106MOL   H23536145   6.218   3.931   3.980 -0.4114  0.0765  0.1967
  106MOL   H23636146   6.302   4.025   4.242 -1.4434  0.5703  2.1671
  106MOL   H23736147   6.281   4.124   4.092  0.0518  1.1065  1.1174
  106MOL   H23836148   6.107   4.120   4.332  2.4939 -0.4872 -0.0517
  106MOL   H23936149   6.094   4.224   4.185  1.0446 -0.2464  0.3915
  106MOL   C24036150   5.857   3.766   4.101  0.0803  0.2899  0.3553
  106MOL   C24136151   5.795   3.641   4.033  0.5509 -0.2146  0.3269
  106MOL   N24236152   5.889   3.533   4.012  0.5253 -0.4739  0.5149
  106MOL   C24336153   5.957   3.474   4.131  0.5719  0.9099  0.4513
  106MOL   C24436154   6.018   3.345   4.075 -0.1544  0.2426  0.3891
  106MOL   C24536155   6.026   3.365   3.927 -0.1204 -0.3196  0.5888
  106MOL   C24636156   5.932   3.483   3.899 -0.1620 -0.5634  0.2093
  106MOL   O24736157   5.891   3.514   3.783  0.3048 -0.3521 -0.4530
  106MOL   H24836158   5.777   3.835   4.128 -0.9872 -1.0080  0.5473
  106MOL   H24936159   5.918   3.741   4.188  1.4772  4.9292  0.8519
  106MOL   H25036160   5.758   3.676   3.936 -2.1685 -2.0580  0.6565
  106MOL   H25136161   6.026   3.541   4.183  0.6281  1.4821 -0.3470
  106MOL   H25236162   5.878   3.449   4.202 -2.2540  2.3253 -2.0634
  106MOL   H25336163   6.111   3.318   4.126 -0.1229 -0.5767 -0.0812
  106MOL   H25436164   5.948   3.263   4.093  2.5891 -2.3421 -0.2001
  106MOL   H25536165   6.119   3.414   3.898 -0.3619  0.4965  1.1636
  106MOL   H25636166   6.012   3.271   3.874 -0.8329  0.5310 -0.7741
  106MOL   C25736167   5.664   3.598   4.105  0.4249  0.0712 -0.3534
  106MOL   C25836168   5.564   3.499   4.031  0.1304  0.5861 -0.5557
  106MOL   N25936169   5.613   3.365   4.017 -0.2696 -0.5301  0.0030
  106MOL   C26036170   5.645   3.313   3.886 -0.2205  0.0921  0.3675
  106MOL   C26136171   5.718   3.176   3.911 -0.0173 -0.5439  0.3790
  106MOL   C26236172   5.671   3.138   4.051  0.4584  0.4894  0.4629
  106MOL   C26336173   5.635   3.269   4.112 -0.6153 -0.0229 -0.3609
  106MOL   O26436174   5.620   3.279   4.233  0.2609 -0.4986 -0.0321
  106MOL   H26536175   5.598   3.682   4.129 -2.0520 -1.3287 -1.9818
  106MOL   H26636176   5.686   3.561   4.205  1.8055  1.8844  0.0533
  106MOL   H26736177   5.547   3.540   3.931 -0.6193 -0.4526 -0.8710
  106MOL   H26836178   5.552   3.307   3.829  0.5168 -2.5372 -0.6620
  106MOL   H26936179   5.707   3.377   3.824 -1.1748  1.5828  0.9401
  106MOL   H27036180   5.692   3.105   3.833  0.3666  0.8181 -1.0288
  106MOL   H27136181   5.826   3.187   3.916  0.0022 -0.0002 -0.9580
  106MOL   H27236182   5.587   3.067   4.050  3.2059 -2.8796 -0.8300
  106MOL   H27336183   5.743   3.084   4.112 -2.1591 -0.1523  3.1291
  106MOL   C27436184   5.419   3.504   4.104  0.7069  0.5799  0.0444
  106MOL   C27536185   5.319   3.426   4.008  0.2265  1.0869  0.1242
  106MOL   N27636186   5.215   3.366   4.090  0.5602  0.5809  0.3643
  106MOL   C27736187   5.100   3.439   4.133  0.0374 -0.2161 -0.0712
  106MOL   C27836188   5.028   3.352   4.244  0.6300  0.3798 -0.2458
  106MOL   C27936189   5.118   3.232   4.265  0.1417  0.6054  0.0143
  106MOL   C28036190   5.224   3.245   4.152  0.1423 -0.2425 -0.7456
  106MOL   O28136191   5.318   3.162   4.145 -0.3002  0.2008 -0.0721
  106MOL   H28236192   5.386   3.606   4.121 -2.4920 -0.3971  0.0474
  106MOL   H28336193   5.422   3.455   4.202  1.0205 -0.8316 -0.6502
  106MOL   H28436194   5.362   3.338   3.960 -2.0549 -1.4898  2.6163
  106MOL   H28536195   5.131   3.535   4.173 -0.7170  0.3659 -0.8497
  106MOL   H28636196   5.028   3.458   4.054  0.1076  0.5180  0.0348
  106MOL   H28736197   4.999   3.401   4.337 -2.8587 -0.3722 -0.8695
  106MOL   H28836198   4.932   3.322   4.202  0.4787 -0.0736  0.4112
  106MOL   H28936199   5.176   3.248   4.356 -0.4973  1.6234  0.2425
  106MOL   H29036200   5.064   3.138   4.275  0.6909  0.3267  0.4498
  106MOL   C29136201   5.264   3.515   3.894  0.0678 -0.5556  0.4654
  106MOL   C29236202   5.173   3.457   3.779 -0.1774 -0.1630 -0.8097
  106MOL   N29336203   5.095   3.562   3.705  0.3058 -0.7244 -0.3669
  106MOL   C29436204   4.952   3.581   3.727 -0.1191  0.3381 -0.8845
  106MOL   C29536205   4.921   3.718   3.658 -0.0188  0.6992  0.0677
  106MOL   C29636206   5.053   3.782   3.611 -0.1880 -0.3923 -1.0755
  106MOL   C29736207   5.156   3.672   3.648  0.9414  0.1494  0.1613
  106MOL   O29836208   5.272   3.691   3.622  0.1985 -0.0592 -0.3444
  106MOL   H29936209   5.350   3.567   3.852 -0.7783  2.0101  1.7826
  106MOL   H30036210   5.213   3.601   3.938  2.0916  0.4119  0.9598
  106MOL   H30136211   5.097   3.392   3.822  0.8308  0.3592  1.8383
  106MOL   H30236212   4.897   3.498   3.683 -1.1758  0.9364 -0.7183
  106MOL   H30336213   4.931   3.579   3.834  0.0986  1.0216 -0.8286
  106MOL   H30436214   4.859   3.705   3.569 -0.8095  1.2139  0.5423
  106MOL   H30536215   4.868   3.781   3.729 -1.1711  1.5434 -1.5230
  106MOL   H30636216   5.052   3.799   3.503  2.5268 -0.8516 -1.2146
  106MOL   H30736217   5.087   3.868   3.668 -0.6077 -1.6489  1.1159
  106MOL   C30836218   5.236   3.358   3.673  0.1519 -0.0444 -0.5430
  106MOL   C30936219   5.193   3.209   3.674 -0.7035  1.0543  0.2106
  106MOL   N31036220   5.270   3.126   3.576  0.3050 -0.3899 -0.2532
  106MOL   C31136221   5.201   3.061   3.458  0.3532 -0.1459  0.0936
  106MOL   C31236222   5.301   2.981   3.378  0.1258  0.1538 -0.3472
  106MOL   C31336223   5.434   3.025   3.437  0.2210 -0.1141 -0.8001
  106MOL   C31436224   5.403   3.101   3.563  0.1471 -0.0533  0.4973
  106MOL   O31536225   5.489   3.160   3.626 -0.4941  0.0843  0.0875
  106MOL   H31636226   5.345   3.368   3.677  0.3385 -1.6259 -1.1448
  106MOL   H31736227   5.204   3.393   3.575 -0.0352  1.8607  0.1990
  106MOL   H31836228   5.087   3.205   3.649 -0.5921 -0.1195 -0.1042
  106MOL   H31936229   5.120   2.994   3.489 -0.5692  0.9658  0.1367
  106MOL   H32036230   5.144   3.133   3.399  1.6860  0.6289 -0.2624
  106MOL   H32136231   5.281   2.874   3.386  0.0171  0.1758 -0.3190
  106MOL   H32236232   5.295   2.996   3.270 -1.2848  1.0148 -0.1604
  106MOL   H32336233   5.490   2.940   3.476 -0.6761  0.3453  1.5561
  106MOL   H32436234   5.509   3.064   3.368 -2.1545  2.6414 -1.8990
  106MOL   C32536235   5.214   3.131   3.811  0.5669  0.2811  0.9262
  106MOL   C32636236   5.187   2.979   3.808 -0.1254  0.2108 -1.0950
  106MOL   N32736237   5.198   2.919   3.935  0.3843 -0.1503 -0.0318
  106MOL   C32836238   5.317   2.839   3.956  0.0633 -0.2522  0.2365
  106MOL   C32936239   5.330   2.831   4.113  0.1302 -0.1327  0.2291
  106MOL   C33036240   5.194   2.883   4.163  0.1020 -0.9156  1.2232
  106MOL   C33136241   5.130   2.943   4.045  0.2833 -0.3224 -0.1913
  106MOL   O33236242   5.017   3.002   4.050 -0.8908 -0.4111  0.5044
  106MOL   H33336243   5.153   3.179   3.888 -1.7957 -1.1796  0.0240
  106MOL   H33436244   5.314   3.154   3.846  0.3918 -0.0257  1.6567
  106MOL   H33536245   5.259   2.934   3.739  0.3922  2.0385 -1.7851
  106MOL   H33636246   5.291   2.740   3.918  1.0551 -1.6523  3.0579
  106MOL   H33736247   5.399   2.887   3.902 -1.1116 -0.3645 -1.7020
  106MOL   H33836248   5.355   2.730   4.145 -2.7661 -0.9162  0.2343
  106MOL   H33936249   5.404   2.902   4.149 -0.9002  0.1931  1.7393
  106MOL   H34036250   5.124   2.809   4.200 -3.5255  1.0186 -1.4974
  106MOL   H34136251   5.207   2.957   4.243 -2.7189  1.7702 -0.7220
  106MOL   H34236252   5.085   2.972   3.772 -0.4391 -0.0921 -0.1591
  107MOL     C136253   5.071   5.247   6.871  0.5129  0.2738 -0.7354
  107MOL     C236254   4.991   5.291   7.001 -0.6195  0.0824  0.1580
  107MOL     N336255   4.938   5.165   7.057 -0.7942  0.0998 -0.1847
  107MOL     C436256   5.002   5.089   7.168 -0.4453  0.6138 -0.4791
  107MOL     C536257   4.911   4.964   7.197 -0.4839 -0.8592 -0.6016
  107MOL     C636258   4.790   4.971   7.099 -0.9915 -0.2393  0.3941
  107MOL     C736259   4.820   5.101   7.023  0.2908 -0.7421  0.4105
  107MOL     O836260   4.735   5.149   6.949  0.2317 -0.5021 -0.7450
  107MOL     H936261   5.018   5.196   6.790  0.6361 -2.4631  0.8425
  107MOL    H1036262   5.100   5.341   6.824  0.2609  1.6055  1.6737
  107MOL    H1136263   4.909   5.353   6.966 -0.0551  0.4807 -0.4608
  107MOL    H1236264   5.100   5.055   7.135 -0.2909  0.1156  0.4886
  107MOL    H1336265   5.012   5.153   7.256 -0.7269 -1.3288  0.9946
  107MOL    H1436266   4.970   4.872   7.188  0.7085 -0.0300 -1.4917
  107MOL    H1536267   4.888   4.966   7.303  2.3207 -1.8981  0.0768
  107MOL    H1636268   4.781   4.887   7.031 -1.6127 -0.8875  1.2565
  107MOL    H1736269   4.697   4.992   7.152 -2.1050  0.1533 -1.6887
  107MOL    H1836270   5.156   5.190   6.908 -0.1734 -0.5775 -0.4607
  107MOL    C1936271   5.084   5.363   7.101  0.6537 -0.2772  0.0239
  107MOL    C2036272   5.134   5.502   7.066  0.5344  0.4823  0.4369
  107MOL    N2136273   5.029   5.606   7.053  0.2571 -0.7649  0.1170
  107MOL    C2236274   5.007   5.663   6.917 -0.6044 -0.0273  0.8316
  107MOL    C2336275   4.876   5.735   6.935  0.0336  0.6876  0.4826
  107MOL    C2436276   4.856   5.757   7.083 -0.2138  0.1725  0.0293
  107MOL    C2536277   4.948   5.657   7.143 -0.1687 -0.0288 -0.3222
  107MOL    O2636278   4.955   5.631   7.264  0.2209 -0.6131  0.9858
  107MOL    H2736279   5.176   5.306   7.115  0.0028 -1.8567 -1.8380
  107MOL    H2836280   5.042   5.365   7.201  0.7415 -1.6231  0.0999
  107MOL    H2936281   5.178   5.498   6.967  0.3364 -0.1257  0.3742
  107MOL    H3036282   5.089   5.723   6.879  0.7551 -1.4248  1.5102
  107MOL    H3136283   5.003   5.580   6.847  1.2091  0.6289 -0.0721
  107MOL    H3236284   4.870   5.828   6.878 -0.1408  1.3808  1.6058
  107MOL    H3336285   4.794   5.671   6.902 -1.6362  3.1988 -0.3763
  107MOL    H3436286   4.879   5.862   7.100 -1.2146  0.3872  0.0827
  107MOL    H3536287   4.754   5.739   7.117 -1.2120 -0.2942 -3.0523
  107MOL    C3636288   5.242   5.544   7.171  0.0400  0.3701 -0.2528
  107MOL    C3736289   5.383   5.485   7.150 -0.1338 -0.1660  0.5836
  107MOL    N3836290   5.434   5.517   7.013 -0.1236 -0.0958  0.3952
  107MOL    C3936291   5.475   5.411   6.927 -0.7124 -0.6260  0.6954
  107MOL    C4036292   5.580   5.475   6.830  0.2252 -0.0119 -0.3982
  107MOL    C4136293   5.541   5.625   6.831  0.1531  0.4860 -0.1460
  107MOL    C4236294   5.466   5.639   6.964  0.1872 -0.1774 -0.2577
  107MOL    O4336295   5.441   5.755   7.011 -0.0791  0.2722 -0.3988
  107MOL    H4436296   5.208   5.497   7.264 -1.3954 -2.2259 -2.0443
  107MOL    H4536297   5.249   5.653   7.179 -0.9542  0.5186 -1.3647
  107MOL    H4636298   5.376   5.376   7.155 -1.0608 -0.1412 -0.0291
  107MOL    H4736299   5.515   5.320   6.972 -1.4037 -1.9417 -1.2863
  107MOL    H4836300   5.388   5.379   6.869 -0.8947  0.4173  0.3765
  107MOL    H4936301   5.680   5.453   6.869 -0.4193 -1.6920  0.4013
  107MOL    H5036302   5.577   5.431   6.730  1.9318 -0.7831 -0.1461
  107MOL    H5136303   5.633   5.679   6.807  1.0609 -0.6634  0.6935
  107MOL    H5236304   5.469   5.641   6.752 -0.8175 -1.1699  0.3930
  107MOL    C5336305   5.474   5.531   7.260 -0.3894  0.4058 -0.2306
  107MOL    C5436306   5.598   5.436   7.282 -0.0249 -0.0757  0.2506
  107MOL    N5536307   5.722   5.509   7.305  0.5290 -0.6208  0.1620
  107MOL    C5636308   5.839   5.506   7.213  0.2347 -0.0369  0.5401
  107MOL    C5736309   5.961   5.569   7.291  0.0915  0.4952 -0.1674
  107MOL    C5836310   5.888   5.655   7.396 -0.0921  0.1172 -0.1519
  107MOL    C5936311   5.746   5.596   7.404  0.9314  0.2318  0.2904
  107MOL    O6036312   5.669   5.629   7.494 -0.5735  0.2597  0.7687
  107MOL    H6136313   5.414   5.527   7.351  0.8563 -1.3345  0.5488
  107MOL    H6236314   5.517   5.629   7.244  1.6011  0.2336  3.4878
  107MOL    H6336315   5.621   5.377   7.193  0.3376 -0.3923  0.5472
  107MOL    H6436316   5.882   5.409   7.186 -1.1031 -0.9664  1.6347
  107MOL    H6536317   5.823   5.554   7.117  0.5258 -1.3018 -0.1518
  107MOL    H6636318   6.025   5.495   7.338 -1.6814 -2.0364 -1.5827
  107MOL    H6736319   6.026   5.619   7.220  1.7468 -2.0676 -0.5407
  107MOL    H6836320   5.948   5.644   7.486  3.3153 -1.1831 -2.4704
  107MOL    H6936321   5.882   5.761   7.372 -1.1512  0.1710  0.3294
  107MOL    C7036322   5.571   5.325   7.385 -0.4948  0.0011  0.1788
  107MOL    C7136323   5.478   5.208   7.345 -0.2625 -0.1988 -0.0099
  107MOL    N7236324   5.519   5.142   7.218 -0.2326  0.4063  0.0285
  107MOL    C7336325   5.412   5.096   7.129 -0.9379 -0.2806 -0.2035
  107MOL    C7436326   5.480   4.986   7.043  0.0936  0.1288 -0.2221
  107MOL    C7536327   5.625   5.028   7.046  0.2180 -0.4249 -0.3585
  107MOL    C7636328   5.643   5.109   7.172  0.0249  0.0238  0.5288
  107MOL    O7736329   5.753   5.116   7.233 -0.7449  0.4325  0.3407
  107MOL    H7836330   5.538   5.375   7.476 -0.1385 -2.2845  1.6232
  107MOL    H7936331   5.668   5.286   7.417  0.7160  3.0578  0.3219
  107MOL    H8036332   5.378   5.249   7.328 -0.1452  0.3861  0.7292
  107MOL    H8136333   5.331   5.056   7.189 -0.1886  1.0146  1.7206
  107MOL    H8236334   5.364   5.173   7.069 -1.5877  0.4090  1.1894
  107MOL    H8336335   5.467   4.892   7.096 -0.9840 -2.4996 -4.8628
  107MOL    H8436336   5.442   4.972   6.942 -3.5712 -1.8023  1.3297
  107MOL    H8536337   5.694   4.943   7.042 -0.4245 -0.9896  0.2515
  107MOL    H8636338   5.663   5.096   6.970 -0.1804  1.2137  0.8867
  107MOL    C8736339   5.458   5.103   7.464 -0.2461 -0.3361 -0.3612
  107MOL    C8836340   5.399   5.154   7.595 -0.3458 -0.5144  0.1828
  107MOL    N8936341   5.273   5.227   7.576 -0.1454 -0.2823  0.3168
  107MOL    C9036342   5.275   5.364   7.607 -0.2280 -0.3185  0.7098
  107MOL    C9136343   5.136   5.420   7.594 -0.0425  1.3237 -0.4488
  107MOL    C9236344   5.050   5.297   7.554 -0.5786 -0.1905 -0.5095
  107MOL    C9336345   5.152   5.187   7.536 -1.1007  0.1656  0.2048
  107MOL    O9436346   5.121   5.074   7.491 -0.7188 -0.3759  0.0012
  107MOL    H9536347   5.555   5.060   7.489 -1.3138 -2.2035  0.6503
  107MOL    H9636348   5.393   5.025   7.427 -0.4378  0.1507 -1.0713
  107MOL    H9736349   5.462   5.230   7.641  0.3147 -1.8773  1.5677
  107MOL    H9836350   5.315   5.383   7.706 -1.9195 -1.2221  1.5756
  107MOL    H9936351   5.338   5.434   7.550 -1.9899  0.7504  0.0509
  107MOL   H10036352   5.099   5.475   7.680 -1.1553 -0.9252  0.5480
  107MOL   H10136353   5.124   5.489   7.511  0.4919  0.9280 -0.8545
  107MOL   H10236354   4.973   5.277   7.629 -1.9705 -0.5302 -2.0136
  107MOL   H10336355   5.003   5.303   7.456  2.1496  2.6448 -1.7424
  107MOL   C10436356   5.370   5.045   7.692 -0.0412 -0.5481 -0.4781
  107MOL   C10536357   5.495   4.980   7.753  0.6852 -0.6922 -0.8455
  107MOL   N10636358   5.593   5.072   7.818  0.4981  0.0600  0.5327
  107MOL   C10736359   5.731   5.059   7.790 -1.0445 -0.1652  0.2892
  107MOL   C10836360   5.805   5.176   7.866  0.8087 -0.6544 -0.2939
  107MOL   C10936361   5.697   5.244   0.039  0.1918  0.3437 -0.5112
  107MOL   C11036362   5.567   5.172   7.901 -0.1391  0.0344 -0.3976
  107MOL   O11136363   5.452   5.204   0.030 -0.3286  0.1383 -0.4039
  107MOL   H11236364   5.295   4.980   7.646  0.0344  0.3903 -1.9779
  107MOL   H11336365   5.312   5.088   7.774 -0.2787 -0.7472 -0.5391
  107MOL   H11436366   5.549   4.924   7.677 -0.6257 -2.0736 -0.7802
  107MOL   H11536367   5.763   4.968   7.841 -0.8155  0.5244  1.4030
  107MOL   H11636368   5.761   5.058   7.685  1.7128  0.5254  1.0259
  107MOL   H11736369   5.890   5.139   0.017 -0.3849 -2.7159  0.2051
  107MOL   H11836370   5.843   5.250   7.796  0.2652 -0.3820 -0.3061
  107MOL   H11936371   5.693   5.348   0.005 -1.1517 -0.4828 -2.9955
  107MOL   H12036372   5.705   5.228   0.147  1.2959  1.2613 -0.4466
  107MOL   C12136373   5.451   4.867   7.856  0.2141 -0.4578  1.0131
  107MOL   C12236374   5.324   4.774   7.827  0.1113  0.2303 -0.3017
  107MOL   N12336375   5.339   4.632   7.858 -0.6034  0.2358 -0.3664
  107MOL   C12436376   5.381   4.544   7.750  0.4904 -0.1246  0.1371
  107MOL   C12536377   5.408   4.402   7.818  0.8879  0.2375  0.6070
  107MOL   C12636378   5.356   4.414   0.050  0.0190  0.6566 -0.1066
  107MOL   C12736379   5.336   4.563   0.067  0.2643  0.8262 -0.2307
  107MOL   O12836380   5.323   4.606   0.177  0.3278 -0.6395  1.1123
  107MOL   H12936381   5.435   4.914   0.048  0.2909  1.1436  0.2735
  107MOL   H13036382   5.534   4.802   7.883 -0.8793 -1.7757  1.2981
  107MOL   H13136383   5.301   4.785   7.721 -2.8106 -0.0654  0.2791
  107MOL   H13236384   5.476   4.579   7.710 -0.5238 -1.7699 -3.8984
  107MOL   H13336385   5.304   4.536   7.673  1.0787 -1.7423 -0.2903
  107MOL   H13436386   5.361   4.325   7.756  0.0666  0.2585  1.1997
  107MOL   H13536387   5.516   4.386   7.824  0.6060 -1.4036  1.6292
  107MOL   H13636388   5.256   4.371   0.050  0.2279 -0.0337 -4.8507
  107MOL   H13736389   5.422   4.367   0.123 -1.9435 -1.6464  0.2305
  107MOL   C13836390   5.199   4.832   7.899 -0.9106  0.5138 -0.1101
  107MOL   C13936391   5.068   4.850   7.818  0.9344 -0.0215 -0.0410
  107MOL   N14036392   5.034   4.737   7.749 -0.6069 -0.2917 -0.6695
  107MOL   C14136393   5.026   4.742   7.602  0.0670  1.0789  0.2208
  107MOL   C14236394   5.029   4.601   7.553 -0.2900 -0.3251  0.7580
  107MOL   C14336395   4.988   4.518   7.671 -0.2409  0.3628 -0.1431
  107MOL   C14436396   5.008   4.607   7.789 -0.0620  0.0248 -0.9744
  107MOL   O14536397   4.993   4.569   7.905  0.2560  0.1691 -0.1282
  107MOL   H14636398   5.222   4.933   0.029 -0.2051  0.5972 -0.7838
  107MOL   H14736399   5.182   4.775   0.084  2.2307  0.8945  0.7600
  107MOL   H14836400   5.082   4.929   7.745 -0.0141 -0.6547 -0.9102
  107MOL   H14936401   4.934   4.786   7.564  0.2539 -0.1483 -1.6800
  107MOL   H15036402   5.106   4.801   7.558  0.0256  0.0122 -1.2987
  107MOL   H15136403   4.965   4.599   7.464  0.6847  2.1139 -0.0591
  107MOL   H15236404   5.130   4.572   7.526  0.2119  1.8490  0.1344
  107MOL   H15336405   5.049   4.428   7.660 -0.3649  0.4929 -2.0583
  107MOL   H15436406   4.887   4.483   7.653 -0.8213  2.0459 -0.2365
  107MOL   C15536407   4.954   4.907   0.003  0.4961  0.6942  0.4073
  107MOL   C15636408   4.866   5.017   7.837 -0.2247  0.6185 -0.0511
  107MOL   N15736409   4.782   4.970   7.726  0.2623  0.1184 -0.2290
  107MOL   C15836410   4.767   5.040   7.601  0.1197  0.1200  0.3600
  107MOL   C15936411   4.674   4.950   7.520  0.5043 -0.0378  1.0641
  107MOL   C16036412   4.615   4.840   7.608 -0.2683 -0.3181  0.1083
  107MOL   C16136413   4.699   4.860   7.734 -0.0028 -0.1238 -0.2910
  107MOL   O16236414   4.683   4.787   7.824 -0.6686 -0.0101  0.2657
  107MOL   H16336415   5.002   4.959   0.085 -0.2569  2.0439  0.0032
  107MOL   H16436416   4.894   4.830   0.052  1.5565 -0.2820  0.1769
  107MOL   H16536417   4.928   5.095   7.793  1.6201 -0.8290 -0.0839
  107MOL   H16636418   4.724   5.139   7.618  0.0350  0.1857 -0.2198
  107MOL   H16736419   4.858   5.051   7.541  0.7183  0.8124  1.3779
  107MOL   H16836420   4.593   5.003   7.470  0.7835 -1.4807 -1.0038
  107MOL   H16936421   4.734   4.911   7.437  0.7752  0.2604  1.1173
  107MOL   H17036422   4.519   4.884   7.637 -0.2353 -0.6466  0.7421
  107MOL   H17136423   4.598   4.740   7.568 -1.7861 -1.4293  3.3104
  107MOL   C17236424   4.781   5.086   0.042 -1.0415  0.3505  0.3143
  107MOL   C17336425   4.850   5.155   0.163  0.4611  0.0328  0.3807
  107MOL   N17436426   4.937   5.269   0.125  0.6145 -0.1597  0.1060
  107MOL   C17536427   5.081   5.256   0.129 -0.1308 -0.4334  0.0520
  107MOL   C17636428   5.140   5.391   0.100 -0.5045  0.3158 -0.0967
  107MOL   C17736429   5.021   5.486   0.074  0.4763 -0.1177  0.1601
  107MOL   C17836430   4.898   5.391   0.078  0.5142  0.1525  0.0064
  107MOL   O17936431   4.784   5.437   0.073  0.2337  0.2768  0.0401
  107MOL   H18036432   4.718   5.005   0.079  2.3846 -2.2670  0.7436
  107MOL   H18136433   4.715   5.157   7.900  1.6461  1.5163 -1.7756
  107MOL   H18236434   4.917   5.085   0.212 -0.5318  0.9784  3.1773
  107MOL   H18336435   5.111   5.222   0.229  2.9339  1.5443 -0.1228
  107MOL   H18436436   5.122   5.176   0.068  2.3379  0.3169  0.6563
  107MOL   H18536437   5.189   5.368   0.005  0.2290  0.0792  0.3374
  107MOL   H18636438   5.210   5.419   0.178 -2.3697  0.1920  1.6662
  107MOL   H18736439   5.004   5.551   0.160 -2.1702 -2.8140  1.7742
  107MOL   H18836440   5.021   5.532   7.881 -1.9270 -0.8084 -0.2118
  107MOL   C18936441   4.753   5.207   0.272  0.1861 -0.3282  0.1073
  107MOL   C19036442   4.687   5.090   0.350  0.1537 -0.2672 -0.0822
  107MOL   N19136443   4.789   5.021   0.434  0.2037 -0.2670 -0.5190
  107MOL   C19236444   4.799   4.874   0.409 -0.1548 -0.0260  0.5210
  107MOL   C19336445   4.909   4.824   0.504  0.1601 -0.0801 -0.1376
  107MOL   C19436446   4.949   4.950   0.577 -0.1813 -0.0533  1.2697
  107MOL   C19536447   4.869   5.071   0.531 -0.5366  0.4191 -0.4166
  107MOL   O19636448   4.895   5.188   0.557  0.3233  0.2870  0.2737
  107MOL   H19736449   4.674   5.265   0.225  0.2209 -0.7230 -0.4495
  107MOL   H19836450   4.803   5.276   0.339  0.9681  0.4382 -1.2421
  107MOL   H19936451   4.662   5.014   0.276  1.6695  0.9397 -1.8658
  107MOL   H20036452   4.703   4.826   0.427  0.2989 -1.5810 -1.0899
  107MOL   H20136453   4.821   4.837   0.309 -2.5420 -2.8458  1.0061
  107MOL   H20236454   4.869   4.753   0.577  3.2571 -0.0798  1.6652
  107MOL   H20336455   4.993   4.777   0.452 -1.5714 -2.5270 -0.8126
  107MOL   H20436456   4.926   4.930   0.682  1.4058 -1.2032  1.4270
  107MOL   H20536457   5.058   4.956   0.572 -0.3104  0.4612 -1.1089
  107MOL   C20636458   4.572   5.128   0.441  0.0062 -0.2340 -0.0692
  107MOL   C20736459   4.438   5.176   0.383  0.1884  0.0455 -0.2309
  107MOL   N20836460   4.395   5.081   0.278  0.2169  0.1360  0.2019
  107MOL   C20936461   4.393   5.127   0.134 -0.1323 -0.4529  0.5130
  107MOL   C21036462   4.355   5.004   0.046  0.0761 -0.3124 -0.3300
  107MOL   C21136463   4.358   4.887   0.146  0.0337  0.5141 -0.0710
  107MOL   C21236464   4.372   4.948   0.284  0.1585  0.6071  0.3938
  107MOL   O21336465   4.363   4.884   0.389  0.2490 -0.2902  0.8530
  107MOL   H21436466   4.613   5.206   0.504  4.8126 -1.9733 -0.8844
  107MOL   H21536467   4.558   5.045   0.510  2.0698 -0.2634  0.3297
  107MOL   H21636468   4.442   5.274   0.335 -1.9234 -0.5446 -1.6782
  107MOL   H21736469   4.323   5.208   0.113 -1.2171 -1.4452  0.2512
  107MOL   H21836470   4.491   5.168   0.109 -1.2934  1.2931 -1.2834
  107MOL   H21936471   4.260   5.011   7.897  2.3114  2.7774 -4.0463
  107MOL   H22036472   4.434   4.985   7.879  0.6077 -0.8098  0.3659
  107MOL   H22136473   4.278   4.814   0.129  0.0554  0.5887 -0.4961
  107MOL   H22236474   4.441   4.817   0.136  1.1986  1.8439  0.2510
  107MOL   C22336475   4.332   5.193   0.488  1.1255  0.3982 -0.0702
  107MOL   C22436476   4.352   5.305   0.592 -0.3099  0.2839 -0.0303
  107MOL   N22536477   4.321   5.433   0.524 -0.6967 -0.3821 -0.2021
  107MOL   C22636478   4.181   5.465   0.507 -0.1054  0.0418  0.0076
  107MOL   C22736479   4.181   5.556   0.387 -0.4832 -0.3229 -0.3756
  107MOL   C22836480   4.322   5.609   0.365 -0.0528 -0.2140 -0.2931
  107MOL   C22936481   4.401   5.518   0.458  0.3851 -0.2672  0.2465
  107MOL   O23036482   4.526   5.508   0.453  0.1118 -0.3278  1.1027
  107MOL   H23136483   4.326   5.101   0.547 -0.2380  0.4806 -0.0824
  107MOL   H23236484   4.229   5.199   0.455  1.6212 -0.4062 -1.8350
  107MOL   H23336485   4.458   5.318   0.613 -0.2839  0.7056 -0.4047
  107MOL   H23436486   4.117   5.376   0.498  1.0372 -0.8336  0.5045
  107MOL   H23536487   4.152   5.519   0.597  0.1918  0.3074 -0.0578
  107MOL   H23636488   4.141   5.508   0.298  0.0771 -0.5639 -0.4997
  107MOL   H23736489   4.103   5.632   0.399  1.5312  1.5356  1.7134
  107MOL   H23836490   4.353   5.590   0.262  0.9120  0.0433 -0.0604
  107MOL   H23936491   4.331   5.716   0.383 -1.1466 -0.3367  1.0312
  107MOL   C24036492   4.285   5.286   0.722 -0.6807  0.1257 -0.7169
  107MOL   C24136493   4.297   5.156   0.805 -0.6372  0.0139  0.8157
  107MOL   N24236494   4.433   5.111   0.840  0.1806  0.2287 -0.2236
  107MOL   C24336495   4.487   4.983   0.793  0.2756 -0.2296 -0.5996
  107MOL   C24436496   4.635   4.986   0.820 -0.1744 -1.1328 -0.0344
  107MOL   C24536497   4.658   5.117   0.896  1.1560 -0.2028 -0.2061
  107MOL   C24636498   4.526   5.182   0.901  0.1808 -0.1974 -0.3304
  107MOL   O24736499   4.506   5.297   0.941 -0.1869 -0.3130 -0.7941
  107MOL   H24836500   4.180   5.298   0.700 -0.6945 -3.5485 -3.1054
  107MOL   H24936501   4.310   5.361   0.797  1.0148 -0.3113 -0.8098
  107MOL   H25036502   4.273   5.071   0.742 -1.5570  0.9005 -0.0595
  107MOL   H25136503   4.428   4.906   0.841 -3.5836  1.6719 -2.0259
  107MOL   H25236504   4.462   4.974   0.687  1.8988  2.5633 -1.2707
  107MOL   H25336505   4.653   4.893   0.874  1.1670 -0.8652  0.0156
  107MOL   H25436506   4.695   4.973   0.729 -0.9405  0.5107 -0.7841
  107MOL   H25536507   4.671   5.098   1.002 -1.4440 -1.1987 -0.0331
  107MOL   H25636508   4.738   5.170   0.843 -0.1323 -0.3526 -2.3313
  107MOL   C25736509   4.211   5.146   0.928 -0.1428  0.3261 -0.0752
  107MOL   C25836510   4.059   5.146   0.907  0.6904  0.2481  0.3629
  107MOL   N25936511   4.007   5.063   0.799 -0.3480  0.0872  0.7596
  107MOL   C26036512   3.905   5.114   0.713 -0.3330  0.6463 -0.4095
  107MOL   C26136513   3.862   4.994   0.629  0.1256  0.3307  0.0893
  107MOL   C26236514   3.964   4.884   0.652  0.1535  0.2342 -0.4678
  107MOL   C26336515   4.037   4.932   0.777  0.0649 -0.3763 -0.5588
  107MOL   O26436516   4.114   4.864   0.845  0.1915  0.2956 -0.6291
  107MOL   H26536517   4.240   5.224   0.998  0.7220  0.5384 -0.6541
  107MOL   H26636518   4.235   5.049   0.970  0.6787  1.0036  1.0497
  107MOL   H26736519   4.026   5.243   0.869  0.0138 -0.6641 -1.3959
  107MOL   H26836520   3.822   5.169   0.757 -1.7225 -2.7464  1.3494
  107MOL   H26936521   3.948   5.190   0.647  1.3993 -0.1693 -0.2487
  107MOL   H27036522   3.763   4.967   0.664 -0.6056  1.2902 -1.2063
  107MOL   H27136523   3.847   5.025   0.526 -0.7654  1.5618  0.5820
  107MOL   H27236524   3.912   4.789   0.662 -1.6089  1.3158  0.7867
  107MOL   H27336525   4.019   4.869   0.558  0.7104 -0.1126 -0.0909
  107MOL   C27436526   3.994   5.118   1.047 -0.0161  0.2721  0.3258
  107MOL   C27536527   3.980   5.234   1.141 -0.0968  0.1993  0.2994
  107MOL   N27636528   3.860   5.311   1.111  0.1059  0.1355 -0.3157
  107MOL   C27736529   3.725   5.288   1.175  0.2630 -0.3723  0.2581
  107MOL   C27836530   3.624   5.364   1.086  0.6996 -0.3371 -0.2569
  107MOL   C27936531   3.714   5.478   1.029  0.5950 -0.7622  0.2166
  107MOL   C28036532   3.853   5.421   1.034  0.2289 -0.2610  0.6897
  107MOL   O28136533   3.952   5.474   0.982 -1.2490 -0.4458 -0.2091
  107MOL   H28236534   4.061   5.040   1.083 -1.2971  0.3235  2.9916
  107MOL   H28336535   3.904   5.059   1.033  1.0350 -1.4097  0.5797
  107MOL   H28436536   4.068   5.295   1.123 -0.2281 -0.4403 -2.6432
  107MOL   H28536537   3.704   5.181   1.182 -1.0674 -0.2723 -1.9406
  107MOL   H28636538   3.718   5.341   1.270  0.7460  0.6507 -0.2691
  107MOL   H28736539   3.575   5.305   1.009  1.4992 -0.6966 -0.4934
  107MOL   H28836540   3.547   5.407   1.150 -0.0030 -1.4279 -0.3710
  107MOL   H28936541   3.688   5.489   0.924  0.6699 -1.3128  0.1351
  107MOL   H29036542   3.716   5.578   1.072  3.3983 -0.4261 -0.6400
  107MOL   C29136543   3.977   5.191   1.288  0.0729  0.3536 -0.0136
  107MOL   C29236544   4.109   5.129   1.347 -0.5131  0.0341  0.1207
  107MOL   N29336545   4.190   5.237   1.413  0.1923 -0.3955 -0.4379
  107MOL   C29436546   4.331   5.264   1.386  0.9447  0.6189 -0.4168
  107MOL   C29536547   4.369   5.382   1.477  0.4502 -0.2826  0.8908
  107MOL   C29636548   4.252   5.406   1.577 -0.1181 -0.3903 -0.0782
  107MOL   C29736549   4.145   5.309   1.520 -0.0624  0.3603 -0.4232
  107MOL   O29836550   4.032   5.305   1.574 -0.1705 -0.1471 -0.2870
  107MOL   H29936551   3.897   5.116   1.288 -1.6290  2.1028 -1.5721
  107MOL   H30036552   3.935   5.280   1.333 -2.5879 -0.7769 -0.1583
  107MOL   H30136553   4.165   5.095   1.260  0.5961  1.2753  0.3332
  107MOL   H30236554   4.399   5.180   1.405 -0.3713 -0.4901 -0.4950
  107MOL   H30336555   4.337   5.289   1.280 -1.3167  0.2579 -0.6417
  107MOL   H30436556   4.467   5.373   1.524  0.5038 -1.8259  0.5016
  107MOL   H30536557   4.372   5.472   1.415 -1.9174 -0.8499 -0.0879
  107MOL   H30636558   4.283   5.362   1.671 -0.6977 -0.0788  0.2641
  107MOL   H30736559   4.224   5.511   1.584  0.2147 -0.2231 -1.1362
  107MOL   C30836560   4.089   5.007   1.437  0.5107 -0.3975  0.2106
  107MOL   C30936561   4.106   4.873   1.362  0.4715  0.1734 -0.4086
  107MOL   N31036562   4.240   4.859   1.305 -0.4833 -0.3086  0.7394
  107MOL   C31136563   4.269   4.832   1.167  0.7917  0.1718  0.5166
  107MOL   C31236564   4.418   4.865   1.133 -0.5627 -1.1686  0.8619
  107MOL   C31336565   4.472   4.883   1.269  0.4686  0.3347  1.0914
  107MOL   C31436566   4.355   4.870   1.365 -0.0927 -0.0273  0.1914
  107MOL   O31536567   4.371   4.860   1.487 -0.0236 -0.1599 -0.5383
  107MOL   H31636568   3.998   5.023   1.494 -0.8377 -2.0066 -1.4243
  107MOL   H31736569   4.169   5.005   1.511  2.0984  2.3605 -1.3548
  107MOL   H31836570   4.029   4.863   1.286  0.4746  1.1785 -0.5570
  107MOL   H31936571   4.255   4.725   1.152 -0.6363 -0.0344  3.0321
  107MOL   H32036572   4.209   4.892   1.099  2.6191  2.8523  1.2199
  107MOL   H32136573   4.474   4.791   1.074  0.6955  0.5675 -0.1806
  107MOL   H32236574   4.429   4.958   1.077  1.1942 -2.1410 -0.4770
  107MOL   H32336575   4.560   4.829   1.303  0.2107 -0.9397 -0.2363
  107MOL   H32436576   4.496   4.989   1.272 -1.5006  0.8006  0.8713
  107MOL   C32536577   4.075   4.757   1.464  0.1099  0.8606  0.4162
  107MOL   C32636578   4.085   4.620   1.405 -0.6387  0.3302  0.4599
  107MOL   N32736579   4.037   4.515   1.493 -0.5479 -0.2987 -0.3340
  107MOL   C32836580   3.912   4.438   1.458  0.4894  0.3209  0.3533
  107MOL   C32936581   3.871   4.367   1.588  0.4103 -0.2655  0.2534
  107MOL   C33036582   3.998   4.360   1.675 -0.4125 -0.0879  0.2468
  107MOL   C33136583   4.092   4.461   1.604  0.8294 -0.3530 -0.1649
  107MOL   O33236584   4.189   4.500   1.657 -0.1699  0.8943  0.0704
  107MOL   H33336585   3.967   4.764   1.476 -0.0083  1.6411 -0.9159
  107MOL   H33436586   4.107   4.770   1.567 -2.0618  1.3546  1.0455
  107MOL   H33536587   4.191   4.607   1.383 -0.8690  1.7948 -1.6681
  107MOL   H33636588   3.830   4.503   1.425 -0.5726  0.0387  2.3715
  107MOL   H33736589   3.925   4.359   1.383 -0.5413  0.3738  0.1009
  107MOL   H33836590   3.795   4.421   1.644  1.3508  0.7043  0.6277
  107MOL   H33936591   3.840   4.263   1.580  0.0805 -0.2308  1.0720
  107MOL   H34036592   3.983   4.375   1.781 -0.3587  0.0177  0.2397
  107MOL   H34136593   4.054   4.267   1.659  0.5320  0.3655  0.8589
  107MOL   H34236594   4.033   4.615   1.309  3.6100 -1.8178 -1.8618
  108MOL     C136595   1.768   1.363   7.578 -0.1244  0.8465 -0.4849
  108MOL     C236596   1.830   1.340   7.716 -0.1531  0.5846 -0.3009
  108MOL     N336597   1.786   1.209   7.763 -0.0509  0.4926  0.3305
  108MOL     C436598   1.712   1.206   7.891 -0.2118  0.9129  0.1050
  108MOL     C536599   1.717   1.060   0.022  0.2965 -0.0130 -0.2867
  108MOL     C636600   1.767   0.979   7.804  0.6758  0.1817 -0.2291
  108MOL     C736601   1.822   1.086   7.718  0.2276  0.0371  0.3774
  108MOL     O836602   1.893   1.072   7.615  0.5358  0.8777 -0.2934
  108MOL     H936603   1.662   1.384   7.590 -0.1774 -0.1104  0.8705
  108MOL    H1036604   1.823   1.439   7.523  0.9749 -0.4085 -1.1590
  108MOL    H1136605   1.786   1.417   7.780  0.0426 -0.5013  1.1648
  108MOL    H1236606   1.775   1.247   0.065  1.3888 -1.8364  0.3441
  108MOL    H1336607   1.609   1.240   7.887 -0.4289  0.4221  1.4528
  108MOL    H1436608   1.772   1.037   0.114 -0.5709  3.4166  1.1766
  108MOL    H1536609   1.615   1.029   0.047  0.4118 -1.0080 -0.9980
  108MOL    H1636610   1.845   0.906   7.827  1.6436  1.8371  1.9098
  108MOL    H1736611   1.686   0.933   7.747 -0.6749  2.3925 -0.1306
  108MOL    H1836612   1.782   1.271   7.521  0.8579  0.0666  0.9843
  108MOL    C1936613   1.984   1.349   7.721 -0.9718 -0.3860  1.0880
  108MOL    C2036614   2.049   1.338   7.857 -0.2086  0.3846  0.3695
  108MOL    N2136615   2.193   1.290   7.845 -0.6481  0.3263 -0.6040
  108MOL    C2236616   2.293   1.349   7.760 -0.2097 -1.1856  0.0195
  108MOL    C2336617   2.421   1.263   7.760 -0.0168  0.6930 -0.8504
  108MOL    C2436618   2.390   1.153   7.861 -0.2035 -0.1570  0.2605
  108MOL    C2536619   2.249   1.182   7.905 -0.2245 -0.4608  0.2935
  108MOL    O2636620   2.192   1.121   0.090 -0.2840  0.2144 -0.1524
  108MOL    H2736621   2.023   1.434   7.665  2.0552 -1.3716  1.5894
  108MOL    H2836622   2.010   1.267   7.654 -0.8582  1.9881 -1.8505
  108MOL    H2936623   2.000   1.259   0.008 -0.0525  0.0466  0.0329
  108MOL    H3036624   2.249   1.363   7.661  0.5717  2.8484  0.1275
  108MOL    H3136625   2.318   1.441   7.813 -0.8288 -2.1229  1.9915
  108MOL    H3236626   2.443   1.225   7.660 -2.0678 -0.5391 -0.8592
  108MOL    H3336627   2.509   1.320   7.791  1.1655 -1.3094 -0.4103
  108MOL    H3436628   2.369   1.056   7.815  1.7559 -0.6763  0.4281
  108MOL    H3536629   2.449   1.137   0.045  0.1343  0.2084  0.1047
  108MOL    C3636630   2.038   1.469   0.032  0.6494 -0.0483  0.1007
  108MOL    C3736631   2.094   1.461   0.178 -0.0485 -0.5926  0.2638
  108MOL    N3836632   2.132   1.600   0.220 -0.0345  0.5518 -0.0864
  108MOL    C3936633   2.272   1.628   0.244  0.1332  0.1872  0.5665
  108MOL    C4036634   2.262   1.763   0.304  0.6564 -0.8270 -0.2993
  108MOL    C4136635   2.128   1.831   0.272 -0.0745 -0.3122  0.0407
  108MOL    C4236636   2.051   1.709   0.228  0.3335 -0.2944 -0.5470
  108MOL    O4336637   1.928   1.709   0.206 -0.9019  0.8223 -0.5261
  108MOL    H4436638   1.936   1.508   0.037  0.0756 -1.2790 -1.5462
  108MOL    H4536639   2.090   1.539   7.872 -0.1434  0.5502  0.1042
  108MOL    H4636640   2.185   1.402   0.189 -0.2314 -0.7018  1.2284
  108MOL    H4736641   2.321   1.554   0.306  1.9433  1.9732  1.3356
  108MOL    H4836642   2.334   1.638   0.155  0.3492  1.3186  0.8349
  108MOL    H4936643   2.266   1.760   0.413  1.0733 -1.6586 -0.3399
  108MOL    H5036644   2.345   1.830   0.285 -0.8353  1.6393  1.5765
  108MOL    H5136645   2.088   1.891   0.354  1.0449 -0.7657  0.9278
  108MOL    H5236646   2.145   1.899   0.189 -1.0875 -1.7873 -1.4109
  108MOL    C5336647   1.982   1.403   0.271  0.4121 -0.3330  0.3821
  108MOL    C5436648   2.021   1.364   0.411  0.1115 -0.0469 -0.1409
  108MOL    N5536649   1.890   1.339   0.487 -0.3090 -0.0133 -0.0737
  108MOL    C5636650   1.799   1.225   0.464  0.6203  0.0561 -0.2369
  108MOL    C5736651   1.696   1.231   0.576 -0.4135 -1.4087 -0.3653
  108MOL    C5836652   1.733   1.355   0.666 -0.0916 -0.3772  0.3947
  108MOL    C5936653   1.851   1.417   0.589  0.5307  0.6675  0.3273
  108MOL    O6036654   1.901   1.523   0.622 -1.0112  0.6415  0.0703
  108MOL    H6136655   1.948   1.309   0.226 -0.4079 -0.6297  1.6132
  108MOL    H6236656   1.909   1.483   0.280  1.0497  0.3442 -0.3098
  108MOL    H6336657   2.076   1.446   0.458 -0.0095  0.3039 -0.6014
  108MOL    H6436658   1.745   1.236   0.370  1.7766 -0.3530 -0.9574
  108MOL    H6536659   1.852   1.130   0.468 -3.2801 -2.1296  0.8707
  108MOL    H6636660   1.596   1.247   0.536  0.6474  0.5007 -2.3616
  108MOL    H6736661   1.703   1.139   0.634  1.2893 -2.5443 -2.3254
  108MOL    H6836662   1.648   1.418   0.694  0.1895  0.7034 -1.1266
  108MOL    H6936663   1.781   1.328   0.760 -2.7538  2.7582  2.8056
  108MOL    C7036664   2.118   1.243   0.427 -0.4143  0.3270 -0.0581
  108MOL    C7136665   2.222   1.287   0.523 -0.9267  0.1109  0.0402
  108MOL    N7236666   2.168   1.326   0.654  0.0398  0.2821  0.6264
  108MOL    C7336667   2.201   1.449   0.717  0.1614 -0.3620 -0.4512
  108MOL    C7436668   2.136   1.449   0.857 -0.0252 -0.0607  0.0206
  108MOL    C7536669   2.083   1.311   0.873  0.2710  0.2782 -0.1204
  108MOL    C7636670   2.098   1.246   0.737 -0.5153  0.3803  0.5738
  108MOL    O7736671   2.057   1.136   0.710  0.1013  0.1378  0.0827
  108MOL    H7836672   2.162   1.214   0.331 -2.1110  1.3765 -1.1896
  108MOL    H7936673   2.062   1.159   0.465  0.9087  0.2161  1.7223
  108MOL    H8036674   2.266   1.374   0.476 -0.3594 -0.5274 -0.6340
  108MOL    H8136675   2.308   1.466   0.723 -0.1166  1.7104 -1.1332
  108MOL    H8236676   2.157   1.535   0.667 -0.2682 -1.4059 -1.8933
  108MOL    H8336677   2.207   1.470   0.937 -1.1529 -0.2674  1.0795
  108MOL    H8436678   2.054   1.519   0.869  0.5943  0.1902  3.3631
  108MOL    H8536679   2.131   1.245   0.946 -0.5091  2.4725  2.4776
  108MOL    H8636680   1.979   1.311   0.907  0.1641 -2.1110 -0.4009
  108MOL    C8736681   2.354   1.198   0.533  0.3536  0.2099 -0.3177
  108MOL    C8836682   2.428   1.181   0.397 -0.4345 -0.1900  0.3067
  108MOL    N8936683   2.527   1.296   0.383  0.6922  0.2035 -0.2577
  108MOL    C9036684   2.621   1.333   0.487 -0.1116  0.2462 -0.0619
  108MOL    C9136685   2.711   1.437   0.422 -0.1568 -0.2818 -0.2286
  108MOL    C9236686   2.650   1.470   0.285  0.2003 -0.4153 -0.0933
  108MOL    C9336687   2.532   1.378   0.277 -0.1209 -0.4156  0.2417
  108MOL    O9436688   2.464   1.377   0.172 -0.7438 -0.3027 -0.0302
  108MOL    H9536689   2.324   1.104   0.579  1.1758 -0.0116 -0.2177
  108MOL    H9636690   2.426   1.238   0.604  0.8740  0.1860 -0.8253
  108MOL    H9736691   2.355   1.188   0.317 -1.4276 -0.8267  1.1544
  108MOL    H9836692   2.573   1.375   0.575  1.0878 -1.7607  1.6173
  108MOL    H9936693   2.686   1.252   0.522 -0.7184 -0.3603 -0.3249
  108MOL   H10036694   2.717   1.530   0.478  0.9636 -0.1564 -0.5527
  108MOL   H10136695   2.814   1.401   0.414 -0.1722 -0.2919 -0.3860
  108MOL   H10236696   2.620   1.575   0.274  1.8258 -0.0373 -0.9389
  108MOL   H10336697   2.730   1.456   0.213  2.2707  1.7068  1.7145
  108MOL   C10436698   2.520   1.049   0.395 -1.3815 -0.5697  0.1141
  108MOL   C10536699   2.445   0.922   0.354  0.1725  0.1959 -0.7064
  108MOL   N10636700   2.542   0.808   0.350  0.0972  0.0973  0.0089
  108MOL   C10736701   2.593   0.757   0.221  0.2972  0.9771 -0.3112
  108MOL   C10836702   2.695   0.651   0.259  0.6660  0.4634 -1.2013
  108MOL   C10936703   2.664   0.620   0.406  0.5821 -0.1468  0.2131
  108MOL   C11036704   2.596   0.742   0.451 -0.2630 -0.7123 -0.6375
  108MOL   O11136705   2.606   0.779   0.571  0.2738  0.5745  0.0344
  108MOL   H11236706   2.580   1.048   0.486 -1.4492  1.4044  0.2043
  108MOL   H11336707   2.601   1.068   0.324 -0.7621 -0.1391  0.9282
  108MOL   H11436708   2.412   0.939   0.251 -2.0378 -1.6277 -0.3462
  108MOL   H11536709   2.513   0.720   0.156 -0.3685  0.1883  0.9299
  108MOL   H11636710   2.646   0.837   0.169  1.0414 -0.0814 -1.1762
  108MOL   H11736711   2.674   0.563   0.198 -0.7625  0.9806 -1.4955
  108MOL   H11836712   2.796   0.682   0.234  1.2420  0.4306  1.0244
  108MOL   H11936713   2.746   0.595   0.473  0.1875  2.2545  1.6908
  108MOL   H12036714   2.586   0.545   0.416  0.4677  0.1084  1.2906
  108MOL   C12136715   2.304   0.896   0.415  0.8550  1.0673  0.2299
  108MOL   C12236716   2.241   0.757   0.375 -0.0409  0.0541  0.2757
  108MOL   N12336717   2.138   0.708   0.474  0.4853 -0.4584  0.0785
  108MOL   C12436718   2.023   0.784   0.513  0.2407 -0.1352  0.2928
  108MOL   C12536719   1.946   0.708   0.619  0.3924  0.3591  0.6547
  108MOL   C12636720   2.039   0.592   0.649  0.4747 -0.8882 -1.1319
  108MOL   C12736721   2.147   0.596   0.546 -0.5493  0.0244  0.3596
  108MOL   O12836722   2.246   0.521   0.537  0.8935 -0.3380 -0.6303
  108MOL   H12936723   2.235   0.978   0.400  0.0704  0.0287 -2.0766
  108MOL   H13036724   2.328   0.895   0.521  1.2776 -0.3989  0.1456
  108MOL   H13136725   2.324   0.686   0.373  1.0414  1.3029  0.4988
  108MOL   H13236726   1.970   0.817   0.424 -0.7082 -1.5623  0.3136
  108MOL   H13336727   2.046   0.875   0.569  0.1760  0.5785 -0.8260
  108MOL   H13436728   1.920   0.774   0.702 -0.0117  1.0355 -0.0024
  108MOL   H13536729   1.857   0.661   0.578  1.2018 -1.4188  0.8944
  108MOL   H13636730   2.070   0.595   0.753  1.7701 -0.9388 -1.5120
  108MOL   H13736731   1.993   0.494   0.646  1.5198 -1.4040 -0.2362
  108MOL   C13836732   2.193   0.760   0.230  0.4657 -0.1533 -0.3979
  108MOL   C13936733   2.154   0.622   0.170  0.4124 -0.5908  0.4748
  108MOL   N14036734   2.082   0.636   0.042 -0.3507  0.3326  0.3418
  108MOL   C14136735   1.945   0.611   0.039 -0.2457 -0.4052  0.0745
  108MOL   C14236736   1.902   0.616   7.802  0.0498 -0.0944  0.2265
  108MOL   C14336737   2.013   0.697   7.735  0.3261 -0.9106  1.0723
  108MOL   C14436738   2.124   0.691   7.833  0.6150 -0.7422 -0.2839
  108MOL   O14536739   2.236   0.735   7.813 -0.5417  0.4735 -0.7296
  108MOL   H14636740   2.270   0.806   0.168  0.0047  0.2402 -0.6871
  108MOL   H14736741   2.104   0.823   0.225  1.3502  1.0394 -1.3373
  108MOL   H14836742   2.086   0.571   0.238 -0.3847  0.8461  0.7783
  108MOL   H14936743   1.923   0.511   0.076  0.7275  0.4144  2.9537
  108MOL   H15036744   1.894   0.690   0.094  1.7739  1.9444 -1.3317
  108MOL   H15136745   1.905   0.521   7.749  0.6162  0.2659 -0.3911
  108MOL   H15236746   1.807   0.667   7.782  1.1319  1.6520 -0.6167
  108MOL   H15336747   2.000   0.801   7.706  0.8753 -1.9496 -3.2585
  108MOL   H15436748   2.056   0.652   7.645  1.7619  1.7119  0.3986
  108MOL   C15536749   2.280   0.538   0.154 -0.3572  0.1032 -0.2605
  108MOL   C15636750   2.278   0.401   0.076  0.0338  0.6280  0.0877
  108MOL   N15736751   2.411   0.347   0.047 -0.6416 -0.6173 -0.0069
  108MOL   C15836752   2.503   0.296   0.148 -0.6150  0.0799  0.2966
  108MOL   C15936753   2.636   0.287   0.074  0.0818  0.1820  0.4466
  108MOL   C16036754   2.618   0.318   7.837 -0.4698  0.0473 -0.8785
  108MOL   C16136755   2.471   0.342   7.833  0.3068  0.3388  0.8369
  108MOL   O16236756   2.409   0.371   7.731  0.3805  0.5679  0.6522
  108MOL   H16336757   2.309   0.511   0.256  0.1468  0.3823 -0.3305
  108MOL   H16436758   2.354   0.601   0.106  0.1188 -0.7283 -0.6324
  108MOL   H16536759   2.228   0.427   7.889 -0.2284  1.8316  0.5617
  108MOL   H16636760   2.521   0.362   0.234  1.4054  0.2759 -0.2312
  108MOL   H16736761   2.479   0.195   0.182 -1.7807  0.2826  0.0759
  108MOL   H16836762   2.700   0.354   0.132 -0.9178  1.2920  0.2772
  108MOL   H16936763   2.687   0.192   0.091  0.0307 -0.0905 -0.8662
  108MOL   H17036764   2.682   0.403   7.811  0.0744 -0.4751 -1.2708
  108MOL   H17136765   2.650   0.238   7.770  0.1172 -1.1307  0.7674
  108MOL   C17236766   2.197   0.299   0.151  0.1962  1.1952 -0.5923
  108MOL   C17336767   2.178   0.162   0.082 -0.9368 -0.1829 -0.5760
  108MOL   N17436768   2.096   0.075   0.161  0.4796 -0.2035 -0.0499
  108MOL   C17536769   2.145   7.856   0.218 -0.5830 -0.4503 -0.2812
  108MOL   C17636770   2.022   7.779   0.267  0.4284  0.1948 -0.5100
  108MOL   C17736771   1.918   7.884   0.275 -0.4469 -0.1990 -0.2061
  108MOL   C17836772   1.967   0.088   0.194  0.2648 -0.4816 -0.5728
  108MOL   O17936773   1.894   0.178   0.166  0.8201  0.1706 -0.1812
  108MOL   H18036774   2.096   0.338   0.159 -0.2293 -0.2590  1.4556
  108MOL   H18136775   2.227   0.282   0.254  2.5788  0.7782 -1.3198
  108MOL   H18236776   2.277   0.116   0.075 -1.3252 -0.7946 -2.4387
  108MOL   H18336777   2.220   7.794   0.168 -1.2877 -2.3188  0.9323
  108MOL   H18436778   2.203   7.888   0.305 -0.1029  0.8983 -1.0753
  108MOL   H18536779   2.022   7.732   0.365 -0.5222  1.2623  0.0047
  108MOL   H18636780   1.997   7.700   0.195  0.0891  0.8160 -1.0763
  108MOL   H18736781   1.818   7.849   0.249  0.5568 -3.2421 -0.0651
  108MOL   H18836782   1.908   0.023   0.375 -3.0748 -0.5411 -0.2667
  108MOL   C18936783   2.125   0.162   7.848 -0.2031  0.5142 -0.3672
  108MOL   C19036784   2.107   0.029   7.781  0.4277  0.6034  0.3638
  108MOL   N19136785   1.967   7.882   7.780 -0.0254  0.2030 -0.2497
  108MOL   C19236786   1.857   0.057   7.737 -0.4091  0.1132  0.4421
  108MOL   C19336787   1.737   7.874   7.717 -0.0483  0.0578 -0.2406
  108MOL   C19436788   1.782   7.729   7.744  0.6437  0.3887 -0.2864
  108MOL   C19536789   1.929   7.754   7.782  0.1865  0.3403  0.1144
  108MOL   O19636790   1.996   7.655   7.813 -0.4433  0.3094 -0.3817
  108MOL   H19736791   2.193   0.221   7.786  1.7953 -1.2443  0.1033
  108MOL   H19836792   2.032   0.218   7.840 -1.7255 -2.1757 -2.0756
  108MOL   H19936793   2.160   7.859   7.838 -0.0072 -0.4496 -0.6002
  108MOL   H20036794   1.830   0.127   7.817 -0.4704  2.1223 -1.2813
  108MOL   H20136795   1.884   0.123   7.654 -1.2752 -0.6978 -0.5043
  108MOL   H20236796   1.653   7.892   7.784  0.9776  1.5233  0.6771
  108MOL   H20336797   1.700   7.884   7.615  0.9816  1.2120 -0.5107
  108MOL   H20436798   1.722   7.673   7.816  1.9088 -0.7501 -0.0861
  108MOL   H20536799   1.776   7.672   7.651  0.6608  1.0549 -0.6960
  108MOL   C20636800   2.169   0.028   7.635 -0.8276  0.5540 -0.2728
  108MOL   C20736801   2.311   7.880   7.616 -0.4946 -0.4476 -1.4841
  108MOL   N20836802   2.308   7.732   7.598 -0.3326 -0.8735  0.5581
  108MOL   C20936803   2.351   7.638   7.692  0.9145  0.1832  0.1281
  108MOL   C21036804   2.305   7.494   7.647 -0.0824  0.1247 -0.1094
  108MOL   C21136805   2.254   7.519   7.508  0.2302 -0.5560 -1.0768
  108MOL   C21236806   2.249   7.669   7.490 -0.4486 -0.2145 -0.1073
  108MOL   O21336807   2.211   7.726   7.388  0.1219 -0.2364 -0.6101
  108MOL   H21436808   2.166   0.129   7.594  0.1390 -0.0118 -1.7612
  108MOL   H21536809   2.101   7.882   7.567  1.2359 -0.9975 -1.1882
  108MOL   H21636810   2.375   7.892   7.704 -4.5929 -2.0203  1.8958
  108MOL   H21736811   2.457   7.626   7.712  0.3168 -2.9896  1.7511
  108MOL   H21836812   2.297   7.663   7.784  1.2765  2.6869 -0.3086
  108MOL   H21936813   2.398   7.436   7.638  0.6587  0.5634  3.8673
  108MOL   H22036814   2.242   7.444   7.720  0.0525 -0.2089 -0.2201
  108MOL   H22136815   2.325   7.476   7.437  0.2151  0.1877 -1.5511
  108MOL   H22236816   2.150   7.490   7.492  0.2934 -1.1165 -0.4427
  108MOL   C22336817   2.386   0.049   7.494 -0.5706 -0.0121 -0.9565
  108MOL   C22436818   2.532   7.902   7.461 -0.3670 -0.3724  0.3777
  108MOL   N22536819   2.567   0.012   7.316 -0.5095  0.6186 -0.1419
  108MOL   C22636820   2.499   7.851   7.210  0.3946 -0.0603 -0.6037
  108MOL   C22736821   2.545   0.002   7.080 -0.3941  0.8077  1.1649
  108MOL   C22836822   2.651   0.103   7.116 -0.2680 -0.4840 -0.3166
  108MOL   C22936823   2.664   0.088   7.269 -0.6813 -0.3131 -0.3666
  108MOL   O23036824   2.743   0.161   7.328 -0.9743 -0.4485  0.6411
  108MOL   H23136825   2.394   0.157   7.509 -0.1116  0.0899 -1.8870
  108MOL   H23236826   2.333   0.033   7.400  0.4298 -2.4245 -1.1423
  108MOL   H23336827   2.513   7.795   7.466  0.2716 -0.5609 -0.9452
  108MOL   H23436828   2.537   7.752   7.233  2.3959  1.0216  0.9471
  108MOL   H23536829   2.390   7.856   7.212  0.3295 -1.3907 -0.2098
  108MOL   H23636830   2.596   7.827   7.029 -3.7402 -0.6929  0.0824
  108MOL   H23736831   2.475   0.042   7.006  0.4795  0.3284  0.0766
  108MOL   H23836832   2.745   0.072   7.072  0.5245 -0.7653  1.5467
  108MOL   H23936833   2.627   0.206   7.089 -0.2731 -0.5455 -0.5489
  108MOL   C24036834   2.634   0.022   7.574  0.1438 -0.4079  0.6657
  108MOL   C24136835   2.763   7.837   7.580 -0.6523 -0.4868 -0.7169
  108MOL   N24236836   2.834   7.849   7.713  0.2868  0.3411  0.4642
  108MOL   C24336837   2.960   0.020   7.724  0.6379 -0.2193  0.3898
  108MOL   C24436838   2.996   0.028   7.876 -0.7263  0.6323  0.1572
  108MOL   C24536839   2.887   7.858   0.036  0.0971  0.0749  0.7776
  108MOL   C24636840   2.785   7.825   7.836  0.0939  0.1072 -0.2686
  108MOL   O24736841   2.668   7.783   7.851 -0.2540 -0.1725  0.1206
  108MOL   H24836842   2.579   0.001   7.666  0.2390 -0.8697  0.6168
  108MOL   H24936843   2.664   0.127   7.581 -0.8008 -0.2242  2.3800
  108MOL   H25036844   2.828   7.875   7.502 -0.9405  0.7114 -0.3861
  108MOL   H25136845   3.038   7.869   7.673 -0.1785 -1.8487  0.9160
  108MOL   H25236846   2.943   0.115   7.673  0.0327 -0.3564  0.3428
  108MOL   H25336847   3.097   7.902   7.902 -0.1835  2.2599  0.0460
  108MOL   H25436848   2.991   0.134   7.897  2.2238  0.9817 -0.6252
  108MOL   H25536849   2.913   7.756   0.064 -0.2759 -0.6323 -1.3279
  108MOL   H25636850   2.853   7.904   0.129 -0.2225  1.1136  0.1550
  108MOL   C25736851   2.733   7.689   7.532 -0.9064 -0.4193 -0.5438
  108MOL   C25836852   2.859   7.603   7.526  0.0932 -0.0033  0.4099
  108MOL   N25936853   2.821   7.470   7.481  0.8597 -0.8975 -0.9291
  108MOL   C26036854   2.733   7.448   7.372  0.0929 -1.1252 -0.2044
  108MOL   C26136855   2.708   7.301   7.368  0.1168  0.1001 -0.8327
  108MOL   C26236856   2.766   7.244   7.494 -0.4172  0.1521 -0.5117
  108MOL   C26336857   2.836   7.357   7.553 -0.1173  0.6751 -1.1566
  108MOL   O26436858   2.890   7.352   7.659  0.5476  0.2259  0.3255
  108MOL   H26536859   2.675   7.685   7.441 -0.9874 -2.8229 -0.4215
  108MOL   H26636860   2.656   7.655   7.601 -0.6809  0.1169 -0.0206
  108MOL   H26736861   2.897   7.601   7.628  0.8423 -1.5642  0.1083
  108MOL   H26836862   2.637   7.492   7.398 -0.0128 -2.3654  1.6914
  108MOL   H26936863   2.769   7.482   7.276 -0.4415  0.7004  0.2199
  108MOL   H27036864   2.606   7.270   7.347 -0.4161  0.7090  0.7698
  108MOL   H27136865   2.762   7.257   7.284  1.3799  0.4955 -0.2432
  108MOL   H27236866   2.700   7.207   7.572  0.7599  2.9975  1.9568
  108MOL   H27336867   2.839   7.166   7.474  0.2399 -0.2126  3.0119
  108MOL   C27436868   2.972   7.660   7.432  0.5648 -0.3950  0.3923
  108MOL   C27536869   3.095   7.568   7.408  0.4485 -0.2438  0.0021
  108MOL   N27636870   3.079   7.460   7.314  0.2744 -0.4019 -0.3260
  108MOL   C27736871   3.131   7.332   7.356  0.5487  0.1497 -0.3900
  108MOL   C27836872   3.112   7.241   7.240  0.4020  0.0165  0.0578
  108MOL   C27936873   3.048   7.313   7.131  0.1198  0.4553  1.2356
  108MOL   C28036874   3.037   7.460   7.189 -0.0412  0.8562  0.0636
  108MOL   O28136875   2.978   7.552   7.134 -0.2185 -0.3507 -0.1978
  108MOL   H28236876   2.991   7.758   7.475 -0.2119  0.0857 -0.3450
  108MOL   H28336877   2.935   7.697   7.337  1.3866  1.4327  0.7711
  108MOL   H28436878   3.096   7.521   7.506  0.9834  0.2250  0.2256
  108MOL   H28536879   3.231   7.346   7.396 -0.1025 -2.6827  2.4255
  108MOL   H28636880   3.089   7.302   7.451  0.4651 -0.4626 -0.6154
  108MOL   H28736881   3.208   7.199   7.211  0.7813  0.8883  0.0679
  108MOL   H28836882   3.054   7.150   7.257  1.3666 -0.7658 -0.7736
  108MOL   H28936883   3.067   7.316   7.024 -4.1089  1.1573  0.4164
  108MOL   H29036884   2.947   7.272   7.131 -0.0759  0.9318  1.4941
  108MOL   C29136885   3.229   7.638   7.409  0.1904 -0.0564  0.5019
  108MOL   C29236886   3.265   7.731   7.282  0.6113 -0.4368 -0.0930
  108MOL   N29336887   3.209   7.860   7.282 -0.7661 -0.1727 -0.4857
  108MOL   C29436888   3.127   7.898   7.164 -0.4489 -0.2075  0.2847
  108MOL   C29536889   3.092   0.136   7.190  0.1183 -0.0023  0.9111
  108MOL   C29636890   3.097   0.155   7.340 -0.0671 -0.8604  0.7970
  108MOL   C29736891   3.195   0.043   7.382 -0.0371 -0.0254 -0.4966
  108MOL   O29836892   3.246   0.045   7.494  0.3103  0.1422 -0.1550
  108MOL   H29936893   3.307   7.563   7.416  1.3233  0.8441 -1.8538
  108MOL   H30036894   3.241   7.699   7.499 -0.8657 -0.1749  0.7381
  108MOL   H30136895   3.230   7.689   7.188 -1.8324  0.3126  0.4320
  108MOL   H30236896   3.181   7.882   7.070  1.5596  0.4099  1.3037
  108MOL   H30336897   3.034   7.841   7.164  0.4124 -1.6942 -2.4407
  108MOL   H30436898   3.169   0.191   7.135  0.6647 -1.1208  0.5288
  108MOL   H30536899   2.990   0.150   7.154  0.3848 -0.5679 -0.0994
  108MOL   H30636900   3.142   0.251   7.363  1.4213 -1.7847  1.8371
  108MOL   H30736901   3.000   0.145   7.389 -1.0794 -0.4445 -1.0612
  108MOL   C30836902   3.413   7.742   7.268  0.0854  0.4343 -0.2323
  108MOL   C30936903   3.473   7.621   7.195 -0.0201 -0.4921 -0.7462
  108MOL   N31036904   3.445   7.635   7.045  0.0334  0.4563 -0.9265
  108MOL   C31136905   3.357   7.535   6.984  0.7662 -0.1845 -0.7997
  108MOL   C31236906   3.378   7.540   6.834  0.3821  0.4459 -0.6222
  108MOL   C31336907   3.467   7.662   6.815 -0.5163 -0.2120  0.3027
  108MOL   C31436908   3.500   7.709   6.950 -0.0395 -0.2145  0.1727
  108MOL   O31536909   3.574   7.801   6.964  0.9135  0.2531 -0.0094
  108MOL   H31636910   3.456   7.747   7.368  2.1846  0.8177 -1.1339
  108MOL   H31736911   3.439   7.835   7.218  0.5908 -0.0613 -0.9139
  108MOL   H31836912   3.414   7.535   7.226  1.9874 -1.6566 -0.0606
  108MOL   H31936913   3.379   7.433   7.015  0.3284 -0.4273 -1.2646
  108MOL   H32036914   3.256   7.563   7.013  0.7140  0.4188 -1.5343
  108MOL   H32136915   3.427   7.448   6.800  0.8796  1.0493 -1.5437
  108MOL   H32236916   3.283   7.547   6.780  1.0709  1.3383 -1.7367
  108MOL   H32336917   3.567   7.644   6.774  0.0473 -1.6410  2.2543
  108MOL   H32436918   3.428   7.738   6.747  2.1651 -0.1276 -1.2326
  108MOL   C32536919   3.626   7.606   7.231  0.1191 -0.4257  0.0613
  108MOL   C32636920   3.659   7.548   7.373  0.0399 -0.2182  0.3242
  108MOL   N32736921   3.599   7.420   7.399 -0.5083 -0.8221  0.7230
  108MOL   C32836922   3.551   7.398   7.537 -1.0060  0.2167 -0.4095
  108MOL   C32936923   3.496   7.254   7.529  0.8067  0.0010 -0.6693
  108MOL   C33036924   3.564   7.190   7.409 -1.2356  0.0006 -0.6682
  108MOL   C33136925   3.613   7.305   7.330  0.4998 -0.6012  0.9171
  108MOL   O33236926   3.665   7.287   7.220 -0.3258 -0.0825 -0.4900
  108MOL   H33336927   3.665   7.708   7.227  1.5331 -0.8733  1.7555
  108MOL   H33436928   3.684   7.544   7.162 -0.7144 -1.1751  0.0163
  108MOL   H33536929   3.638   7.618   7.454  1.9013 -0.7536  1.2937
  108MOL   H33636930   3.632   7.414   7.608 -0.9498 -2.5306  0.2055
  108MOL   H33736931   3.473   7.466   7.572  0.5626  2.7686 -1.7169
  108MOL   H33836932   3.521   7.196   7.618 -0.7070  1.3173  0.6505
  108MOL   H33936933   3.387   7.251   7.527  0.7348 -1.9854  2.4881
  108MOL   H34036934   3.656   7.143   7.442  0.7181  3.1368 -1.4356
  108MOL   H34136935   3.497   7.133   7.345 -1.6503 -0.8372  0.4969
  108MOL   H34236936   3.765   7.527   7.384  0.0449 -2.1402 -2.7125
  109MOL     C136937   3.425   3.967   4.852 -0.7860 -0.2729  0.3389
  109MOL     C236938   3.396   4.106   4.789  0.7640 -0.1618  0.4964
  109MOL     N336939   3.278   4.164   4.859 -0.5226 -0.2647 -0.5430
  109MOL     C436940   3.149   4.133   4.811  0.7255 -0.2584  0.0632
  109MOL     C536941   3.045   4.189   4.916 -0.6307  0.7753  0.1878
  109MOL     C636942   3.130   4.249   5.029 -0.4201 -0.2828  0.2374
  109MOL     C736943   3.268   4.230   4.977 -0.2333  0.1873  0.1164
  109MOL     O836944   3.362   4.263   5.052 -0.2463  0.5073  1.4209
  109MOL     H936945   3.330   3.920   4.878  0.0589 -0.4749  3.1674
  109MOL    H1036946   3.464   3.897   4.777 -0.7923  0.5279 -0.4222
  109MOL    H1136947   3.374   4.091   4.683 -1.2311 -1.5273  1.0591
  109MOL    H1236948   3.141   4.174   4.710 -0.5832 -2.3574 -0.7399
  109MOL    H1336949   3.144   4.025   4.799 -1.9706 -0.1847  0.2042
  109MOL    H1436950   2.984   4.271   4.880 -1.9148 -0.2522 -0.0472
  109MOL    H1536951   2.966   4.123   4.953 -0.6074 -0.4280 -1.8494
  109MOL    H1636952   3.112   4.355   5.042 -0.3210 -0.3358  0.8449
  109MOL    H1736953   3.114   4.196   5.123  1.8218  0.4904  1.1007
  109MOL    H1836954   3.487   3.976   4.941 -1.0756 -2.0742  0.7372
  109MOL    C1936955   3.523   4.201   4.807  0.4489 -0.7014 -0.1250
  109MOL    C2036956   3.640   4.179   4.707  0.2635  0.1498  0.2120
  109MOL    N2136957   3.592   4.192   4.569  0.2569 -0.1241 -0.8238
  109MOL    C2236958   3.665   4.112   4.466  0.3484  0.1073 -0.2029
  109MOL    C2336959   3.649   4.193   4.339 -0.1231  0.3957  1.1709
  109MOL    C2436960   3.530   4.286   4.362  0.7588  0.2585  0.4930
  109MOL    C2536961   3.515   4.287   4.513 -0.5935  0.1350  0.0753
  109MOL    O2636962   3.445   4.371   4.568 -0.2887  0.1048  0.4774
  109MOL    H2736963   3.568   4.182   4.905 -1.2916  0.9412  1.0568
  109MOL    H2836964   3.499   4.307   4.819 -0.5945 -1.1545  2.1238
  109MOL    H2936965   3.688   4.083   4.724  1.1437  0.7731  1.2646
  109MOL    H3036966   3.768   4.098   4.498  0.1511 -0.0437  0.3824
  109MOL    H3136967   3.622   4.014   4.442 -0.9553  0.3940  0.8649
  109MOL    H3236968   3.732   4.262   4.322  0.7937 -0.8976  0.2747
  109MOL    H3336969   3.651   4.125   4.253  0.6175  3.0923 -1.0085
  109MOL    H3436970   3.538   4.389   4.327  1.3940  0.4887  1.3021
  109MOL    H3536971   3.442   4.247   4.312 -0.1610  0.8614  1.6168
  109MOL    C3636972   3.752   4.287   4.723  0.0444  0.1618  0.3914
  109MOL    C3736973   3.821   4.287   4.856  0.0419  0.1563  0.2074
  109MOL    N3836974   3.878   4.147   4.881 -0.1997  0.4210  0.4443
  109MOL    C3936975   3.836   4.077   5.007 -0.3420 -0.5252  0.9182
  109MOL    C4036976   3.911   3.935   5.001  0.2974 -0.1014 -0.3836
  109MOL    C4136977   3.998   3.944   4.876  0.2366 -0.5332 -0.1785
  109MOL    C4236978   3.968   4.077   4.814 -0.0546  0.4970 -0.1612
  109MOL    O4336979   4.024   4.120   4.712 -0.1500 -0.3374 -0.4915
  109MOL    H4436980   3.705   4.386   4.714 -0.5813 -0.1248  0.4832
  109MOL    H4536981   3.818   4.267   4.638  0.2014  2.7166 -0.1545
  109MOL    H4636982   3.750   4.307   4.937  0.6287  0.2249  0.7127
  109MOL    H4736983   3.872   4.153   5.076 -1.0128  0.1727  0.5099
  109MOL    H4836984   3.731   4.066   5.033 -0.8919  0.2144 -0.9421
  109MOL    H4936985   3.967   3.904   5.089  0.1373  0.0648 -0.2238
  109MOL    H5036986   3.838   3.859   4.975 -0.7540  0.1129  1.8737
  109MOL    H5136987   4.104   3.938   4.901  0.4588  1.2559 -0.6134
  109MOL    H5236988   3.976   3.865   4.804 -0.7374  0.8682 -1.4589
  109MOL    C5336989   3.933   4.395   4.875 -0.2073  0.0252 -0.4427
  109MOL    C5436990   3.882   4.540   4.869 -0.3695 -0.5904  0.1704
  109MOL    N5536991   3.804   4.566   4.993  0.2437 -0.4109  0.0438
  109MOL    C5636992   3.664   4.584   4.977  0.1469  0.3271 -0.7055
  109MOL    C5736993   3.611   4.631   5.110  0.1885  0.0555  0.3509
  109MOL    C5836994   3.731   4.602   5.204  0.5173  0.4664 -1.2288
  109MOL    C5936995   3.844   4.567   5.118  0.3712  0.5001 -0.8156
  109MOL    O6036996   3.957   4.541   5.162  0.0058  0.4579 -0.0760
  109MOL    H6136997   4.017   4.381   4.807  0.3926  2.6869 -0.2984
  109MOL    H6236998   3.975   4.369   4.972 -0.0192 -2.4889 -1.1787
  109MOL    H6336999   3.819   4.544   4.780 -1.8488 -2.0931  1.1111
  109MOL    H6437000   3.647   4.663   4.904 -0.6275  1.4645  0.6856
  109MOL    H6537001   3.606   4.496   4.948 -0.5369  0.5337  0.0076
  109MOL    H6637002   3.588   4.738   5.114  2.0151  0.4342  1.2811
  109MOL    H6737003   3.514   4.583   5.123  0.5140 -0.6777  0.0999
  109MOL    H6837004   3.742   4.690   5.268 -2.2051 -0.3800  0.4743
  109MOL    H6937005   3.705   4.526   5.277  1.2315  1.5630  0.1877
  109MOL    C7037006   4.001   4.642   4.851 -0.2138  0.2056 -0.2871
  109MOL    C7137007   4.054   4.637   4.706 -0.3121  0.1421 -0.1239
  109MOL    N7237008   3.951   4.678   4.612  0.1980 -0.0787  0.8460
  109MOL    C7337009   3.911   4.586   4.505 -0.4543 -1.0826  0.5086
  109MOL    C7437010   3.782   4.659   4.450  0.5059 -0.0261  0.3460
  109MOL    C7537011   3.780   4.805   4.507 -0.1254  0.2190  0.5541
  109MOL    C7637012   3.891   4.798   4.611  0.3021 -0.1958 -0.2360
  109MOL    O7737013   3.924   4.892   4.686 -0.0597  0.1305 -0.0613
  109MOL    H7837014   4.076   4.616   4.926  1.6773  2.6978 -1.2353
  109MOL    H7937015   3.958   4.739   4.877  0.0533 -0.3292  2.2279
  109MOL    H8037016   4.075   4.532   4.684 -1.6587 -0.1356 -0.1077
  109MOL    H8137017   3.990   4.572   4.431 -0.0371 -0.8294  0.9036
  109MOL    H8237018   3.881   4.489   4.544  1.2596 -1.4786  0.8712
  109MOL    H8337019   3.793   4.663   4.341  0.5899  1.6991  0.4027
  109MOL    H8437020   3.695   4.601   4.481  0.7554 -1.0418 -0.8448
  109MOL    H8537021   3.813   4.883   4.438 -0.9709 -0.2109 -0.3601
  109MOL    H8637022   3.694   4.830   4.570  0.2860 -0.0135  1.2069
  109MOL    C8737023   4.193   4.714   4.694  0.1286 -0.0522  0.1828
  109MOL    C8837024   4.313   4.639   4.773 -0.8295  0.2545  0.2628
  109MOL    N8937025   4.323   4.494   4.743  0.0008  0.0876 -0.0699
  109MOL    C9037026   4.336   4.406   4.855 -0.6167 -1.2404 -0.8135
  109MOL    C9137027   4.348   4.258   4.792 -1.1673 -0.3857  0.0586
  109MOL    C9237028   4.330   4.278   4.642  0.6904  0.0281 -0.5174
  109MOL    C9337029   4.333   4.421   4.625  0.5184 -0.4897  0.3589
  109MOL    O9437030   4.355   4.472   4.516 -0.7365 -0.1025  0.0027
  109MOL    H9537031   4.185   4.815   4.734  1.2986  0.6907 -1.4130
  109MOL    H9637032   4.220   4.719   4.588  1.5055  4.6006  0.6439
  109MOL    H9737033   4.278   4.637   4.876 -0.2595 -2.1766  0.4200
  109MOL    H9837034   4.431   4.432   4.901 -3.1471  1.0198  3.4321
  109MOL    H9937035   4.252   4.421   4.924  1.1136  2.3730  0.6196
  109MOL   H10037036   4.454   4.236   4.801 -0.4100  2.1440 -1.8967
  109MOL   H10137037   4.288   4.178   4.835 -1.4775 -0.0201  0.3050
  109MOL   H10237038   4.402   4.232   4.574  1.6299 -0.6960  0.9300
  109MOL   H10337039   4.237   4.241   4.600  0.7283 -1.8500  0.9828
  109MOL   C10437040   4.453   4.708   4.764  0.3102  0.0297  0.2068
  109MOL   C10537041   4.463   4.854   4.823 -0.8623 -0.5167 -0.1485
  109MOL   N10637042   4.392   4.866   4.953 -0.0573  0.2608 -0.4246
  109MOL   C10737043   4.281   4.961   4.960 -0.3119  0.4768 -0.2728
  109MOL   C10837044   4.212   4.929   5.087 -0.0115  0.2855  0.4016
  109MOL   C10937045   4.324   4.864   5.170  0.3224  0.3927 -0.0567
  109MOL   C11037046   4.405   4.797   5.065 -0.6169  0.0125  0.8402
  109MOL   O11137047   4.481   4.703   5.085 -0.3873 -0.7037 -0.3013
  109MOL   H11237048   4.507   4.697   4.670  1.4045 -1.3709  0.9788
  109MOL   H11337049   4.513   4.638   4.821 -0.4795 -0.7602  0.0811
  109MOL   H11437050   4.423   4.918   4.744  0.4948  0.4583 -0.0652
  109MOL   H11537051   4.333   5.057   4.967  0.4633 -0.0177  0.8281
  109MOL   H11637052   4.214   4.954   4.874  2.4291 -4.5650 -2.2387
  109MOL   H11737053   4.176   5.019   5.137  1.3944  1.5051 -0.7113
  109MOL   H11837054   4.124   4.866   5.075  0.4985 -0.2609 -0.5197
  109MOL   H11937055   4.302   4.789   5.246  0.0097 -0.2535 -0.7757
  109MOL   H12037056   4.390   4.941   5.210 -0.0577  0.6507  0.0766
  109MOL   C12137057   4.613   4.878   4.848  0.8700  0.0853  0.1201
  109MOL   C12237058   4.697   4.901   4.715  0.0303  0.0649  0.3548
  109MOL   N12337059   4.650   5.011   4.629 -0.4194 -0.0865 -0.1876
  109MOL   C12437060   4.675   5.002   4.486 -0.0789  0.1291  0.3975
  109MOL   C12537061   4.616   5.125   4.415 -0.5359  1.0455 -0.4877
  109MOL   C12637062   4.569   5.212   4.534  1.0327  0.2364  0.8838
  109MOL   C12737063   4.592   5.129   4.655 -0.6589  0.1339 -0.8027
  109MOL   O12837064   4.576   5.172   4.766 -0.8518 -0.5327  0.3701
  109MOL   H12937065   4.659   4.795   4.901 -0.1825 -1.5251 -1.4468
  109MOL   H13037066   4.623   4.968   4.910  2.0216  0.3595 -0.4606
  109MOL   H13137067   4.693   4.812   4.652 -1.5809 -1.6402  2.7939
  109MOL   H13237068   4.625   4.915   4.445  2.9132 -1.7346  0.5574
  109MOL   H13337069   4.782   5.001   4.466  0.0604 -0.6794  1.1287
  109MOL   H13437070   4.696   5.175   4.361 -0.4398 -0.5502 -1.8377
  109MOL   H13537071   4.535   5.098   4.348 -0.4432  0.6930 -0.4600
  109MOL   H13637072   4.634   5.299   4.543  0.8529  0.5239 -0.4874
  109MOL   H13737073   4.467   5.248   4.526  1.7144  2.1959  0.7722
  109MOL   C13837074   4.845   4.912   4.766  0.0590 -1.0740  0.0172
  109MOL   C13937075   4.931   4.784   4.774  0.1324 -0.6157  0.1970
  109MOL   N14037076   5.006   4.748   4.644 -0.6483  0.0630  0.3531
  109MOL   C14137077   4.976   4.613   4.583 -0.2732  0.6051  0.0864
  109MOL   C14237078   5.072   4.607   4.461 -0.0690 -0.3994  0.0805
  109MOL   C14337079   5.121   4.752   4.446 -0.3646 -0.0132  0.1839
  109MOL   C14437080   5.089   4.825   4.573 -0.3501 -0.7128  0.0897
  109MOL   O14537081   5.127   4.945   4.591  0.0824  0.2650  0.1156
  109MOL   H14637082   4.838   4.951   4.868 -0.4689  0.5412 -0.6168
  109MOL   H14737083   4.894   4.991   4.709 -0.4650 -0.1991  0.7505
  109MOL   H14837084   4.874   4.701   4.815 -0.7031  0.3972  1.1121
  109MOL   H14937085   4.997   4.529   4.648  0.1770  0.1464 -0.6449
  109MOL   H15037086   4.872   4.598   4.557  0.2529 -2.4509 -0.3487
  109MOL   H15137087   5.152   4.537   4.484 -0.0571 -0.7679 -1.0636
  109MOL   H15237088   5.026   4.566   4.372  0.4794 -2.1996  0.6103
  109MOL   H15337089   5.082   4.805   4.360 -1.1658  1.0504  1.1869
  109MOL   H15437090   5.229   4.762   4.443 -0.0668 -1.6901  3.0397
  109MOL   C15537091   5.030   4.807   4.887 -0.2042 -0.2616  0.9635
  109MOL   C15637092   4.982   4.789   5.031  0.1610 -0.3198 -0.2581
  109MOL   N15737093   4.934   4.651   5.057  0.0754 -0.1912  0.6784
  109MOL   C15837094   4.815   4.639   5.139 -0.6258 -0.2862 -0.2323
  109MOL   C15937095   4.780   4.491   5.135  0.0958 -0.6873 -0.3826
  109MOL   C16037096   4.907   4.419   5.093  0.3225  0.5739  0.5117
  109MOL   C16137097   4.997   4.533   5.040  0.7716 -0.4515  0.4763
  109MOL   O16237098   5.105   4.517   4.983 -0.1262  0.1381 -0.3311
  109MOL   H16337099   5.057   4.912   4.884  0.6674 -0.4363  2.4013
  109MOL   H16437100   5.124   4.758   4.864 -0.0017  0.7638 -0.4822
  109MOL   H16537101   4.900   4.858   5.051  0.7650  0.2374  0.2943
  109MOL   H16637102   4.833   4.668   5.242  3.6324  0.9646 -1.2467
  109MOL   H16737103   4.733   4.701   5.103  1.2375  1.9592 -0.6963
  109MOL   H16837104   4.726   4.473   5.228 -0.1794  1.2644 -0.1256
  109MOL   H16937105   4.703   4.473   5.060 -2.0890  0.7680  1.4334
  109MOL   H17037106   4.961   4.374   5.177  0.1298  0.5862  0.6412
  109MOL   H17137107   4.882   4.341   5.021  0.7307 -0.3766  1.3935
  109MOL   C17237108   5.089   4.817   5.137 -0.3600  0.7264  0.3331
  109MOL   C17337109   5.133   4.970   5.136 -0.3286  0.6320 -0.2808
  109MOL   N17437110   5.016   5.061   5.150  0.5001  0.4333  0.4178
  109MOL   C17537111   4.987   5.161   5.053  0.1815  0.0351 -0.6307
  109MOL   C17637112   4.843   5.201   5.076  0.1734  0.0404 -0.5193
  109MOL   C17737113   4.815   5.169   5.221  0.3774  0.5937  0.5532
  109MOL   C17837114   4.932   5.065   5.248  0.7788 -0.6173  0.3484
  109MOL   O17937115   4.933   4.989   5.344  0.2601 -0.2713  0.1114
  109MOL   H18037116   5.173   4.752   5.113 -0.1828  1.3467 -0.8164
  109MOL   H18137117   5.054   4.783   5.234 -1.5567  0.2984 -0.2500
  109MOL   H18237118   5.182   5.001   5.044  0.9133 -2.4592 -0.7230
  109MOL   H18337119   5.059   5.241   5.069 -0.8540  1.1347 -1.3792
  109MOL   H18437120   4.991   5.132   4.948  0.8285 -2.5161  0.0647
  109MOL   H18537121   4.784   5.173   4.988  1.9456  1.0929 -2.0954
  109MOL   H18637122   4.827   5.308   5.081  0.5092  0.0029  1.9996
  109MOL   H18737123   4.809   5.254   5.288  0.2298 -0.2288  1.5904
  109MOL   H18837124   4.721   5.114   5.226  0.6795 -0.2397 -1.9069
  109MOL   C18937125   5.236   4.988   5.250  0.3338 -0.5174  0.0748
  109MOL   C19037126   5.355   5.087   5.219 -0.3485 -0.0606 -0.2323
  109MOL   N19137127   5.406   5.144   5.344 -0.1223 -0.3615 -0.1194
  109MOL   C19237128   5.470   5.051   5.442 -0.7316 -0.0490  0.5542
  109MOL   C19337129   5.534   5.143   5.550  0.0888  0.1127 -0.0784
  109MOL   C19437130   5.487   5.279   5.515 -0.6023 -0.9529 -0.1376
  109MOL   C19537131   5.409   5.271   5.382  0.0212 -0.4734  0.0885
  109MOL   O19637132   5.344   5.370   5.337 -0.0538 -0.9526 -0.2387
  109MOL   H19737133   5.277   4.894   5.286  2.4959  1.2569  2.3971
  109MOL   H19837134   5.185   5.026   5.338  0.5016  1.3401 -0.5985
  109MOL   H19937135   5.318   5.170   5.158 -1.4511  0.0373  0.5543
  109MOL   H20037136   5.386   4.992   5.479 -0.8784  0.2460  0.6905
  109MOL   H20137137   5.543   4.982   5.401  1.0619  2.2164 -0.2277
  109MOL   H20237138   5.499   5.105   5.646  2.5108 -1.9814  0.0325
  109MOL   H20337139   5.643   5.138   5.545  0.0657 -2.0371  0.9018
  109MOL   H20437140   5.422   5.316   5.595  0.6444 -2.8726  1.7970
  109MOL   H20537141   5.573   5.342   5.490  2.3927 -4.9801 -0.4084
  109MOL   C20637142   5.462   5.012   5.123  0.7785  0.8103  0.5985
  109MOL   C20737143   5.591   5.098   5.080  0.4209 -0.1384 -0.2631
  109MOL   N20837144   5.712   5.029   5.119  0.7296  0.0961  0.0934
  109MOL   C20937145   5.817   5.101   5.189  0.0471 -0.4093  0.3292
  109MOL   C21037146   5.946   5.027   5.148  1.8128 -0.7382 -0.0079
  109MOL   C21137147   5.895   4.887   5.120 -0.1155  0.7588 -0.2357
  109MOL   C21237148   5.743   4.904   5.085 -0.2051 -0.0023 -0.3071
  109MOL   O21337149   5.670   4.817   5.042 -0.1574 -0.1222 -0.0922
  109MOL   H21437150   5.422   4.966   5.033  0.4500  1.7056  0.2813
  109MOL   H21537151   5.499   4.924   5.175 -2.2118  0.3469  2.1203
  109MOL   H21637152   5.589   5.192   5.136  0.7485  0.7779 -1.7732
  109MOL   H21737153   5.817   5.204   5.153 -1.7866 -0.8141 -0.8796
  109MOL   H21837154   5.796   5.103   5.296 -0.9892  1.7750  0.1264
  109MOL   H21937155   5.991   5.061   5.055 -0.4811 -1.6314 -1.4861
  109MOL   H22037156   6.019   5.029   5.230  0.7509 -2.1645  0.9911
  109MOL   H22137157   5.951   4.836   5.041 -1.3883 -0.4334 -0.3910
  109MOL   H22237158   5.901   4.835   5.216  0.8872  2.3855  0.5980
  109MOL   C22337159   5.595   5.134   4.924  0.9136  0.2697  0.3899
  109MOL   C22437160   5.492   5.239   4.876  0.4805  0.3016  0.3095
  109MOL   N22537161   5.530   5.373   4.939 -0.2538  0.8816  0.3017
  109MOL   C22637162   5.436   5.458   5.008 -0.4275 -0.3963  0.3253
  109MOL   C22737163   5.510   5.598   5.017 -0.3838 -0.6572 -0.1110
  109MOL   C22837164   5.659   5.558   5.006 -0.0046  0.8204  0.0192
  109MOL   C22937165   5.651   5.430   4.930 -0.2727  0.2729  0.4870
  109MOL   O23037166   5.749   5.394   4.871 -0.7337  0.1162 -0.3803
  109MOL   H23137167   5.573   5.039   4.875 -2.0344  0.7329  0.6869
  109MOL   H23237168   5.699   5.150   4.895  0.7766  0.9137  0.2476
  109MOL   H23337169   5.396   5.212   4.920  1.4932 -1.4591  1.5006
  109MOL   H23437170   5.336   5.462   4.965 -0.4459 -1.1159  0.2997
  109MOL   H23537171   5.421   5.411   5.106 -0.1782  0.1580  0.6321
  109MOL   H23637172   5.466   5.659   4.938 -0.4126  0.3697  0.6846
  109MOL   H23737173   5.482   5.656   5.105 -2.4543 -1.3568 -0.2891
  109MOL   H23837174   5.720   5.629   4.951 -0.3886  1.4345  0.3752
  109MOL   H23937175   5.702   5.540   5.105  0.0604  1.2062  0.0637
  109MOL   C24037176   5.479   5.247   4.722 -0.5358 -0.8574 -0.7184
  109MOL   C24137177   5.384   5.350   4.666  0.4369  0.1320  0.0897
  109MOL   N24237178   5.451   5.434   4.565  0.0155  0.2005 -0.0032
  109MOL   C24337179   5.476   5.572   4.594  0.2963 -0.7438 -0.0985
  109MOL   C24437180   5.563   5.629   4.475 -0.0471 -0.2825 -0.5823
  109MOL   C24537181   5.594   5.513   4.386  0.1130  0.0679  0.4875
  109MOL   C24637182   5.503   5.398   4.445 -0.4368  0.6509 -0.4941
  109MOL   O24737183   5.506   5.285   4.401  0.6620 -0.0579 -0.2801
  109MOL   H24837184   5.459   5.145   4.687 -2.0667 -0.1488 -1.9398
  109MOL   H24937185   5.578   5.258   4.677 -1.0218  0.1007 -1.5513
  109MOL   H25037186   5.354   5.414   4.748  1.2674 -1.3840  1.6010
  109MOL   H25137187   5.379   5.621   4.582  0.7525  0.0216 -0.6751
  109MOL   H25237188   5.521   5.592   4.691 -0.5151  0.6257  0.0093
  109MOL   H25337189   5.506   5.698   4.412  0.3844  0.9178  0.3040
  109MOL   H25437190   5.647   5.672   4.529 -0.3974 -2.8719  2.1860
  109MOL   H25537191   5.573   5.532   4.281 -0.4972  0.1873  0.6281
  109MOL   H25637192   5.700   5.486   4.385 -0.1140 -0.7644 -1.5840
  109MOL   C25737193   5.265   5.280   4.599  0.5274  0.0318 -0.2063
  109MOL   C25837194   5.152   5.386   4.556 -0.7361 -0.2558 -0.3952
  109MOL   N25937195   5.096   5.345   4.432 -0.3556  0.6105  0.1263
  109MOL   C26037196   5.026   5.212   4.419 -0.1010 -1.1965 -0.2315
  109MOL   C26137197   5.021   5.191   4.267  0.1227  0.0622  0.5154
  109MOL   C26237198   5.029   5.336   4.201 -0.1563  0.4880  0.1803
  109MOL   C26337199   5.104   5.413   4.313  0.7290  0.0880 -0.4122
  109MOL   O26437200   5.179   5.507   4.290  0.4436 -0.0317  0.2213
  109MOL   H26537201   5.216   5.212   4.669  1.3823  0.6373  1.0027
  109MOL   H26637202   5.295   5.223   4.511  0.2212 -0.5755  0.0762
  109MOL   H26737203   5.195   5.486   4.544  0.4389 -0.7082 -0.0398
  109MOL   H26837204   5.071   5.123   4.462 -0.7082 -1.2972  0.2102
  109MOL   H26937205   4.927   5.214   4.465 -0.5447 -1.6444 -1.1661
  109MOL   H27037206   5.112   5.135   4.244  0.1223 -0.2266  1.1906
  109MOL   H27137207   4.930   5.141   4.234 -1.2178  2.3758  0.6410
  109MOL   H27237208   5.083   5.327   4.106 -1.5710 -0.3345 -0.5527
  109MOL   H27337209   4.931   5.377   4.176  0.1507  0.4321 -1.1580
  109MOL   C27437210   5.043   5.404   4.666 -0.3181 -0.1733  0.9063
  109MOL   C27537211   4.977   5.546   4.664  0.2562  0.1211 -0.9625
  109MOL   N27637212   4.833   5.545   4.687  0.0672  0.5737  0.0145
  109MOL   C27737213   4.745   5.575   4.575 -0.0705 -0.2707  0.0267
  109MOL   C27837214   4.603   5.575   4.637  0.1534 -0.5098  0.1690
  109MOL   C27937215   4.616   5.519   4.779  0.2325 -0.5304  0.2209
  109MOL   C28037216   4.772   5.515   4.802  0.2651  0.0381  0.3066
  109MOL   O28137217   4.831   5.484   4.908  0.1918 -0.0011  0.0332
  109MOL   H28237218   5.091   5.372   4.759  1.5330  1.2455  0.4603
  109MOL   H28337219   4.969   5.324   4.660  0.8998 -1.1964 -0.9798
  109MOL   H28437220   4.983   5.588   4.564 -0.3930  1.2549 -0.5272
  109MOL   H28537221   4.771   5.672   4.533 -1.1154 -0.6638 -1.5751
  109MOL   H28637222   4.757   5.490   4.508 -2.2223 -0.5339 -0.0865
  109MOL   H28737223   4.576   5.681   4.634  1.6679 -0.0981  0.7009
  109MOL   H28837224   4.539   5.520   4.569  0.9628  0.2401 -1.2190
  109MOL   H28937225   4.570   5.587   4.851  0.8231  2.1076 -1.7983
  109MOL   H29037226   4.569   5.421   4.780  0.9397 -0.8837 -0.3791
  109MOL   C29137227   5.055   5.641   4.754 -0.0405 -0.3379  0.0667
  109MOL   C29237228   5.017   5.794   4.749 -0.3052  0.1234  0.3343
  109MOL   N29337229   4.896   5.825   4.829 -0.2469 -0.1000  0.3570
  109MOL   C29437230   4.890   5.837   4.972  0.3579  0.6653 -0.3579
  109MOL   C29537231   4.750   5.879   5.010 -0.1337 -0.8885 -0.5333
  109MOL   C29637232   4.677   5.908   4.879  0.8683 -0.0343  0.7190
  109MOL   C29737233   4.785   5.880   4.775  0.4020 -0.2203  0.3955
  109MOL   O29837234   4.748   5.901   4.655  0.0855 -0.4214  0.2420
  109MOL   H29937235   5.158   5.621   4.725  0.8590  3.0260  0.7979
  109MOL   H30037236   5.057   5.608   4.858 -0.4090  1.5793  0.6883
  109MOL   H30137237   4.987   5.814   4.646  2.1065  0.1934 -0.3847
  109MOL   H30237238   4.917   5.751   5.032 -1.1521  0.4458  0.0301
  109MOL   H30337239   4.959   5.916   5.001  0.6964 -0.6980  2.6785
  109MOL   H30437240   4.703   5.795   5.061  1.6703 -1.0238  0.9967
  109MOL   H30537241   4.746   5.961   5.082 -3.0390 -1.6462  0.2335
  109MOL   H30637242   4.591   5.844   4.859  0.4484  0.0486  2.2229
  109MOL   H30737243   4.648   6.013   4.875  1.5845  0.1188 -0.9182
  109MOL   C30837244   5.133   5.888   4.782  0.2088 -0.7103  0.0369
  109MOL   C30937245   5.248   5.890   4.676  0.1252  0.4496  0.9246
  109MOL   N31037246   5.202   5.922   4.539  0.5526  0.6334  0.5454
  109MOL   C31137247   5.220   5.818   4.436  0.2137  0.4369  0.2576
  109MOL   C31237248   5.137   5.868   4.318  0.0528 -0.2485  0.2169
  109MOL   C31337249   5.079   6.001   4.357  0.6473  0.5104 -0.1112
  109MOL   C31437250   5.125   6.027   4.496 -1.3392  0.4271 -0.6625
  109MOL   O31537251   5.103   6.128   4.561 -0.3707  0.1990  0.0645
  109MOL   H31637252   5.178   5.855   4.875  1.3624  1.0042  0.1152
  109MOL   H31737253   5.108   5.994   4.786 -1.0986 -0.9024 -2.3193
  109MOL   H31837254   5.290   5.789   4.676 -0.9548 -0.0181 -0.2937
  109MOL   H31937255   5.325   5.817   4.407 -0.3513  0.1132 -1.8830
  109MOL   H32037256   5.194   5.718   4.472  0.7475 -0.7160 -2.3983
  109MOL   H32137257   5.213   5.878   4.242 -0.4763 -0.9180 -0.4082
  109MOL   H32237258   5.054   5.801   4.294 -0.2050  0.5958 -1.2651
  109MOL   H32337259   5.112   6.077   4.286  0.0459 -0.3820 -1.3812
  109MOL   H32437260   4.971   5.988   4.351  0.9591 -2.0784 -0.6575
  109MOL   C32537261   5.354   5.987   4.724  0.7889  0.4866 -0.0891
  109MOL   C32637262   5.489   5.984   4.638  0.4083 -0.1194 -0.3106
  109MOL   N32737263   5.589   6.074   4.698 -0.2638 -0.0706 -0.5626
  109MOL   C32837264   5.668   6.042   4.814  0.0083 -0.0723 -0.0595
  109MOL   C32937265   5.719   6.175   4.865  0.4730 -0.0421  0.4206
  109MOL   C33037266   5.698   6.274   4.755  0.2010  0.1163 -0.1615
  109MOL   C33137267   5.602   6.204   4.663  0.2108  0.4564  0.3983
  109MOL   O33237268   5.542   6.264   4.573 -0.0100  0.3515 -0.0075
  109MOL   H33337269   5.367   5.965   4.830 -0.6225  0.3949  0.0673
  109MOL   H33437270   5.311   6.087   4.717  0.1694  0.3451  1.4449
  109MOL   H33537271   5.468   6.004   4.533 -1.3094  0.3011  0.1022
  109MOL   H33637272   5.612   6.001   4.899 -1.0855  0.3784 -0.5561
  109MOL   H33737273   5.755   5.988   4.778  1.0182  2.4958 -1.6448
  109MOL   H33837274   5.659   6.203   4.951 -2.5946  0.5966 -1.8613
  109MOL   H33937275   5.824   6.174   4.895  0.3863  1.4357  0.8098
  109MOL   H34037276   5.653   6.364   4.797 -0.8372 -0.2420 -0.4933
  109MOL   H34137277   5.780   6.305   4.691 -0.2282 -1.1358 -1.3409
  109MOL   H34237278   5.517   5.879   4.649  1.3626  0.0117 -1.4406
  110MOL     C137279   5.876   7.115   2.104 -0.9125 -0.1028  0.9625
  110MOL     C237280   5.937   7.026   2.213 -0.4427 -0.2312 -0.7340
  110MOL     N337281   6.069   7.079   2.251 -0.3698  0.3249  0.2939
  110MOL     C437282   6.196   7.009   2.244  0.5901  0.3081  0.2323
  110MOL     C537283   6.308   7.091   2.313 -0.4759  0.5280  0.1908
  110MOL     C637284   6.238   7.223   2.342  0.0262  0.8192  0.4215
  110MOL     C737285   6.094   7.191   2.324  0.3170  0.3536 -0.2893
  110MOL     O837286   6.005   7.267   2.368 -0.0862 -0.4929 -0.4363
  110MOL     H937287   5.938   7.127   2.015 -1.3358 -1.7526  0.4376
  110MOL    H1037288   5.785   7.068   2.067 -0.4701 -0.6282  0.5400
  110MOL    H1137289   5.962   6.934   2.160  1.2179 -0.4678  0.4301
  110MOL    H1237290   6.198   6.906   2.280 -0.0047  1.0439  2.4831
  110MOL    H1337291   6.220   7.005   2.138 -0.8368 -3.4805 -0.0340
  110MOL    H1437292   6.342   7.037   2.402 -1.3167 -1.4070 -0.6294
  110MOL    H1537293   6.385   7.094   2.237  1.8169 -0.8973  2.3758
  110MOL    H1637294   6.257   7.250   2.445 -1.2530  2.3982  0.2674
  110MOL    H1737295   6.269   7.295   2.266 -1.1710  1.1891  0.2698
  110MOL    H1837296   5.852   7.218   2.133 -1.3739 -0.3898  1.6178
  110MOL    C1937297   5.842   7.001   2.333  0.3166  0.2279 -0.5155
  110MOL    C2037298   5.889   6.909   2.446  0.1101  0.7332 -0.2592
  110MOL    N2137299   5.840   6.957   2.579 -0.5381  0.5674 -0.6030
  110MOL    C2237300   5.905   7.055   2.654 -0.1946 -0.3079 -0.6974
  110MOL    C2337301   5.832   7.074   2.787 -0.5862  0.3796  0.2609
  110MOL    C2437302   5.693   7.017   2.757  0.2275 -0.9467  0.2516
  110MOL    C2537303   5.722   6.931   2.637  0.3824 -0.4826  0.1331
  110MOL    O2637304   5.641   6.852   2.599 -0.1755  0.7663 -0.1520
  110MOL    H2737305   5.745   6.968   2.294 -0.5974  1.3180  0.7824
  110MOL    H2837306   5.819   7.096   2.380 -0.7179 -0.1713 -0.1973
  110MOL    H2937307   5.998   6.919   2.450  0.1803 -0.5941  2.2824
  110MOL    H3037308   6.009   7.025   2.663  0.2038  0.8584 -1.2174
  110MOL    H3137309   5.896   7.148   2.598  2.2253  0.0964 -0.4518
  110MOL    H3237310   5.877   7.012   2.864 -2.2046  0.3498  1.2038
  110MOL    H3337311   5.814   7.179   2.809 -4.2386 -0.5936  2.2871
  110MOL    H3437312   5.645   6.973   2.844  0.2524 -0.8727  0.3028
  110MOL    H3537313   5.630   7.096   2.717  1.9073  0.2061 -0.2014
  110MOL    C3637314   5.863   6.764   2.402  0.7700  0.0944  0.3066
  110MOL    C3737315   5.982   6.672   2.442 -0.3772 -0.4669  0.5848
  110MOL    N3837316   6.002   6.648   2.585 -0.0632 -0.3328 -0.3037
  110MOL    C3937317   6.119   6.710   2.649 -0.8336 -0.2293 -0.0686
  110MOL    C4037318   6.096   6.696   2.805 -0.4787  0.5049 -0.1847
  110MOL    C4137319   5.966   6.619   2.813  0.4578 -0.2159  0.3254
  110MOL    C4237320   5.921   6.591   2.673  0.0611  0.4140  0.6597
  110MOL    O4337321   5.823   6.520   2.645  0.1195 -0.1657  0.0352
  110MOL    H4437322   5.849   6.754   2.294 -2.5680 -0.1882  0.7138
  110MOL    H4537323   5.773   6.725   2.449  1.0175  0.1116  0.8026
  110MOL    H4637324   6.073   6.722   2.410 -0.8261  0.1689  0.2917
  110MOL    H4737325   6.209   6.656   2.617 -0.5523 -0.5978  1.2936
  110MOL    H4837326   6.141   6.812   2.618  0.6834 -0.6442 -0.4280
  110MOL    H4937327   6.179   6.635   2.842 -1.1416  0.9285  2.0701
  110MOL    H5037328   6.079   6.790   2.857  0.4817 -0.1701  1.3694
  110MOL    H5137329   5.964   6.538   2.886 -2.1158 -0.1057  0.4140
  110MOL    H5237330   5.888   6.689   2.841  0.9500  1.1202 -1.5128
  110MOL    C5337331   5.984   6.542   2.360 -0.8407  0.2026  0.0738
  110MOL    C5437332   6.114   6.454   2.378 -0.4662  0.0388 -0.4532
  110MOL    N5537333   6.103   6.329   2.295 -0.0586  0.5454 -0.3671
  110MOL    C5637334   6.048   6.204   2.353  0.1758  0.3683 -0.5542
  110MOL    C5737335   6.033   6.107   2.235 -0.3363 -0.3096 -0.4844
  110MOL    C5837336   6.077   6.184   2.112  0.4281  0.4859  0.2671
  110MOL    C5937337   6.119   6.320   2.163  0.1655 -0.1272 -0.1379
  110MOL    O6037338   6.163   6.409   2.091 -0.5183 -0.2871 -0.4751
  110MOL    H6137339   5.957   6.557   2.255  1.7804 -0.2263 -0.6975
  110MOL    H6237340   5.912   6.477   2.409 -1.3231 -0.0789 -0.9888
  110MOL    H6337341   6.112   6.418   2.480 -0.3636 -0.0419 -0.4802
  110MOL    H6437342   6.115   6.173   2.433  0.5900 -1.3920 -1.5680
  110MOL    H6537343   5.950   6.203   2.400  0.2649 -1.4484 -0.3792
  110MOL    H6637344   6.098   6.019   2.247  0.7412  0.8467  2.5855
  110MOL    H6737345   5.936   6.058   2.243  0.3906 -1.6911  0.1765
  110MOL    H6837346   6.155   6.130   2.058 -0.3401  1.0235 -1.4102
  110MOL    H6937347   5.987   6.194   2.052  0.1655 -0.6319  0.4679
  110MOL    C7037348   6.245   6.530   2.348  0.0729  0.3757 -0.3225
  110MOL    C7137349   6.380   6.449   2.357  0.2850  0.1894 -0.0459
  110MOL    N7237350   6.491   6.520   2.290  0.3846  0.5555  0.9014
  110MOL    C7337351   6.561   6.460   2.170  0.4527 -0.3737 -0.1477
  110MOL    C7437352   6.633   6.581   2.109  0.3520 -0.1235 -0.3473
  110MOL    C7537353   6.640   6.689   2.210  0.2633 -0.6129 -0.6294
  110MOL    C7637354   6.531   6.646   2.313  0.7452 -0.0011  0.6810
  110MOL    O7737355   6.481   6.711   2.403 -0.0692 -0.1922  0.5202
  110MOL    H7837356   6.257   6.615   2.415  0.5950 -0.1317  0.2298
  110MOL    H7937357   6.240   6.575   2.249 -0.6138  2.7764  0.7389
  110MOL    H8037358   6.352   6.355   2.310  1.8623 -0.4414  0.2631
  110MOL    H8137359   6.619   6.373   2.202 -2.7906 -1.9482  1.6805
  110MOL    H8237360   6.489   6.423   2.097  1.7571 -1.8550 -0.7175
  110MOL    H8337361   6.735   6.550   2.087 -0.1543 -0.9276 -1.6313
  110MOL    H8437362   6.582   6.617   2.020 -1.5595 -1.1699  0.3032
  110MOL    H8537363   6.740   6.688   2.254 -0.1907 -1.3114  0.3992
  110MOL    H8637364   6.618   6.785   2.163  1.4622 -0.0424 -0.0503
  110MOL    C8737365   6.407   6.413   2.505 -0.6157  0.2928  0.4853
  110MOL    C8837366   6.507   6.292   2.529  0.2023 -0.3745  0.4281
  110MOL    N8937367   6.575   6.307   2.656  0.1642 -0.4641  0.2079
  110MOL    C9037368   6.719   6.265   2.668  0.3234 -0.1901  0.8159
  110MOL    C9137369   6.749   6.273   2.818  0.9086  0.8488  0.7893
  110MOL    C9237370   6.616   6.310   2.890 -0.2318  0.1426 -0.6952
  110MOL    C9337371   6.519   6.325   2.775  0.1971  0.0624  0.0313
  110MOL    O9437372   6.400   6.353   2.792 -0.2520 -0.8380 -0.4278
  110MOL    H9537373   6.309   6.400   2.551 -0.2741  1.3141  1.5256
  110MOL    H9637374   6.455   6.498   2.555  0.6450  1.2773 -2.3072
  110MOL    H9737375   6.590   6.308   2.459  0.1775  2.2090  0.9398
  110MOL    H9837376   6.725   6.162   2.634 -0.8557  0.5735 -1.8413
  110MOL    H9937377   6.779   6.333   2.608  0.5380 -0.0864  1.1480
  110MOL   H10037378   6.791   6.177   2.850 -0.3886 -0.0288 -0.0549
  110MOL   H10137379   6.830   6.345   2.832 -0.5410  2.6589  0.0260
  110MOL   H10237380   6.573   6.231   2.952 -0.2693  0.4455 -0.3320
  110MOL   H10337381   6.621   6.407   2.940 -0.6069  0.2443 -0.8585
  110MOL   C10437382   6.442   6.149   2.520  0.5312 -0.1557  0.6431
  110MOL   C10537383   6.512   6.049   2.427  0.5271 -0.5630  0.4388
  110MOL   N10637384   6.478   5.911   2.468  0.0739  0.7022  0.3468
  110MOL   C10737385   6.573   5.816   2.525  0.1429 -0.0874 -0.4316
  110MOL   C10837386   6.499   5.688   2.564  0.2030 -0.2805  0.1789
  110MOL   C10937387   6.366   5.699   2.500  0.3610  0.5799  0.5228
  110MOL   C11037388   6.355   5.848   2.463  0.1936 -0.2400 -0.4371
  110MOL   O11137389   6.251   5.891   2.415 -0.1761  0.7113  0.3733
  110MOL   H11237390   6.342   6.174   2.483  0.3989 -1.1199  0.3524
  110MOL   H11337391   6.427   6.104   2.618  1.0806  0.3654  0.9669
  110MOL   H11437392   6.619   6.069   2.440  0.4098  1.4042 -1.3753
  110MOL   H11537393   6.644   5.794   2.445 -1.3112  0.7622 -1.9925
  110MOL   H11637394   6.633   5.845   2.610 -3.5672  0.3536  2.1559
  110MOL   H11737395   6.555   5.601   2.528  2.7002  1.3498  0.0310
  110MOL   H11837396   6.497   5.683   2.673 -0.6724  3.9917  0.4405
  110MOL   H11937397   6.282   5.669   2.563 -0.2732  0.9503 -0.1387
  110MOL   H12037398   6.371   5.645   2.405 -0.0856  0.9995  0.2562
  110MOL   C12137399   6.478   6.077   2.273 -1.1340 -0.0987  0.5934
  110MOL   C12237400   6.552   5.977   2.174 -0.0786  0.4711 -0.6054
  110MOL   N12337401   6.472   5.957   2.051  0.0664 -0.1017  0.3008
  110MOL   C12437402   6.413   5.829   2.028  0.5432 -0.6744  0.2922
  110MOL   C12537403   6.395   5.824   1.877 -0.1391  0.5322  0.7096
  110MOL   C12637404   6.367   5.971   1.832  0.0456 -0.1630  0.0413
  110MOL   C12737405   6.441   6.041   1.947  0.0580 -0.5655  0.2452
  110MOL   O12837406   6.485   6.154   1.932 -0.4280 -0.2734 -0.4884
  110MOL   H12937407   6.513   6.178   2.252  0.2480 -0.3955  1.3632
  110MOL   H13037408   6.371   6.090   2.258 -1.0146  0.0904 -0.1111
  110MOL   H13137409   6.561   5.883   2.228  2.7413  0.8913 -0.2728
  110MOL   H13237410   6.323   5.818   2.087 -0.1928 -0.2785 -0.7351
  110MOL   H13337411   6.471   5.742   2.058  0.2312 -0.7136  0.7839
  110MOL   H13437412   6.487   5.788   1.831 -0.3851  1.1172 -0.2538
  110MOL   H13537413   6.306   5.766   1.849  0.2324  1.4169 -2.5703
  110MOL   H13637414   6.410   6.005   1.738  2.6324 -0.6047  1.0246
  110MOL   H13737415   6.261   5.997   1.833  0.5359  1.9010  0.0623
  110MOL   C13837416   6.696   6.028   2.135  0.1651  0.4427  0.3483
  110MOL   C13937417   6.778   5.921   2.061  0.1834  0.3195 -0.9747
  110MOL   N14037418   6.893   5.991   1.989 -0.8744 -0.3219 -0.3155
  110MOL   C14137419   6.901   5.984   1.839  0.1028  0.3713  0.0866
  110MOL   C14237420   7.017   6.079   1.803 -0.2361  0.0291 -0.4289
  110MOL   C14337421   7.083   6.126   1.931  0.6984 -0.9666 -0.3166
  110MOL   C14437422   6.991   6.070   2.040 -0.1120  0.1203  0.1261
  110MOL   O14537423   7.026   6.079   2.157 -0.2070  0.6349  0.0878
  110MOL   H14637424   6.759   6.040   2.223 -0.4852  0.4180  0.8230
  110MOL   H14737425   6.690   6.116   2.072  0.6086  0.0095 -0.3085
  110MOL   H14837426   6.709   5.869   1.995  0.3339 -2.2470  0.8277
  110MOL   H14937427   6.933   5.884   1.809 -2.0730 -0.8197  1.5888
  110MOL   H15037428   6.817   6.020   1.779  0.3396 -0.9329 -1.0423
  110MOL   H15137429   7.086   6.043   1.727 -1.3105 -0.8350 -1.0134
  110MOL   H15237430   6.976   6.170   1.758  0.1283  0.3214 -0.1615
  110MOL   H15337431   7.086   6.235   1.932 -1.6840 -0.8606 -1.6441
  110MOL   H15437432   7.180   6.078   1.947  0.1642 -1.4442  1.7177
  110MOL   C15537433   6.829   5.814   2.158  0.1027  0.4804 -0.3165
  110MOL   C15637434   6.913   5.698   2.091  0.1737 -0.0554  0.3285
  110MOL   N15737435   6.961   5.612   2.195  0.0623  0.4581 -0.3249
  110MOL   C15837436   7.107   5.624   2.219 -0.8016 -0.1595  0.0195
  110MOL   C15937437   7.130   5.508   2.321  0.0202 -0.2305 -0.7548
  110MOL   C16037438   6.991   5.448   2.354  0.0623  0.1137 -0.9135
  110MOL   C16137439   6.895   5.533   2.273 -0.3169 -0.0205  0.7165
  110MOL   O16237440   6.775   5.497   2.266 -0.2783  0.8778 -0.0570
  110MOL   H16337441   6.750   5.764   2.212  1.4885 -1.3254  0.0676
  110MOL   H16437442   6.895   5.859   2.233  0.7800 -1.5040  0.2962
  110MOL   H16537443   7.004   5.732   2.041 -0.4363  1.6369  0.3508
  110MOL   H16637444   7.169   5.619   2.129 -0.1946 -1.1144  0.4873
  110MOL   H16737445   7.123   5.721   2.266  0.7238 -0.4614  0.1450
  110MOL   H16837446   7.186   5.425   2.279  0.0442 -2.2275  2.9693
  110MOL   H16937447   7.185   5.546   2.407 -0.8478 -0.1629 -0.2234
  110MOL   H17037448   6.982   5.342   2.332  0.9486 -0.3928  1.1021
  110MOL   H17137449   6.965   5.463   2.458 -2.1403  1.3446 -1.6024
  110MOL   C17237450   6.834   5.622   1.978  0.8681  0.3381  0.2192
  110MOL   C17337451   6.895   5.493   1.921 -0.0329 -0.5155  0.0119
  110MOL   N17437452   6.797   5.429   1.833 -0.5058  0.5697 -0.6082
  110MOL   C17537453   6.699   5.341   1.890  0.2506  1.0029  0.2387
  110MOL   C17637454   6.622   5.279   1.774  0.2669  0.1511 -0.6007
  110MOL   C17737455   6.652   5.368   1.655 -0.0242 -0.1059 -0.3590
  110MOL   C17837456   6.772   5.450   1.702 -0.2770  0.1612  0.4503
  110MOL   O17937457   6.830   5.535   1.631  0.3496 -0.4626 -0.5640
  110MOL   H18037458   6.811   5.686   1.894  0.3660  0.2218  0.2610
  110MOL   H18137459   6.740   5.596   2.028  1.6028  2.1893  2.6422
  110MOL   H18237460   6.915   5.426   2.005 -0.9031 -1.7579 -0.7686
  110MOL   H18337461   6.743   5.274   1.963  0.9852  0.6707 -0.5045
  110MOL   H18437462   6.628   5.399   1.949 -0.2964 -2.1875  2.8605
  110MOL   H18537463   6.515   5.271   1.791  0.0930 -1.8593 -2.3584
  110MOL   H18637464   6.665   5.179   1.761  0.0447 -0.1227  0.6998
  110MOL   H18737465   6.689   5.314   1.568  0.5007  0.3765 -0.4398
  110MOL   H18837466   6.566   5.429   1.629  1.0424  2.0095  0.9246
  110MOL   C18937467   7.030   5.529   1.854 -0.0783  0.0373  0.0457
  110MOL   C19037468   7.118   5.406   1.823  0.2435 -0.4194 -0.1970
  110MOL   N19137469   7.228   5.459   1.739  0.9290 -0.2422 -0.1002
  110MOL   C19237470   7.245   5.410   1.604  0.6141  0.1127 -0.5501
  110MOL   C19337471   7.377   5.467   1.550  0.4121  0.0503  0.9597
  110MOL   C19437472   7.409   5.583   1.646  0.1601 -0.1166  0.6304
  110MOL   C19537473   7.316   5.562   1.762  0.6833  0.7405  0.2367
  110MOL   O19637474   7.328   5.628   1.864  0.2106 -0.0537 -0.4132
  110MOL   H19737475   7.092   5.587   1.922 -1.1815  1.6684 -0.3230
  110MOL   H19837476   7.021   5.599   1.771  2.8138  0.4903  0.0580
  110MOL   H19937477   7.058   5.336   1.766 -1.1779  0.5821  0.0340
  110MOL   H20037478   7.250   5.301   1.605  0.9890  0.1357  0.4634
  110MOL   H20137479   7.166   5.437   1.533  0.0484 -0.1337 -0.0179
  110MOL   H20237480   7.456   5.393   1.560  0.4446  0.2640  2.4354
  110MOL   H20337481   7.386   5.483   1.443  1.7679 -1.0524  0.8997
  110MOL   H20437482   7.507   5.589   1.693 -1.1714  2.9624  3.2721
  110MOL   H20537483   7.376   5.677   1.600  1.8911 -0.2127 -0.8255
  110MOL   C20637484   7.171   5.333   1.949 -0.4735 -0.2212 -0.3709
  110MOL   C20737485   7.185   5.185   1.908  0.2952  0.2564 -0.1908
  110MOL   N20837486   7.286   5.126   2.000 -0.2398 -0.1052  0.3164
  110MOL   C20937487   7.418   5.080   1.945  0.6250 -0.6033  0.2327
  110MOL   C21037488   7.494   5.035   2.077 -0.5752  0.3150  0.2166
  110MOL   C21137489   7.418   5.076   2.196  0.4813  0.3445 -0.2890
  110MOL   C21237490   7.283   5.115   2.128  0.3068 -0.2001 -0.3535
  110MOL   O21337491   7.184   5.151   2.195 -0.4777  0.5374 -0.7591
  110MOL   H21437492   7.108   5.322   2.037 -2.1667 -0.8682 -1.6151
  110MOL   H21537493   7.259   5.380   1.992 -2.2554  2.6789  0.2155
  110MOL   H21637494   7.234   5.178   1.811  0.1640 -2.0306 -0.1053
  110MOL   H21737495   7.407   4.991   1.883 -0.3306  0.8562 -1.7335
  110MOL   H21837496   7.478   5.154   1.892 -1.2057  1.1095  0.4795
  110MOL   H21937497   7.494   4.926   2.073 -1.3756  0.3504 -1.0865
  110MOL   H22037498   7.593   5.081   2.075 -0.2839 -0.3458 -0.8097
  110MOL   H22137499   7.408   4.989   2.262 -0.0569  0.6576  0.0436
  110MOL   H22237500   7.458   5.162   2.250 -0.9735  1.6693 -1.2953
  110MOL   C22337501   7.054   5.098   1.902  0.0558  1.0528  0.2051
  110MOL   C22437502   7.054   4.986   1.797  0.2137  0.4025 -0.5735
  110MOL   N22537503   7.120   4.863   1.846  0.3004 -0.2113 -0.5404
  110MOL   C22637504   7.087   4.805   1.967  0.7172  0.4087  0.6059
  110MOL   C22737505   7.154   4.666   1.970 -0.1564 -0.4215 -0.4103
  110MOL   C22837506   7.249   4.661   1.852 -0.1269  0.2849 -0.6422
  110MOL   C22937507   7.222   4.801   1.788 -0.4494 -0.1756  0.8987
  110MOL   O23037508   7.282   4.842   1.687  0.0202 -0.1501  0.1544
  110MOL   H23137509   6.970   5.161   1.874 -0.5407 -0.1218 -0.7042
  110MOL   H23237510   7.021   5.058   1.998  2.4449 -2.3118 -0.2716
  110MOL   H23337511   7.117   5.029   1.719 -1.6116  1.3518 -1.5391
  110MOL   H23437512   7.119   4.873   2.046 -1.9256  1.3522  0.9058
  110MOL   H23537513   6.978   4.802   1.972  0.6963 -0.8531 -0.4644
  110MOL   H23637514   7.196   4.655   2.070  0.7203  0.9079 -0.6099
  110MOL   H23737515   7.093   4.577   1.960 -2.4725  0.8155  2.1254
  110MOL   H23837516   7.354   4.648   1.879 -0.1695  1.3117  0.0630
  110MOL   H23937517   7.227   4.582   1.781  1.8116  0.1126 -1.0887
  110MOL   C24037518   6.913   4.959   1.734  0.0627  0.4487 -0.3667
  110MOL   C24137519   6.922   4.932   1.578 -0.3131  0.0037 -0.3432
  110MOL   N24237520   6.792   4.861   1.543 -0.6321  0.2629  0.2840
  110MOL   C24337521   6.804   4.717   1.531  0.2220  0.5935 -0.1729
  110MOL   C24437522   6.672   4.670   1.476 -1.1753 -0.2128 -0.3633
  110MOL   C24537523   6.589   4.795   1.446  0.1834  0.5554  0.1241
  110MOL   C24637524   6.681   4.910   1.493 -0.2602 -0.5623 -0.0906
  110MOL   O24737525   6.653   5.031   1.481  0.2108  0.3873  0.2178
  110MOL   H24837526   6.856   5.049   1.755  0.6396  1.3782 -2.6283
  110MOL   H24937527   6.850   4.881   1.777  1.9366 -3.0682 -3.6126
  110MOL   H25037528   6.999   4.857   1.559 -1.2790 -0.9991 -0.4356
  110MOL   H25137529   6.877   4.701   1.451 -2.0940 -1.6904 -1.9174
  110MOL   H25237530   6.830   4.659   1.620  2.3912 -0.1125 -1.2317
  110MOL   H25337531   6.698   4.615   1.386  0.4756  2.0960 -1.3534
  110MOL   H25437532   6.633   4.599   1.549  0.3300  0.0057  0.6633
  110MOL   H25537533   6.581   4.810   1.338 -0.5931 -1.1038 -0.0642
  110MOL   H25637534   6.496   4.790   1.503  0.4692 -0.0098  0.5403
  110MOL   C25737535   6.958   5.056   1.496 -0.2468  0.1520  0.6643
  110MOL   C25837536   6.980   5.025   1.342 -0.0872 -0.7988 -0.3996
  110MOL   N25937537   6.937   5.137   1.258  0.4447 -0.3364  0.1977
  110MOL   C26037538   6.814   5.113   1.183 -0.2240 -0.7730  0.1173
  110MOL   C26137539   6.781   5.256   1.131 -0.2268  0.0008 -0.9936
  110MOL   C26237540   6.898   5.351   1.163  0.5327  0.2210 -0.5691
  110MOL   C26337541   6.982   5.264   1.261 -0.5387  0.8867 -0.0302
  110MOL   O26437542   7.075   5.308   1.326 -0.1233  0.4846  0.1662
  110MOL   H26537543   7.047   5.109   1.529 -1.3815  0.6740  2.9864
  110MOL   H26637544   6.873   5.123   1.509  1.3372  2.2758  0.4008
  110MOL   H26737545   6.921   4.938   1.312  3.3148 -2.6846 -1.9759
  110MOL   H26837546   6.827   5.048   1.097  0.6122 -0.7005  0.1845
  110MOL   H26937547   6.726   5.090   1.243  0.1960  0.8997  1.4145
  110MOL   H27037548   6.768   5.256   1.023 -0.3802  1.4543 -0.9777
  110MOL   H27137549   6.699   5.304   1.184  1.3239  1.5451  0.0491
  110MOL   H27237550   6.966   5.367   1.080 -0.3801  4.1853 -0.6449
  110MOL   H27337551   6.868   5.443   1.213 -1.4946 -1.2248  0.9283
  110MOL   C27437552   7.126   4.979   1.308  0.3602 -0.2536  0.2025
  110MOL   C27537553   7.124   4.911   1.172  0.0724  0.3965  0.1672
  110MOL   N27637554   7.249   4.935   1.090 -0.8225  0.1158 -0.2182
  110MOL   C27737555   7.231   4.976   0.948  0.3032 -0.3499 -0.0746
  110MOL   C27837556   7.371   4.984   0.882  0.0546 -0.1231  0.3141
  110MOL   C27937557   7.468   4.931   0.994  0.5542 -0.4104  0.7389
  110MOL   C28037558   7.382   4.935   1.119  0.2384 -1.4069  0.1069
  110MOL   O28137559   7.427   4.919   1.234  0.7994  0.0830 -0.1686
  110MOL   H28237560   7.168   4.919   1.388  0.8551 -0.8910 -0.5347
  110MOL   H28337561   7.191   5.066   1.307  1.4729 -1.0606  1.1107
  110MOL   H28437562   7.040   4.957   1.120 -0.9798 -1.4378  0.1979
  110MOL   H28537563   7.174   4.890   0.913  0.6421 -0.9391  0.8148
  110MOL   H28637564   7.183   5.072   0.926  0.8962  0.1440  0.7489
  110MOL   H28737565   7.372   4.928   0.789  0.7200 -0.1959  0.3629
  110MOL   H28837566   7.396   5.089   0.867 -1.3539  0.1286 -0.3044
  110MOL   H28937567   7.491   4.825   0.985 -2.6267 -1.1471  0.5529
  110MOL   H29037568   7.553   4.999   1.004  1.4584 -1.6164  1.3327
  110MOL   C29137569   7.107   4.756   1.189  0.4116  1.1256 -0.3593
  110MOL   C29237570   7.024   4.683   1.074  0.4886  0.9784 -0.5986
  110MOL   N29337571   7.059   4.536   1.064  0.1968 -0.3202 -0.1231
  110MOL   C29437572   7.165   4.485   0.975 -0.5355 -0.7851  0.2948
  110MOL   C29537573   7.180   4.338   1.008  0.0441  0.1600 -0.1001
  110MOL   C29637574   7.086   4.314   1.123  0.1108 -0.2988 -0.9828
  110MOL   C29737575   7.027   4.446   1.160 -0.7532  0.0494 -0.0274
  110MOL   O29837576   6.950   4.462   1.254  0.0827  0.0393  0.9607
  110MOL   H29937577   7.047   4.736   1.277  0.1674 -0.9301 -0.9481
  110MOL   H30037578   7.200   4.699   1.198 -2.1106 -2.7994  2.1369
  110MOL   H30137579   7.053   4.735   0.982 -0.8158  1.2538 -0.8641
  110MOL   H30237580   7.130   4.499   0.872  1.8009  1.4691 -0.2460
  110MOL   H30337581   7.254   4.544   0.993 -2.1103  2.2739 -1.4939
  110MOL   H30437582   7.152   4.273   0.925 -1.1578  1.0731 -0.4333
  110MOL   H30537583   7.281   4.324   1.044  0.3421 -0.0931 -1.0160
  110MOL   H30637584   6.990   4.266   1.101 -1.6185  2.4781  0.2243
  110MOL   H30737585   7.123   4.256   1.207 -0.5831  1.6008  0.6837
  110MOL   C30837586   6.871   4.705   1.100  0.2283 -0.2738 -0.5233
  110MOL   C30937587   6.777   4.641   0.997  0.5996 -0.1400  0.7984
  110MOL   N31037588   6.635   4.666   1.026 -0.3186  0.1798  0.0435
  110MOL   C31137589   6.555   4.578   1.112  0.2197  0.7954  0.2274
  110MOL   C31237590   6.412   4.637   1.118 -0.2977 -0.0336 -0.0673
  110MOL   C31337591   6.427   4.769   1.045  0.1580  0.2428  0.1588
  110MOL   C31437592   6.564   4.775   0.988 -0.2238  0.4788  0.0269
  110MOL   O31537593   6.605   4.875   0.933  0.3296  0.9009  0.1203
  110MOL   H31637594   6.848   4.812   1.093  2.2538  0.2804  0.7596
  110MOL   H31737595   6.844   4.678   1.202 -3.1097 -2.0480 -1.8445
  110MOL   H31837596   6.790   4.537   1.026  2.0145  0.2047  1.4705
  110MOL   H31937597   6.564   4.471   1.092 -0.4629  0.5469  1.2414
  110MOL   H32037598   6.610   4.565   1.205  0.7201  0.9234 -0.0513
  110MOL   H32137599   6.338   4.584   1.058 -0.8477  1.5599 -0.8360
  110MOL   H32237600   6.365   4.641   1.216  0.2545  2.0303  0.1333
  110MOL   H32337601   6.359   4.803   0.967  2.4566  0.5585 -1.7635
  110MOL   H32437602   6.425   4.859   1.107 -0.1790  1.7266 -1.9422
  110MOL   C32537603   6.819   4.650   0.847 -0.5977  0.2316 -0.3148
  110MOL   C32637604   6.715   4.596   0.748  0.2428  0.0995  0.2935
  110MOL   N32737605   6.660   4.464   0.788 -0.4244 -0.3001 -0.1739
  110MOL   C32837606   6.757   4.352   0.797  0.3552  0.7007 -0.4365
  110MOL   C32937607   6.674   4.240   0.860 -0.4984 -0.1052 -0.4352
  110MOL   C33037608   6.527   4.277   0.851  1.0176 -0.7795  0.4585
  110MOL   C33137609   6.535   4.425   0.806 -0.2181  0.4527 -0.6062
  110MOL   O33237610   6.433   4.493   0.790  0.2351  0.6026 -0.0710
  110MOL   H33337611   6.917   4.602   0.834  0.2315  1.0893  2.4070
  110MOL   H33437612   6.845   4.755   0.833  0.7322  0.3441  2.5644
  110MOL   H33537613   6.749   4.584   0.645  2.6536 -2.3989  1.3300
  110MOL   H33637614   6.801   4.324   0.702 -0.6633 -0.1043 -0.6882
  110MOL   H33737615   6.837   4.375   0.867  0.4146  0.1946 -0.3341
  110MOL   H33837616   6.687   4.153   0.796 -3.1628 -1.1876  0.4474
  110MOL   H33937617   6.708   4.222   0.962 -0.5932 -1.2732 -0.6033
  110MOL   H34037618   6.483   4.218   0.771  1.3064 -0.7514  0.2794
  110MOL   H34137619   6.471   4.261   0.943 -1.4474  0.4705 -0.7642
  110MOL   H34237620   6.630   4.664   0.741 -0.6168 -0.9339  0.5926
  111MOL     C137621   7.598   0.851   4.350 -0.0132  0.0902  0.8739
  111MOL     C237622   7.565   0.902   4.209 -0.0029  0.4818 -1.7789
  111MOL     N337623   7.634   1.029   4.186 -0.5679 -0.0237  0.0211
  111MOL     C437624   7.548   1.151   4.194  0.0167  0.5465 -0.2664
  111MOL     C537625   7.649   1.257   4.157  0.7984 -0.0234  0.1158
  111MOL     C637626   7.789   1.200   4.150 -0.1607  0.8338  0.0089
  111MOL     C737627   7.765   1.050   4.182 -0.0456  0.4999 -0.0910
  111MOL     O837628   7.856   0.966   4.198  0.4958 -0.5990  0.4442
  111MOL     H937629   7.613   0.938   4.414 -1.0193  1.0090 -0.1259
  111MOL    H1037630   7.512   0.803   4.397 -0.2567 -1.6778 -1.3073
  111MOL    H1137631   7.460   0.929   4.198  0.1550  0.6316 -2.8953
  111MOL    H1237632   7.474   1.134   4.116  1.5093 -2.0546 -1.1707
  111MOL    H1337633   7.495   1.161   4.288 -4.1002  0.6646 -2.4695
  111MOL    H1437634   7.631   1.309   4.063 -0.0604 -0.7768 -0.1493
  111MOL    H1537635   7.661   1.332   4.235 -0.6049  1.3585 -0.9532
  111MOL    H1637636   7.834   1.205   4.051  1.4602  0.0598  0.6951
  111MOL    H1737637   7.846   1.251   4.228  0.2090  0.8858 -0.2943
  111MOL    H1837638   7.683   0.783   4.359 -2.4614 -3.0277  1.5227
  111MOL    C1937639   7.599   0.799   4.105  0.4118  0.0026 -0.4748
  111MOL    C2037640   7.531   0.660   4.119  0.1796 -0.1341 -0.3154
  111MOL    N2137641   7.384   0.661   4.140 -0.1421  0.1972  0.2038
  111MOL    C2237642   7.293   0.703   4.035 -0.2441 -0.2826 -0.8897
  111MOL    C2337643   7.163   0.644   4.083  0.1362  0.1856  0.3181
  111MOL    C2437644   7.189   0.581   4.219  0.1271 -0.9962  0.4048
  111MOL    C2537645   7.332   0.590   4.241 -0.2922  0.3090 -0.1351
  111MOL    O2637646   7.384   0.550   4.343 -0.1604 -0.3438 -0.1407
  111MOL    H2737647   7.705   0.783   4.087  0.2648 -0.9889 -0.4896
  111MOL    H2837648   7.561   0.840   4.011  2.3782 -2.1899 -2.2939
  111MOL    H2937649   7.571   0.622   4.213  1.6642  0.7921 -0.5546
  111MOL    H3037650   7.288   0.811   4.019 -3.8521 -0.4571 -1.1986
  111MOL    H3137651   7.324   0.658   3.941 -0.7646 -0.6225 -0.9025
  111MOL    H3237652   7.089   0.723   4.094 -0.3719 -0.1366 -0.7296
  111MOL    H3337653   7.121   0.570   4.015  0.0230 -0.4695  1.0940
  111MOL    H3437654   7.149   0.636   4.304  2.1004 -1.4265  1.6477
  111MOL    H3537655   7.155   0.478   4.221  2.7664 -1.8864  1.2070
  111MOL    C3637656   7.583   0.542   4.026 -0.0712  0.1638 -0.0628
  111MOL    C3737657   7.732   0.507   4.046  0.4036 -0.4006 -0.3189
  111MOL    N3837658   7.752   0.456   4.186  0.6959 -0.3552 -0.9044
  111MOL    C3937659   7.840   0.521   4.281  0.2925 -0.3035  1.1209
  111MOL    C4037660   7.822   0.447   4.418 -0.9979 -0.2328  0.4947
  111MOL    C4137661   7.728   0.328   4.380 -0.0837  0.1505 -0.2394
  111MOL    C4237662   7.703   0.340   4.234  0.3843  0.8605 -0.3291
  111MOL    O4337663   7.635   0.263   4.169 -0.1114  0.3898 -0.2099
  111MOL    H4437664   7.572   0.567   3.921 -3.4976 -1.2362 -0.1062
  111MOL    H4537665   7.520   0.453   4.036  0.6433 -0.1325  2.2223
  111MOL    H4637666   7.784   0.602   4.036  0.2309 -0.0787  1.5598
  111MOL    H4737667   0.035   0.520   4.241  0.0078  0.2326  0.3686
  111MOL    H4837668   7.796   0.620   4.290  1.4867  0.4026 -0.5104
  111MOL    H4937669   0.009   0.407   4.459 -0.4157 -0.2392 -0.8120
  111MOL    H5037670   7.775   0.505   4.498  1.0976  2.5700 -0.2396
  111MOL    H5137671   7.775   0.233   4.402 -0.6492 -0.7097 -2.6768
  111MOL    H5237672   7.631   0.334   4.431 -0.9186 -0.0561 -1.7783
  111MOL    C5337673   7.798   0.409   3.936  0.6884 -0.6553 -0.5179
  111MOL    C5437674   7.810   0.469   3.794 -0.2218 -0.4326 -0.7929
  111MOL    N5537675   7.891   0.595   3.790 -0.2486 -0.0571  0.3198
  111MOL    C5637676   7.826   0.721   3.769  1.1382  0.3198 -0.1764
  111MOL    C5737677   0.020   0.837   3.791 -0.2981 -0.1821  0.3593
  111MOL    C5837678   0.154   0.767   3.824  0.8116  0.3590  0.8018
  111MOL    C5937679   0.114   0.617   3.818  0.3000  0.0215 -0.4230
  111MOL    O6037680   0.195   0.528   3.840 -0.1246 -0.5338 -0.2738
  111MOL    H6137681   7.724   0.329   3.944 -0.0446  0.0033 -0.6293
  111MOL    H6237682   7.895   0.376   3.973 -0.5793 -2.4432  1.3673
  111MOL    H6337683   7.709   0.492   3.760  0.7104  0.6791 -2.8863
  111MOL    H6437684   7.805   0.727   3.662  0.3787  0.9375  0.0052
  111MOL    H6537685   7.736   0.743   3.826  1.0742  1.9012 -0.8292
  111MOL    H6637686   0.029   0.915   3.715  0.1701  0.2904  0.8970
  111MOL    H6737687   7.897   0.896   3.878  0.0165  0.2657  0.1672
  111MOL    H6837688   0.223   0.784   3.741 -0.1592  0.2517 -0.0523
  111MOL    H6937689   0.187   0.805   3.920  3.1399 -0.4654  0.3449
  111MOL    C7037690   7.865   0.362   3.702  0.0190  1.0843  0.9871
  111MOL    C7137691   7.763   0.251   3.657 -0.2456 -0.3697  0.4053
  111MOL    N7237692   7.674   0.297   3.557  0.7604 -0.4832  0.0405
  111MOL    C7337693   7.531   0.280   3.571  0.4583  0.0977 -0.2365
  111MOL    C7437694   7.473   0.295   3.429  0.5607  0.2318 -0.6976
  111MOL    C7537695   7.573   0.367   3.350 -0.2207  0.4043 -0.3859
  111MOL    C7637696   7.696   0.337   3.434 -0.4324 -0.8529 -0.0726
  111MOL    O7737697   7.808   0.350   3.377  0.1144 -0.2826 -0.0896
  111MOL    H7837698   0.052   0.320   3.740 -0.3384  0.4934  1.2148
  111MOL    H7937699   7.902   0.412   3.613  0.6272 -1.2486 -0.0906
  111MOL    H8037700   7.717   0.220   3.751  1.2095 -0.8459  0.9869
  111MOL    H8137701   7.503   0.179   3.602 -0.4425  0.9009  1.6182
  111MOL    H8237702   7.488   0.349   3.643  3.4299  4.0176 -2.0075
  111MOL    H8337703   7.458   0.191   3.399  2.5809 -0.1752 -0.4061
  111MOL    H8437704   7.372   0.334   3.424  0.5552  0.2939 -0.1580
  111MOL    H8537705   7.574   0.334   3.246 -1.3121 -3.0377  0.6192
  111MOL    H8637706   7.564   0.475   3.352 -0.9690  0.3971 -2.5002
  111MOL    C8737707   7.830   0.126   3.606  0.8137  0.1504 -0.6504
  111MOL    C8837708   7.898   0.043   3.716 -0.1456  0.2924 -0.2432
  111MOL    N8937709   7.800   7.872   3.803 -0.0057 -0.0008 -0.4345
  111MOL    C9037710   7.811   7.868   3.958 -0.4607 -0.0088 -0.5558
  111MOL    C9137711   7.722   7.758   4.006 -0.2284  0.3955  0.5760
  111MOL    C9237712   7.640   7.710   3.887 -0.0515  0.0296 -0.3997
  111MOL    C9337713   7.690   7.797   3.772 -0.5539 -0.4310 -0.3610
  111MOL    O9437714   7.627   7.793   3.663 -0.3624 -0.3334  0.7578
  111MOL    H9537715   7.906   0.169   3.540 -1.7313  4.0672 -1.1908
  111MOL    H9637716   7.766   0.070   3.538  1.0389  1.0580 -1.6329
  111MOL    H9737717   0.044   0.112   3.782 -0.6615  2.6992 -2.2956
  111MOL    H9837718   0.012   7.857   3.979 -0.2759  0.4276 -1.2347
  111MOL    H9937719   7.781   0.058   4.001  2.7514 -0.1773  2.3258
  111MOL   H10037720   7.783   7.685   4.058  0.8506 -0.2008 -1.4742
  111MOL   H10137721   7.653   7.795   4.082 -1.1948  2.9969 -1.4518
  111MOL   H10237722   7.659   7.604   3.869 -0.3673 -0.4734  1.9441
  111MOL   H10337723   7.533   7.720   3.910 -0.2411  1.8915 -2.0105
  111MOL   C10437724   0.096   7.854   3.653  0.5771 -0.0111  0.0539
  111MOL   C10537725   0.231   0.009   3.605 -0.5260 -0.2443  0.0466
  111MOL   N10637726   0.305   0.076   3.709  0.0186  0.4653  0.4477
  111MOL   C10737727   0.395   0.178   3.672 -0.3899  0.7051  0.4463
  111MOL   C10837728   0.470   0.229   3.792 -0.1546  0.1859  0.0576
  111MOL   C10937729   0.436   0.126   3.898 -0.1169  0.4116  0.2463
  111MOL   C11037730   0.328   0.044   3.839 -0.0760  0.5856 -0.4911
  111MOL   O11137731   0.281   7.848   3.898 -0.2222  0.6754 -0.1698
  111MOL   H11237732   0.051   7.798   3.571 -0.3047  2.3892 -1.1224
  111MOL   H11337733   0.131   7.789   3.734  0.7209  1.0807  0.8700
  111MOL   H11437734   0.203   0.092   3.540  0.9035 -0.1993 -0.5277
  111MOL   H11537735   0.472   0.147   3.602 -0.9418  3.1256 -1.3238
  111MOL   H11637736   0.334   0.245   3.610 -2.1914  0.0516  1.4706
  111MOL   H11737737   0.578   0.243   3.783 -0.0495  0.5466  1.6004
  111MOL   H11837738   0.446   0.330   3.826 -0.3902  0.3500 -0.5913
  111MOL   H11937739   0.409   0.157   3.999  3.6365 -0.1621  1.5190
  111MOL   H12037740   0.511   0.052   3.926  0.3819  0.4923 -0.8317
  111MOL   C12137741   0.322   7.798   3.538  0.7900  0.0202  0.5653
  111MOL   C12237742   0.278   7.744   3.399 -0.1340 -0.5617  0.2208
  111MOL   N12337743   0.256   7.855   3.312  0.2019 -0.9535  0.1410
  111MOL   C12437744   0.122   7.892   3.269 -0.2492  0.4335 -0.5104
  111MOL   C12537745   0.137   0.116   3.191 -0.4091 -0.3988 -0.1487
  111MOL   C12637746   0.285   0.142   3.173 -0.7204 -0.3485 -0.4156
  111MOL   C12737747   0.346   0.038   3.269  0.2103  0.0407  0.4182
  111MOL   O12837748   0.468   0.042   3.288 -0.5171  0.3381 -0.0281
  111MOL   H12937749   0.332   7.711   3.604  1.9716  0.9207  1.6074
  111MOL   H13037750   0.426   7.828   3.527  0.3182  1.5363  0.2435
  111MOL   H13137751   0.185   7.693   3.424 -1.2993  1.7142  0.6502
  111MOL   H13237752   0.052   7.889   3.352  1.4208 -0.6577  0.8982
  111MOL   H13337753   0.098   7.822   3.189 -0.2846  0.3992 -0.4696
  111MOL   H13437754   0.084   0.099   3.098  0.1704 -2.7382 -0.0622
  111MOL   H13537755   0.077   0.195   3.237  2.0647  0.9514  0.8908
  111MOL   H13637756   0.333   0.130   3.076  2.1187 -2.2798  1.1630
  111MOL   H13737757   0.310   0.240   3.214 -1.3871 -1.1602  2.0247
  111MOL   C13837758   0.374   7.631   3.344  0.8231 -0.2302 -0.2080
  111MOL   C13937759   0.348   7.575   3.201 -0.4756 -0.1149  0.0708
  111MOL   N14037760   0.447   7.476   3.170 -0.0849  0.5248 -0.9078
  111MOL   C14137761   0.550   7.515   3.075  0.6199  0.5795  0.0306
  111MOL   C14237762   0.647   7.397   3.067 -0.3850 -0.3218  0.9126
  111MOL   C14337763   0.603   7.288   3.163 -0.2113 -0.3967 -0.2243
  111MOL   C14437764   0.473   7.353   3.224 -0.1529 -0.5071 -0.6271
  111MOL   O14537765   0.414   7.294   3.314 -0.0923  0.1843 -0.2346
  111MOL   H14637766   0.360   7.546   3.410 -1.4697  0.1810 -0.1148
  111MOL   H14737767   0.478   7.664   3.342  0.5883  0.5120 -2.4388
  111MOL   H14837768   0.379   7.659   3.139  3.9040 -1.4411  0.2846
  111MOL   H14937769   0.506   7.523   2.976 -0.3101 -0.7025  0.3270
  111MOL   H15037770   0.600   7.609   3.099  0.1118  0.9233 -0.2456
  111MOL   H15137771   0.664   7.371   2.963 -0.6727 -2.2185  1.3155
  111MOL   H15237772   0.745   7.420   3.107 -0.1594 -0.9761  0.7369
  111MOL   H15337773   0.675   7.256   3.238 -0.9091 -0.3670  0.4711
  111MOL   H15437774   0.572   7.198   3.110 -1.5124  0.0650 -0.2538
  111MOL   C15537775   0.198   7.530   3.169 -0.4851 -0.1045  0.1896
  111MOL   C15637776   0.180   7.446   3.037  0.8465  0.0198  0.7822
  111MOL   N15737777   0.164   7.301   3.073  0.1053 -0.2323 -0.4003
  111MOL   C15837778   0.253   7.206   3.017 -0.1671  0.0208 -0.0780
  111MOL   C15937779   0.241   7.081   3.100 -0.6245 -0.1199  0.6312
  111MOL   C16037780   0.110   7.093   3.180  0.7273 -0.3282  0.3435
  111MOL   C16137781   0.073   7.238   3.159  0.1337 -0.3969 -0.1608
  111MOL   O16237782   7.878   7.291   3.203 -0.3985  0.2256 -0.1053
  111MOL   H16337783   0.143   7.623   3.156  1.5515  1.2697  1.0521
  111MOL   H16437784   0.151   7.486   3.257  1.1554 -0.6382  0.8154
  111MOL   H16537785   0.269   7.442   2.974 -0.6151 -0.3371 -1.2936
  111MOL   H16637786   0.229   7.184   2.913  0.4861 -2.5401  0.2618
  111MOL   H16737787   0.356   7.240   3.008 -0.3172  0.5554  0.2312
  111MOL   H16837788   0.240   6.998   3.029  4.4486  1.1068 -1.0533
  111MOL   H16937789   0.322   7.073   3.173 -1.0589  1.1392  1.2739
  111MOL   H17037790   0.024   7.037   3.143  0.0100  0.7714  0.3229
  111MOL   H17137791   0.122   7.087   3.288 -1.2355  1.3626  0.7043
  111MOL   C17237792   0.063   7.482   2.946 -0.4492  0.4303 -0.6162
  111MOL   C17337793   0.071   7.621   2.877  0.3525  0.1489  0.5328
  111MOL   N17437794   0.197   7.673   2.827 -0.1627 -0.0221  0.0115
  111MOL   C17537795   0.239   7.813   2.859 -0.5722 -0.0082  0.2105
  111MOL   C17637796   0.389   7.819   2.839  0.2464  0.2028  0.7508
  111MOL   C17737797   0.410   7.709   2.731  0.2232  0.4778 -0.1353
  111MOL   C17837798   0.288   7.616   2.747 -0.2154 -0.2929  0.0909
  111MOL   O17937799   0.267   7.508   2.683  0.0921 -0.3865 -0.5749
  111MOL   H18037800   7.876   7.459   2.998 -0.3101  0.0928 -0.5148
  111MOL   H18137801   0.066   7.415   2.860  1.1114  0.4476 -0.5965
  111MOL   H18237802   0.038   7.692   2.953  1.4480 -0.1198  1.2691
  111MOL   H18337803   0.181   7.877   2.792 -2.4715 -0.5963  1.2390
  111MOL   H18437804   0.208   7.824   2.963 -2.5673 -0.6492 -0.2838
  111MOL   H18537805   0.436   7.778   2.929  2.0286 -2.5093 -1.3482
  111MOL   H18637806   0.432   0.008   2.807  0.4214 -0.7413 -1.8824
  111MOL   H18737807   0.419   7.748   2.630 -0.3886  0.2096 -0.2958
  111MOL   H18837808   0.493   7.648   2.766 -0.8317 -0.1948  1.2782
  111MOL   C18937809   7.870   7.634   2.763 -0.0312 -0.0479  0.2438
  111MOL   C19037810   7.723   7.624   2.819 -0.7288 -0.1608 -0.2741
  111MOL   N19137811   7.678   7.745   2.887  0.5169 -0.0140 -0.1137
  111MOL   C19237812   7.662   7.735   3.034 -0.7262  0.2580  0.3840
  111MOL   C19337813   7.619   7.877   3.079  0.2922  0.0604 -0.4418
  111MOL   C19437814   7.614   0.053   2.950 -0.3213 -0.3677  0.5644
  111MOL   C19537815   7.660   7.867   2.844  0.8267  0.1982  0.4899
  111MOL   O19637816   7.685   0.006   2.731  0.2347  0.5625 -0.6240
  111MOL   H19737817   7.887   7.559   2.685  0.2981 -1.1167  1.3189
  111MOL   H19837818   7.882   7.728   2.709  0.9610  1.0463  2.3341
  111MOL   H19937819   7.719   7.547   2.896  0.9328  1.7488  1.7993
  111MOL   H20037820   7.586   7.659   3.049  0.8050 -0.8450  2.9947
  111MOL   H20137821   7.755   7.706   3.084 -0.1229  0.4078 -0.6410
  111MOL   H20237822   7.518   7.879   3.120  1.9077  2.6999  3.6829
  111MOL   H20337823   7.679   0.026   3.151 -1.4159 -0.0451  1.1098
  111MOL   H20437824   7.507   0.070   2.934 -0.4565 -1.2159  0.5809
  111MOL   H20537825   7.678   0.141   2.960 -0.4887 -0.3280  1.2972
  111MOL   C20637826   7.626   7.577   2.708  0.6363 -0.4105 -0.2241
  111MOL   C20737827   7.629   7.427   2.663 -0.3188 -0.5606  0.2472
  111MOL   N20837828   7.615   7.335   2.781 -0.2115  0.2135  0.2373
  111MOL   C20937829   7.495   7.342   2.870 -0.6938  0.3560 -0.4933
  111MOL   C21037830   7.521   7.238   2.982 -0.9088 -0.3095 -0.5423
  111MOL   C21137831   7.648   7.169   2.950 -0.6149  0.4371 -0.1370
  111MOL   C21237832   7.701   7.244   2.823  0.1897 -0.3176  0.1707
  111MOL   O21337833   7.815   7.231   2.785  0.0606  0.0513  0.1520
  111MOL   H21437834   7.651   7.636   2.620  0.6325  0.8127  0.5796
  111MOL   H21537835   7.521   7.587   2.737  0.4998 -1.1101 -0.4736
  111MOL   H21637836   7.722   7.392   2.619 -0.0048 -0.9740  1.2212
  111MOL   H21737837   7.484   7.442   2.912 -0.0134  0.7688 -1.2818
  111MOL   H21837838   7.406   7.313   2.813  0.0387  0.0479 -1.4852
  111MOL   H21937839   7.529   7.290   3.078 -3.4757  1.2197 -1.0891
  111MOL   H22037840   7.431   7.176   2.982 -1.6057  0.6720 -2.3371
  111MOL   H22137841   7.718   7.148   3.030 -1.0815  1.6594  0.5978
  111MOL   H22237842   7.637   7.070   2.906  3.7108 -0.0370 -0.3563
  111MOL   C22337843   7.518   7.401   2.559  0.0394  0.6039  0.5065
  111MOL   C22437844   7.544   7.437   2.411 -0.3057  0.3341  0.2603
  111MOL   N22537845   7.667   7.367   2.368  0.7189  0.5193  0.1792
  111MOL   C22637846   7.791   7.439   2.349 -0.3382  0.6064 -0.0857
  111MOL   C22737847   7.895   7.335   2.301 -0.0036  0.6312  0.2551
  111MOL   C22837848   7.831   7.199   2.321  0.2229  0.4242 -0.2819
  111MOL   C22937849   7.687   7.235   2.355 -0.1215 -0.9170  0.2440
  111MOL   O23037850   7.609   7.144   2.381 -0.0798  0.2501 -0.2283
  111MOL   H23137851   7.416   7.429   2.583 -0.5004 -2.8320  2.5145
  111MOL   H23237852   7.497   7.295   2.551 -0.4278  0.8382 -1.6718
  111MOL   H23337853   7.566   7.543   2.421 -2.3986  0.7839  0.4316
  111MOL   H23437854   7.774   7.501   2.261  0.1151  0.3431 -0.3614
  111MOL   H23537855   7.817   7.488   2.443  2.5565 -0.9873 -0.0151
  111MOL   H23637856   0.018   7.347   2.197  0.1649 -1.6094  0.0274
  111MOL   H23737857   0.077   7.343   2.365  0.6712  0.3871 -0.6426
  111MOL   H23837858   7.836   7.135   2.234  0.7501  1.0718 -0.7303
  111MOL   H23937859   7.867   7.159   2.416 -0.3477  2.6832  0.9466
  111MOL   C24037860   7.420   7.413   2.321  1.2665 -0.3534  0.0413
  111MOL   C24137861   7.444   7.421   2.169  0.4861 -0.3120  0.1178
  111MOL   N24237862   7.321   7.384   2.097  0.1863 -0.0518  0.2386
  111MOL   C24337863   7.321   7.260   2.024 -0.3105 -0.7643  0.0104
  111MOL   C24437864   7.177   7.248   1.966  0.5712  0.0347  0.2794
  111MOL   C24537865   7.108   7.382   1.999  0.1160  0.7661  0.6469
  111MOL   C24637866   7.204   7.453   2.089 -0.4622  0.5525 -0.4339
  111MOL   O24737867   7.182   7.559   2.144 -0.2757 -0.7454  0.1072
  111MOL   H24837868   7.338   7.479   2.350  1.3010  0.2717 -1.2375
  111MOL   H24937869   7.376   7.315   2.341  1.0913 -0.2180  0.3185
  111MOL   H25037870   7.520   7.346   2.148  1.5280  0.6358  0.4002
  111MOL   H25137871   7.393   7.254   1.943 -1.4760  1.5099 -1.2490
  111MOL   H25237872   7.347   7.186   2.100 -0.2996 -0.7144  0.0543
  111MOL   H25337873   7.177   7.232   1.858 -0.8814  0.2607  0.2330
  111MOL   H25437874   7.126   7.163   2.012 -0.9676 -0.5475 -2.3558
  111MOL   H25537875   7.105   7.442   1.908 -2.3336  1.1853  0.9828
  111MOL   H25637876   7.012   7.365   2.047 -0.2270 -1.4866 -0.7315
  111MOL   C25737877   7.506   7.550   2.115 -0.8924 -0.4677  0.6296
  111MOL   C25837878   7.576   7.543   1.973  0.0781 -0.1809  0.6746
  111MOL   N25937879   7.603   7.682   1.929  0.1631 -0.4344 -0.5427
  111MOL   C26037880   7.508   7.750   1.835 -0.2670 -0.0416 -0.0161
  111MOL   C26137881   7.560   7.893   1.813 -0.3953  0.0650  1.1346
  111MOL   C26237882   7.673   0.001   1.919  0.1718 -0.3386 -0.2677
  111MOL   C26337883   7.693   7.769   1.971 -0.3439  0.3644 -0.1085
  111MOL   O26437884   7.777   7.736   2.053 -0.4401 -0.7256 -0.0488
  111MOL   H26537885   7.577   7.582   2.191  0.5616  1.9187 -1.6319
  111MOL   H26637886   7.429   7.626   2.114 -0.9266 -0.4969 -2.0453
  111MOL   H26737887   7.492   7.504   1.914 -0.2205  0.9053  0.3684
  111MOL   H26837888   7.518   7.689   1.745  1.4414 -1.0908  0.8643
  111MOL   H26937889   7.407   7.743   1.876 -1.0116 -0.4034 -1.8759
  111MOL   H27037890   7.602   7.894   1.712 -0.8382  1.0094  0.9613
  111MOL   H27137891   7.480   0.059   1.827 -0.2184  0.4194  0.3873
  111MOL   H27237892   7.762   0.051   1.880  0.2095 -1.5612 -1.7798
  111MOL   H27337893   7.622   0.056   1.999  0.9383  0.0765 -0.0523
  111MOL   C27437894   7.701   7.447   1.954 -0.0278  0.0797 -0.1933
  111MOL   C27537895   7.746   7.407   1.807 -0.7434 -1.1444  0.0561
  111MOL   N27637896   7.883   7.367   1.807 -0.5836  0.0099 -0.4914
  111MOL   C27737897   0.077   7.460   1.755 -1.2942  0.7193  0.8752
  111MOL   C27837898   0.202   7.375   1.750 -0.3970  0.1040  0.3176
  111MOL   C27937899   0.183   7.251   1.840 -0.6396  0.2620 -1.1582
  111MOL   C28037900   0.031   7.253   1.857  0.0023  0.6675  0.9425
  111MOL   O28137901   7.873   7.151   1.878  0.1087  0.2051  0.2822
  111MOL   H28237902   7.685   7.348   1.998  2.5179 -1.0648 -1.6746
  111MOL   H28337903   7.781   7.491   2.014 -1.3805  2.6672 -0.2316
  111MOL   H28437904   7.742   7.495   1.743 -0.7887 -0.8319  0.4854
  111MOL   H28537905   0.057   7.514   1.663  0.8559  0.8836  0.4841
  111MOL   H28637906   0.100   7.531   1.834  0.5776  2.7294 -1.3972
  111MOL   H28737907   0.213   7.332   1.650 -0.1222  2.0354 -0.4977
  111MOL   H28837908   0.297   7.423   1.774 -0.4051 -1.3130  3.5410
  111MOL   H28937909   0.210   7.157   1.792 -0.3137 -0.4463  0.3605
  111MOL   H29037910   0.243   7.255   1.931  1.2979 -0.3023 -2.3897
  111MOL   C29137911   7.654   7.307   1.733 -0.6840 -0.0311 -0.2138
  111MOL   C29237912   7.709   7.245   1.600  0.8855  0.4884  0.3201
  111MOL   N29337913   7.632   7.126   1.576 -0.1561  0.0835 -0.5579
  111MOL   C29437914   7.693   7.001   1.611 -0.7875 -0.0903  0.1073
  111MOL   C29537915   7.602   6.887   1.568 -0.2481 -0.2265 -0.1519
  111MOL   C29637916   7.468   6.954   1.526 -0.2491  0.7137 -0.4072
  111MOL   C29737917   7.499   7.106   1.543 -0.0824 -0.2898  1.0532
  111MOL   O29837918   7.420   7.194   1.517  0.7943 -0.7435  0.3765
  111MOL   H29937919   7.555   7.353   1.731  0.1074  1.9571  2.5729
  111MOL   H30037920   7.640   7.228   1.806  0.9990 -0.1786 -0.0253
  111MOL   H30137921   7.813   7.214   1.613  0.5543 -0.4651  0.6883
  111MOL   H30237922   7.783   6.995   1.549 -0.4979 -1.3547  0.6353
  111MOL   H30337923   7.715   6.997   1.717 -1.8447 -0.1544  0.3250
  111MOL   H30437924   7.646   6.826   1.488 -1.0500 -3.6433  1.9194
  111MOL   H30537925   7.589   6.825   1.656  0.6428  1.2251  1.0228
  111MOL   H30637926   7.451   6.936   1.420  3.0146 -0.8029 -0.7317
  111MOL   H30737927   7.383   6.929   1.589 -0.4037  1.0342 -0.4883
  111MOL   C30837928   7.708   7.342   1.471  0.0312 -0.0982  0.1491
  111MOL   C30937929   7.753   7.286   1.330  0.5476  0.1994 -0.7869
  111MOL   N31037930   7.643   7.297   1.231 -0.4319 -0.1920 -0.1976
  111MOL   C31137931   7.582   7.175   1.181  0.6639  0.0150  0.2014
  111MOL   C31237932   7.446   7.226   1.122 -0.4780 -0.0237 -0.5228
  111MOL   C31337933   7.464   7.375   1.099  0.4164  0.2864  0.3627
  111MOL   C31437934   7.592   7.407   1.178  1.0239  0.4424 -0.7560
  111MOL   O31537935   7.641   7.519   1.180 -0.3532  0.1971  0.4760
  111MOL   H31637936   7.773   7.422   1.506  1.1299 -0.7151 -0.4921
  111MOL   H31737937   7.608   7.384   1.481 -1.1989 -2.9824  0.4509
  111MOL   H31837938   7.759   7.178   1.330 -0.2056  0.1391  1.0240
  111MOL   H31937939   7.652   7.138   1.107  0.4926  0.9813 -0.4527
  111MOL   H32037940   7.568   7.108   1.266  3.6727 -1.0761 -0.1186
  111MOL   H32137941   7.419   7.169   1.032 -1.3919 -1.6445  0.7519
  111MOL   H32237942   7.371   7.208   1.198  2.6388 -0.9139  2.4714
  111MOL   H32337943   7.494   7.395   0.996  1.0917 -0.9162  0.3144
  111MOL   H32437944   7.378   7.434   1.130  1.2305  1.4846  0.3325
  111MOL   C32537945   7.880   7.336   1.268  0.0195  0.4170 -0.3092
  111MOL   C32637946   0.102   7.302   1.357  0.2866  0.7120  0.1569
  111MOL   N32737947   0.212   7.376   1.302 -0.5532  0.3837  0.1264
  111MOL   C32837948   0.298   7.459   1.392 -0.3988 -0.8799  0.5812
  111MOL   C32937949   0.391   7.543   1.300  0.6388 -0.1213  0.1305
  111MOL   C33037950   0.367   7.483   1.161  1.1958 -0.0381 -0.7253
  111MOL   C33137951   0.262   7.380   1.178  0.0624 -0.2336  0.0887
  111MOL   O33237952   0.211   7.318   1.083 -0.1294 -0.0762  0.4495
  111MOL   H33337953   7.858   7.443   1.264  0.8441  0.6389  0.8381
  111MOL   H33437954   7.884   7.295   1.167  0.0787  0.8314 -0.4745
  111MOL   H33537955   0.126   7.196   1.353  2.2219  1.1463  0.0379
  111MOL   H33637956   0.242   7.526   1.458  2.1582  0.7463  1.1770
  111MOL   H33737957   0.354   7.393   1.458 -1.1321 -0.7211  1.3689
  111MOL   H33837958   0.378   7.651   1.303 -0.5689 -0.2760  0.5807
  111MOL   H33937959   0.495   7.539   1.334  0.4389  0.3540  0.8166
  111MOL   H34037960   0.320   7.557   1.096 -0.8062  0.0230  0.7491
  111MOL   H34137961   0.466   7.454   1.124  2.0039 -1.5471  2.4267
  111MOL   H34237962   0.078   7.319   1.462 -0.8906 -0.8289  0.1603
  112MOL     C137963   6.111   6.178   0.212  0.1709  0.5017  0.2071
  112MOL     C237964   6.216   6.056   0.214 -0.7533 -0.8327 -0.0502
  112MOL     N337965   6.298   6.041   0.335  0.0386  0.1759 -0.4657
  112MOL     C437966   6.440   6.074   0.325 -0.3456  0.1261  0.4770
  112MOL     C537967   6.493   6.063   0.478  0.0712  0.1609  0.0458
  112MOL     C637968   6.369   6.060   0.557  0.7372 -0.2581 -0.4850
  112MOL     C737969   6.257   6.037   0.460 -0.7113 -1.2543 -0.0763
  112MOL     O837970   6.139   6.014   0.490 -0.5585 -0.1270 -0.3737
  112MOL     H937971   6.061   6.174   0.309  1.3195  1.4695  0.8607
  112MOL    H1037972   6.173   6.268   0.203 -0.2087  0.5611 -2.0907
  112MOL    H1137973   6.281   6.075   0.128  0.6758  2.6395  1.6778
  112MOL    H1237974   6.482   5.994   0.265 -0.8083 -1.4117  2.1582
  112MOL    H1337975   6.467   6.168   0.277  0.9542 -0.9673 -0.9623
  112MOL    H1437976   6.569   5.988   0.498  2.7330  2.7412 -0.0609
  112MOL    H1537977   6.546   6.156   0.500 -0.2226  0.4527 -0.4587
  112MOL    H1637978   6.371   5.979   0.630 -2.3486 -2.0894 -2.3194
  112MOL    H1737979   6.360   6.153   0.613 -1.3307 -0.3376 -0.6552
  112MOL    H1837980   6.043   6.170   0.127 -1.3158  1.8111  1.2231
  112MOL    C1937981   6.145   5.925   0.189  0.3548 -0.3570 -0.3993
  112MOL    C2037982   6.230   5.802   0.160  0.2982 -0.4144 -0.4660
  112MOL    N2137983   6.151   5.685   0.197 -0.8039  0.0298  0.4887
  112MOL    C2237984   6.181   5.619   0.323  0.1329  0.1847  0.0491
  112MOL    C2337985   6.068   5.512   0.337 -0.3974  0.5205 -0.0354
  112MOL    C2437986   5.960   5.555   0.240  0.0995  0.2996  0.5489
  112MOL    C2537987   6.038   5.646   0.144  0.0302 -0.3084 -0.3004
  112MOL    O2637988   5.989   5.679   0.040 -1.0979  0.0000  0.0939
  112MOL    H2737989   6.085   5.940   0.100  2.2575  1.0915 -1.4791
  112MOL    H2837990   6.084   5.910   0.278 -1.8044  3.0206 -1.2353
  112MOL    H2937991   6.319   5.797   0.222 -1.2480 -1.8058  1.7013
  112MOL    H3037992   6.280   5.574   0.336  0.6804  0.4909 -2.6148
  112MOL    H3137993   6.173   5.690   0.405 -1.5393 -2.1725  2.0010
  112MOL    H3237994   6.105   5.412   0.313  1.7279  1.5051 -1.0246
  112MOL    H3337995   6.024   5.501   0.436 -3.2891 -0.1064 -1.3286
  112MOL    H3437996   5.936   5.472   0.175  1.7487 -0.6152  1.0743
  112MOL    H3537997   5.874   5.607   0.284  0.0602 -0.4086  1.3225
  112MOL    C3637998   6.281   5.811   0.008  0.8295 -0.4337 -0.4788
  112MOL    C3737999   6.323   5.676   7.850 -0.1030  0.5460  0.6814
  112MOL    N3838000   6.346   5.701   7.706  0.3201  0.2775 -0.6516
  112MOL    C3938001   6.268   5.630   7.608 -0.1235  0.1806  0.0997
  112MOL    C4038002   6.299   5.693   7.476  0.4314  1.1779  0.0221
  112MOL    C4138003   6.412   5.795   7.503 -0.6379 -0.2322  0.6252
  112MOL    C4238004   6.436   5.784   7.650 -0.5424  0.5631 -0.3218
  112MOL    O4338005   6.520   5.852   7.707 -0.1822 -0.3357  0.1006
  112MOL    H4438006   6.364   5.881   0.006 -0.4288  1.2242  2.1245
  112MOL    H4538007   6.212   5.856   7.844 -1.3131 -1.2767  1.0433
  112MOL    H4638008   6.243   5.605   7.869 -1.8955  2.0780 -0.8992
  112MOL    H4738009   6.307   5.528   7.609 -2.5828 -0.8360 -2.5758
  112MOL    H4838010   6.162   5.620   7.629 -0.2343 -1.2835 -1.1053
  112MOL    H4938011   6.318   5.612   7.405  0.2562 -1.1640  2.5592
  112MOL    H5038012   6.215   5.744   7.428 -0.3521  0.2651  0.4054
  112MOL    H5138013   6.502   5.759   7.454 -0.6556  1.3642 -0.6515
  112MOL    H5238014   6.380   5.893   7.467 -0.8264 -0.7599 -0.6637
  112MOL    C5338015   6.451   5.622   0.014  0.0980 -0.0084  0.7234
  112MOL    C5438016   6.499   5.476   7.872 -0.0740  0.4642 -0.2993
  112MOL    N5538017   6.593   5.487   7.761 -0.6010  0.5195  0.0820
  112MOL    C5638018   6.721   5.556   7.768  0.0736  0.1116  0.4292
  112MOL    C5738019   6.803   5.515   7.646  0.3432 -0.1789 -0.9465
  112MOL    C5838020   6.701   5.446   7.551 -0.1130  0.6495 -0.4964
  112MOL    C5938021   6.580   5.423   7.640 -0.0290  0.4175 -0.0992
  112MOL    O6038022   6.485   5.356   7.599 -0.3085  0.1490  0.6547
  112MOL    H6138023   6.435   5.615   0.121  0.7447 -0.4161  0.7984
  112MOL    H6238024   6.531   5.695   0.002 -0.9660  1.1129  0.4152
  112MOL    H6338025   6.408   5.428   7.835 -0.3085 -0.1900  1.0756
  112MOL    H6438026   6.704   5.664   7.762  1.0715  0.2016 -0.9781
  112MOL    H6538027   6.788   5.540   7.852  0.2705 -0.7233  0.1110
  112MOL    H6638028   6.847   5.602   7.597 -2.3150  0.4730 -2.2512
  112MOL    H6738029   6.891   5.453   7.666  0.7319  0.1983 -1.4606
  112MOL    H6838030   6.670   5.515   7.472 -0.5270  1.0899  0.0434
  112MOL    H6938031   6.742   5.359   7.500 -2.5539 -0.0835 -1.2575
  112MOL    C7038032   6.558   5.388   0.076 -0.2446  0.6040  0.0826
  112MOL    C7138033   6.454   5.311   0.174 -0.4713  0.4151  0.0438
  112MOL    N7238034   6.367   5.202   0.114 -0.5188 -0.1188 -0.0414
  112MOL    C7338035   6.221   5.197   0.118  0.9449  0.4965 -0.6925
  112MOL    C7438036   6.172   5.073   0.029 -0.5177 -0.3147 -0.8417
  112MOL    C7538037   6.304   4.996   0.008 -0.4690  0.2059 -0.0180
  112MOL    C7638038   6.414   5.098   0.036  0.0476 -0.3172 -0.1777
  112MOL    O7738039   6.536   5.076   0.011 -0.1686 -0.4656 -0.4216
  112MOL    H7838040   6.614   5.454   0.142 -0.3985 -0.1191  0.9419
  112MOL    H7938041   6.613   5.309   0.025 -0.1473  1.3259 -0.9463
  112MOL    H8038042   6.393   5.393   0.211  0.2616  1.0760 -0.1917
  112MOL    H8138043   6.198   5.193   0.225 -0.5143  1.1197 -0.9685
  112MOL    H8238044   6.165   5.288   0.095 -0.7175 -0.5152 -0.6988
  112MOL    H8338045   6.093   5.018   0.081 -0.1529  0.2917  0.3724
  112MOL    H8438046   6.119   5.103   7.845 -0.1694 -0.2740 -1.0315
  112MOL    H8538047   6.321   4.911   0.074  0.0439 -0.4611 -1.0054
  112MOL    H8638048   6.307   4.970   7.808 -0.4451 -0.2952  0.1038
  112MOL    C8738049   6.534   5.244   0.291 -0.1040  0.3297  0.4141
  112MOL    C8838050   6.453   5.202   0.421  0.3291 -0.0159 -0.7245
  112MOL    N8938051   6.522   5.099   0.493  1.0130  0.2579  0.0658
  112MOL    C9038052   6.460   4.966   0.497 -0.3848 -1.1955  0.4501
  112MOL    C9138053   6.556   4.885   0.584  0.3024  0.5393  0.2010
  112MOL    C9238054   6.677   4.973   0.616 -0.0312  0.0556  0.6730
  112MOL    C9338055   6.641   5.103   0.552 -0.0601 -0.0460  0.1286
  112MOL    O9438056   6.717   5.202   0.559 -0.3862 -0.1229 -0.1500
  112MOL    H9538057   6.614   5.311   0.323 -0.4384  1.1896 -0.5230
  112MOL    H9638058   6.578   5.153   0.250  2.8178  2.4316 -1.2883
  112MOL    H9738059   6.351   5.176   0.393  0.9115 -3.3159 -0.0051
  112MOL    H9838060   6.361   4.976   0.541 -0.2892 -2.0214  0.8836
  112MOL    H9938061   6.438   4.921   0.400 -0.0029  0.9252 -0.6296
  112MOL   H10038062   6.510   4.874   0.682 -0.7061 -0.5974 -0.3996
  112MOL   H10138063   6.573   4.791   0.533  1.0086  1.3598 -1.1035
  112MOL   H10238064   6.702   4.992   0.720 -0.3796 -0.6285  0.8858
  112MOL   H10338065   6.768   4.947   0.561  1.7418  1.2157  2.9741
  112MOL   C10438066   6.428   5.329   0.506 -0.0494  0.1437 -0.3205
  112MOL   C10538067   6.355   5.302   0.641  0.5002  0.2739  0.3433
  112MOL   N10638068   6.398   5.382   0.755 -0.3694 -0.3299  0.3657
  112MOL   C10738069   6.487   5.322   0.855 -0.4087  0.8833  0.2692
  112MOL   C10838070   6.495   5.431   0.967 -0.0281 -0.0971 -0.2897
  112MOL   C10938071   6.460   5.557   0.898 -0.0477  0.5589  0.1151
  112MOL   C11038072   6.397   5.514   0.764 -1.0872 -0.4070  0.1942
  112MOL   O11138073   6.365   5.596   0.680 -0.9226  0.1173 -0.2895
  112MOL   H11238074   6.375   5.405   0.448  0.4023  0.9506  0.3246
  112MOL   H11338075   6.523   5.376   0.528 -0.1935 -0.3762  1.4679
  112MOL   H11438076   6.373   5.200   0.672 -0.7912 -0.1109 -0.1316
  112MOL   H11538077   6.467   5.220   0.890  0.1117  0.0318 -1.8278
  112MOL   H11638078   6.584   5.311   0.805 -0.5311  1.3373 -0.0669
  112MOL   H11738079   6.417   5.406   1.039 -1.1536  1.2629 -0.9994
  112MOL   H11838080   6.588   5.433   1.023 -1.4240 -1.4450  2.1226
  112MOL   H11938081   6.545   5.618   0.870  0.5626 -1.2819 -2.1751
  112MOL   H12038082   6.402   5.623   0.963 -0.7594  0.6156 -0.5624
  112MOL   C12138083   6.203   5.307   0.615  0.4048 -0.5579 -0.7724
  112MOL   C12238084   6.104   5.268   0.729 -0.0193 -0.3724  0.1278
  112MOL   N12338085   6.065   5.373   0.818 -0.2953  0.3340  0.3488
  112MOL   C12438086   6.106   5.375   0.954  0.2013  0.0088  0.7022
  112MOL   C12538087   6.076   5.521   1.005  0.1256  0.2889  0.0943
  112MOL   C12638088   5.990   5.579   0.902 -0.0825  0.3533  0.4725
  112MOL   C12738089   6.001   5.485   0.785 -0.3964  0.2118 -0.3460
  112MOL   O12838090   5.957   5.513   0.678  0.0528 -0.1415  0.2192
  112MOL   H12938091   6.177   5.270   0.516  0.4589  0.6005 -1.2349
  112MOL   H13038092   6.173   5.410   0.595 -2.1650 -1.0191  0.5312
  112MOL   H13138093   6.164   5.203   0.793 -0.7360 -1.1322  0.0426
  112MOL   H13238094   6.213   5.361   0.968  0.0362 -1.7044  0.3419
  112MOL   H13338095   6.048   5.304   1.013 -1.0086  1.0172  0.7407
  112MOL   H13438096   6.026   5.531   1.101  0.6800  0.4348  0.3740
  112MOL   H13538097   6.165   5.583   1.014 -0.3815  1.2250 -1.1834
  112MOL   H13638098   5.886   5.581   0.936  0.2475  0.3860  1.4772
  112MOL   H13738099   6.023   5.679   0.874 -1.5218  0.6721 -0.1401
  112MOL   C13838100   5.981   5.198   0.679  0.0080 -0.4337  0.4990
  112MOL   C13938101   6.003   5.056   0.632 -0.0068  0.4106 -0.8691
  112MOL   N14038102   6.006   4.962   0.743 -0.0959  0.8349 -0.0141
  112MOL   C14138103   5.891   4.928   0.826  0.4256 -0.2864 -1.2481
  112MOL   C14238104   5.942   4.834   0.944  0.4389 -0.8994  0.7245
  112MOL   C14338105   6.090   4.829   0.932  0.4617  0.3123  0.2817
  112MOL   C14438106   6.118   4.909   0.802 -0.1152 -0.9823  0.3069
  112MOL   O14538107   6.229   4.928   0.754  0.0796 -0.0336 -0.2304
  112MOL   H14638108   5.951   5.266   0.599  0.2125 -0.7189  0.1763
  112MOL   H14738109   5.901   5.206   0.752  1.5213  1.1778  2.0091
  112MOL   H14838110   6.104   5.052   0.590 -0.3679 -0.4513 -1.6720
  112MOL   H14938111   5.846   5.017   0.870  0.6655  0.4233 -2.4152
  112MOL   H15038112   5.817   4.871   0.769 -0.3316  0.7815 -1.3371
  112MOL   H15138113   5.924   4.873   1.044  1.7089  0.7642  0.3321
  112MOL   H15238114   5.902   4.733   0.946  2.5400 -1.7695  0.1776
  112MOL   H15338115   6.135   4.730   0.921 -1.0719 -0.4353  0.6543
  112MOL   H15438116   6.146   4.903   0.989 -0.9175  1.0921  0.6366
  112MOL   C15538117   5.897   5.021   0.524 -1.0812  0.2970  0.0797
  112MOL   C15638118   5.892   4.870   0.472 -0.7794  0.0107  0.0409
  112MOL   N15738119   5.763   4.845   0.406 -0.1570  0.2652 -0.1347
  112MOL   C15838120   5.651   4.793   0.491 -0.8526 -0.7732 -0.4571
  112MOL   C15938121   5.521   4.804   0.410  0.6151 -0.2732 -0.3463
  112MOL   C16038122   5.566   4.899   0.293 -0.1238  0.1153  0.1030
  112MOL   C16138123   5.716   4.914   0.301 -0.6826 -0.1503 -0.7372
  112MOL   O16238124   5.778   4.986   0.222 -0.0014  0.1331  0.0900
  112MOL   H16338125   5.912   5.087   0.439  0.6933  0.7051  0.6929
  112MOL   H16438126   5.806   5.054   0.575 -0.3778 -1.1882  2.4162
  112MOL   H16538127   5.901   4.808   0.561  2.2018  0.8835  0.3987
  112MOL   H16638128   5.687   4.699   0.533  1.0171  0.3768  0.6112
  112MOL   H16738129   5.649   4.855   0.581 -2.8511 -1.4747  0.0112
  112MOL   H16838130   5.504   4.708   0.361 -0.6564 -0.4051  0.3157
  112MOL   H16938131   5.430   4.849   0.451  1.7181  1.3171  0.3877
  112MOL   H17038132   5.542   4.838   0.206 -0.4925 -1.2000  1.1031
  112MOL   H17138133   5.509   4.991   0.306 -0.2799  0.0308  0.0225
  112MOL   C17238134   6.013   4.836   0.379 -0.0910 -0.1143  0.2067
  112MOL   C17338135   6.016   4.688   0.338 -0.3796  0.3869  0.0210
  112MOL   N17438136   5.915   4.656   0.235 -0.1808 -0.8425  0.0114
  112MOL   C17538137   5.809   4.570   0.264  0.4107  0.1234 -0.2116
  112MOL   C17638138   5.718   4.574   0.137 -1.2948  0.4726  0.1343
  112MOL   C17738139   5.810   4.636   0.026 -0.4390  0.4042 -0.3996
  112MOL   C17838140   5.920   4.700   0.107  0.3113  0.3466 -0.2138
  112MOL   O17938141   6.007   4.774   0.061 -0.3474  0.2409  0.3090
  112MOL   H18038142   6.108   4.862   0.427  1.1728 -0.4915 -2.0347
  112MOL   H18138143   6.009   4.899   0.290  1.1695  0.5992  0.6362
  112MOL   H18238144   5.991   4.650   0.437  3.4117 -0.4480  0.7645
  112MOL   H18338145   5.853   4.471   0.258 -2.1535 -1.0668 -0.3396
  112MOL   H18438146   5.756   4.574   0.360 -0.7268  1.9487 -0.8841
  112MOL   H18538147   5.628   4.630   0.162 -0.4644  2.5325 -1.4017
  112MOL   H18638148   5.691   4.472   0.109 -2.2307  0.9367 -0.6880
  112MOL   H18738149   5.867   4.563   7.875  0.6680 -0.3995  1.7239
  112MOL   H18838150   5.749   4.703   7.870  0.2426  1.6945  0.3028
  112MOL   C18938151   6.156   4.633   0.310 -0.4898 -0.0001  0.3337
  112MOL   C19038152   6.172   4.487   0.370  0.0049 -0.5611  0.1354
  112MOL   N19138153   6.296   4.420   0.332 -0.2097  0.4264 -0.1449
  112MOL   C19238154   6.294   4.288   0.270  0.4811  0.1343  0.2709
  112MOL   C19338155   6.440   4.254   0.235 -0.1671  0.5525  0.0772
  112MOL   C19438156   6.522   4.355   0.312  0.6583 -0.1349  0.1255
  112MOL   C19538157   6.421   4.454   0.363 -0.3640  0.3986  0.2265
  112MOL   O19638158   6.459   4.551   0.433 -0.2255 -0.3254  0.1805
  112MOL   H19738159   6.236   4.698   0.346 -0.3563 -0.7078  1.2967
  112MOL   H19838160   6.177   4.636   0.203 -0.2361  0.5067  0.3944
  112MOL   H19938161   6.096   4.430   0.317 -0.0080  0.5641 -1.0610
  112MOL   H20038162   6.258   4.215   0.342 -3.1354  1.4188 -0.1402
  112MOL   H20138163   6.227   4.270   0.186 -1.1823 -1.9698  2.0139
  112MOL   H20238164   6.475   4.154   0.261  1.0422  1.0289  0.3249
  112MOL   H20338165   6.454   4.253   0.127 -0.6024  1.7211 -0.0020
  112MOL   H20438166   6.579   4.311   0.395  1.7897 -0.6358 -0.8902
  112MOL   H20538167   6.593   4.408   0.248 -0.0305 -0.4891 -0.9343
  112MOL   C20638168   6.164   4.479   0.526  0.5322 -0.4864  0.0905
  112MOL   C20738169   6.074   4.374   0.587 -0.1755  0.4453  0.3152
  112MOL   N20838170   6.085   4.365   0.733  0.0803 -0.7124  0.3315
  112MOL   C20938171   6.162   4.255   0.794  0.0522  0.1883 -0.3555
  112MOL   C21038172   6.151   4.283   0.953  0.1564  0.6048 -0.7679
  112MOL   C21138173   6.063   4.409   0.960  0.3763  0.0520 -0.1041
  112MOL   C21238174   6.020   4.441   0.825 -0.2069  0.0875 -0.1639
  112MOL   O21338175   5.929   4.522   0.802  0.1668  0.6760 -0.6429
  112MOL   H21438176   6.123   4.572   0.566 -2.8457 -1.6206 -0.6182
  112MOL   H21538177   6.263   4.471   0.572  0.8291  1.0347 -0.2403
  112MOL   H21638178   6.115   4.279   0.552  0.5894  0.5065  1.0323
  112MOL   H21738179   6.122   4.156   0.772 -1.0746  0.4046  0.6154
  112MOL   H21838180   6.268   4.251   0.772  0.4388  0.4914  1.3701
  112MOL   H21938181   6.112   4.194   1.002  0.2653  0.3317 -1.1700
  112MOL   H22038182   6.251   4.300   0.992  0.2694  0.5268 -1.0224
  112MOL   H22138183   5.974   4.410   1.022 -0.5827  0.6069 -1.4629
  112MOL   H22238184   6.115   4.492   1.008 -0.9437  0.3026  0.8811
  112MOL   C22338185   5.926   4.368   0.535 -0.2421 -0.4604  0.4829
  112MOL   C22438186   5.815   4.277   0.606 -0.0285 -0.4622  0.6047
  112MOL   N22538187   5.690   4.309   0.550 -0.5812  0.3334  0.8280
  112MOL   C22638188   5.598   4.375   0.640 -0.4101 -0.3024 -0.6411
  112MOL   C22738189   5.483   4.425   0.553  0.1970  0.4172  0.1810
  112MOL   C22838190   5.507   4.367   0.418  0.0854  0.6413  0.5686
  112MOL   C22938191   5.646   4.302   0.426  0.5914  0.0640 -0.3814
  112MOL   O23038192   5.694   4.246   0.326 -0.3674  0.0686 -0.7101
  112MOL   H23138193   5.925   4.348   0.428  1.7247  1.6192  0.0453
  112MOL   H23238194   5.885   4.469   0.543  2.0041  0.4074  1.5920
  112MOL   H23338195   5.810   4.287   0.714  0.5288  1.6678  0.4535
  112MOL   H23438196   5.566   4.306   0.718  0.7330  0.1327  0.2290
  112MOL   H23538197   5.656   4.453   0.689  1.5324 -1.5758 -0.8719
  112MOL   H23638198   5.380   4.404   0.582 -0.2289 -2.0365 -2.8499
  112MOL   H23738199   5.489   4.533   0.542 -0.5600  0.1995 -2.8340
  112MOL   H23838200   5.438   4.288   0.389 -0.1220  0.8292  0.5566
  112MOL   H23938201   5.518   4.444   0.342 -0.7851 -2.0408 -2.4162
  112MOL   C24038202   5.846   4.128   0.575 -0.1407  0.1198 -0.3681
  112MOL   C24138203   5.772   4.024   0.669  0.6209 -0.0855  0.1796
  112MOL   N24238204   5.743   3.899   0.593  0.2083 -0.2685 -0.2457
  112MOL   C24338205   5.607   3.857   0.559 -0.0070 -0.3096  0.1754
  112MOL   C24438206   5.620   3.744   0.452 -0.3921  0.2296 -0.4683
  112MOL   C24538207   5.764   3.697   0.478  0.6797 -0.1209 -0.2593
  112MOL   C24638208   5.835   3.815   0.539 -0.1072  0.3307  0.0185
  112MOL   O24738209   5.959   3.826   0.552 -0.6313 -0.5563 -0.3551
  112MOL   H24838210   5.949   4.111   0.607 -1.3317 -1.6608  2.8617
  112MOL   H24938211   5.824   4.096   0.473 -3.1832 -0.5115  0.4305
  112MOL   H25038212   5.671   4.059   0.688  0.4429  0.9851 -2.6264
  112MOL   H25138213   5.584   3.794   0.645  1.4307 -1.6067 -0.3626
  112MOL   H25238214   5.532   3.934   0.545 -0.1065 -0.1521  1.5050
  112MOL   H25338215   5.549   3.662   0.464  0.6227 -0.5670  0.0876
  112MOL   H25438216   5.609   3.790   0.353 -1.2562  0.3159 -0.3383
  112MOL   H25538217   5.763   3.623   0.558 -1.2018  0.9826  0.7809
  112MOL   H25638218   5.823   3.663   0.393  0.8536 -1.3594  0.3490
  112MOL   C25738219   5.855   4.002   0.800  0.7943 -0.5168 -0.0699
  112MOL   C25838220   5.777   3.939   0.924 -0.4683  0.1956  0.1220
  112MOL   N25938221   5.861   3.842   0.988 -0.3694 -0.2178  0.2732
  112MOL   C26038222   5.856   3.707   0.936 -0.4864  0.3239  0.0146
  112MOL   C26138223   5.976   3.632   0.977  0.1709 -0.5398 -0.1729
  112MOL   C26238224   6.055   3.733   1.061 -0.3496  0.3621  0.3905
  112MOL   C26338225   5.972   3.859   1.059  0.2213  0.1260  0.1016
  112MOL   O26438226   6.010   3.958   1.122  0.0825 -0.8487 -0.9870
  112MOL   H26538227   5.906   4.091   0.837  0.2939 -0.5933  0.8383
  112MOL   H26638228   5.927   3.925   0.774  0.0933 -0.1510 -3.2573
  112MOL   H26738229   5.692   3.882   0.886 -1.4834  2.5065 -1.1986
  112MOL   H26838230   5.769   3.653   0.973  0.9403 -3.3579 -1.7184
  112MOL   H26938231   5.850   3.713   0.827 -2.4994  0.2032  0.1067
  112MOL   H27038232   5.954   3.549   1.044  1.0906  0.0151  0.8380
  112MOL   H27138233   6.036   3.583   0.900 -2.2622 -1.3235 -1.6557
  112MOL   H27238234   6.077   3.709   1.165 -1.4832 -0.6261  0.4057
  112MOL   H27338235   6.154   3.742   1.016  0.9954  2.4861  3.6409
  112MOL   C27438236   5.714   4.047   1.014  0.0123 -0.4862 -0.2529
  112MOL   C27538237   5.628   3.991   1.130  0.2081 -0.2405  0.5592
  112MOL   N27638238   5.703   3.969   1.252  0.0128 -0.5063  0.1174
  112MOL   C27738239   5.720   3.839   1.309  0.0784 -0.0244 -0.2747
  112MOL   C27838240   5.783   3.856   1.451 -0.3185 -0.2644  0.6415
  112MOL   C27938241   5.839   3.995   1.443 -0.4479 -0.0365 -0.2700
  112MOL   C28038242   5.766   4.060   1.329  0.3220  0.0131 -0.1099
  112MOL   O28138243   5.768   4.181   1.309  0.1189 -0.4995 -0.0356
  112MOL   H28238244   5.648   4.102   0.948 -0.5547 -0.7024  0.1250
  112MOL   H28338245   5.788   4.124   1.034  0.4632 -0.5242 -1.7169
  112MOL   H28438246   5.576   3.898   1.106 -1.5821  0.7745  0.4154
  112MOL   H28538247   5.626   3.784   1.310 -1.0807  1.9034 -0.2567
  112MOL   H28638248   5.788   3.782   1.246  0.8024 -0.0628  0.5327
  112MOL   H28738249   5.707   3.846   1.528 -1.6467  1.1964 -0.4375
  112MOL   H28838250   5.853   3.776   1.473 -0.6528 -0.8519 -0.4245
  112MOL   H28938251   5.847   4.054   1.534 -2.7234 -1.1423  0.6814
  112MOL   H29038252   5.943   3.989   1.411 -0.1948  0.0660  0.5142
  112MOL   C29138253   5.501   4.066   1.161  0.7410 -0.0540  0.1617
  112MOL   C29238254   5.379   4.073   1.061 -0.2116  0.2368 -0.3862
  112MOL   N29338255   5.343   3.938   1.025 -0.6180 -0.0684 -0.2363
  112MOL   C29438256   5.284   3.842   1.118  0.2058  0.5228 -0.6481
  112MOL   C29538257   5.274   3.710   1.037 -0.1793 -0.4252  0.0428
  112MOL   C29638258   5.330   3.740   0.896 -0.1569 -0.0284  0.6465
  112MOL   C29738259   5.370   3.885   0.906  0.2385 -0.3178 -0.0219
  112MOL   O29838260   5.415   3.947   0.811  0.0472  0.8189  0.1448
  112MOL   H29938261   5.543   4.164   1.186  0.3742 -0.3728  2.0673
  112MOL   H30038262   5.464   4.029   1.256  0.0422 -0.1854 -0.1566
  112MOL   H30138263   5.408   4.123   0.969  1.6791 -0.1948 -0.0496
  112MOL   H30238264   5.359   3.829   1.196 -0.7544  2.7014  0.6822
  112MOL   H30338265   5.190   3.859   1.170  0.7577 -1.0232  0.9069
  112MOL   H30438266   5.329   3.638   1.097 -1.8313 -0.9671  0.9292
  112MOL   H30538267   5.174   3.672   1.018 -0.4728  0.1884  0.3687
  112MOL   H30638268   5.421   3.688   0.867  0.5161  1.2335  0.4453
  112MOL   H30738269   5.262   3.725   0.812  1.1676 -1.3455 -0.2078
  112MOL   C30838270   5.254   4.150   1.122  0.0037  0.2660  0.8722
  112MOL   C30938271   5.293   4.300   1.159 -0.3832 -0.3292 -0.0545
  112MOL   N31038272   5.374   4.380   1.065  0.1334  0.1028 -0.0986
  112MOL   C31138273   5.496   4.453   1.115 -0.0370 -0.2958 -0.4150
  112MOL   C31238274   5.530   4.543   0.996  0.6530  0.1765 -0.0230
  112MOL   C31338275   5.418   4.545   0.902  0.3961 -0.0834  0.5400
  112MOL   C31438276   5.343   4.423   0.941  0.7191  0.7086 -0.1227
  112MOL   O31538277   5.250   4.381   0.869 -0.2504  0.3266 -0.6171
  112MOL   H31638278   5.232   4.091   1.211  1.5165 -1.2150  0.2952
  112MOL   H31738279   5.172   4.152   1.051 -0.2944 -1.1919  1.1520
  112MOL   H31838280   5.360   4.271   1.240 -1.4114 -3.7712 -0.3562
  112MOL   H31938281   5.471   4.521   1.196 -3.0008  0.5062 -1.9489
  112MOL   H32038282   5.588   4.403   1.147 -0.8046 -1.9526 -0.7410
  112MOL   H32138283   5.549   4.646   1.024 -3.4260  0.4648  2.1997
  112MOL   H32238284   5.624   4.515   0.949  1.1020  0.2538  0.8240
  112MOL   H32338285   5.355   4.634   0.904 -1.4816 -1.3808 -0.1131
  112MOL   H32438286   5.455   4.535   0.800 -0.0504 -1.3642  0.5003
  112MOL   C32538287   5.179   4.379   1.218 -0.0857  0.1688 -0.5943
  112MOL   C32638288   5.135   4.331   1.357  0.1910  0.3432 -1.1124
  112MOL   N32738289   5.075   4.422   1.456 -0.4633 -0.6577  0.2364
  112MOL   C32838290   5.106   4.420   1.603 -0.0071 -0.2304 -0.0300
  112MOL   C32938291   5.032   4.544   1.658  0.3132  0.4336 -0.2133
  112MOL   C33038292   4.984   4.622   1.543  0.2528 -0.0514 -0.8853
  112MOL   C33138293   5.014   4.538   1.425 -0.1945 -0.9215  0.7815
  112MOL   O33238294   4.987   4.573   1.309 -0.7440  0.4024  0.0928
  112MOL   H33338295   5.093   4.377   1.151 -0.6404  1.1496  0.0798
  112MOL   H33438296   5.215   4.482   1.221 -0.0991  0.2081 -1.6512
  112MOL   H33538297   5.209   4.266   1.403  0.3300  1.2616 -0.0263
  112MOL   H33638298   5.067   4.328   1.646  0.7593  0.0131  1.1995
  112MOL   H33738299   5.214   4.421   1.618 -0.0280 -0.1068  0.0980
  112MOL   H33838300   4.951   4.497   1.713  0.1834  1.5481  0.5649
  112MOL   H33938301   5.075   4.608   1.734 -1.7081  1.1595  0.3594
  112MOL   H34038302   4.880   4.651   1.553  0.3568 -0.5241  1.8118
  112MOL   H34138303   5.037   4.717   1.534 -1.4859  1.2394  1.8159
  112MOL   H34238304   5.054   4.261   1.336 -2.2338  1.9128  2.6342
  113MOL     C138305   2.024   7.435   1.417  0.2642 -0.3316 -0.9627
  113MOL     C238306   2.091   7.371   1.543  0.2379 -0.6081 -0.3440
  113MOL     N338307   2.131   7.235   1.504 -0.0265 -0.8810  0.2077
  113MOL     C438308   2.055   7.124   1.549  0.4499  0.4740  0.3195
  113MOL     C538309   2.138   6.992   1.515  0.2842  0.4989  0.0852
  113MOL     C638310   2.217   7.044   1.389  0.0410  0.4775 -0.8682
  113MOL     C738311   2.217   7.198   1.406 -0.0462 -0.5270 -0.8421
  113MOL     O838312   2.289   7.276   1.343  0.0843 -0.1981 -0.0611
  113MOL     H938313   2.084   7.435   1.326  2.6261 -0.4968  0.5305
  113MOL    H1038314   1.932   7.378   1.406 -1.7208  2.7211 -0.9160
  113MOL    H1138315   2.020   7.366   1.625  1.4166  1.6606  0.8601
  113MOL    H1238316   2.030   7.133   1.654 -0.9452  3.3330 -0.2125
  113MOL    H1338317   1.961   7.120   1.493  1.9907  3.0830 -2.6076
  113MOL    H1438318   2.204   6.989   1.602  0.2966 -0.1560  0.0554
  113MOL    H1538319   2.098   6.892   1.501 -0.1648  0.4678  1.5014
  113MOL    H1638320   2.320   7.009   1.398 -0.5258 -1.0459 -0.1050
  113MOL    H1738321   2.165   7.017   1.298  0.7158 -2.4940 -0.4279
  113MOL    H1838322   1.985   7.527   1.461 -0.7625 -1.0355 -0.3704
  113MOL    C1938323   2.219   7.443   1.592  0.4800 -0.5004 -0.2100
  113MOL    C2038324   2.202   7.581   1.658  0.1547 -1.1454  0.0049
  113MOL    N2138325   2.112   7.581   1.776  0.3978 -0.1062  0.3789
  113MOL    C2238326   2.007   7.681   1.782  0.2634 -0.1004 -0.1036
  113MOL    C2338327   1.914   7.636   1.892  0.7020 -0.0844 -0.2683
  113MOL    C2438328   2.000   7.552   1.987 -0.3599  0.1097  0.0960
  113MOL    C2538329   2.113   7.511   1.893  0.0283 -0.6078  0.5355
  113MOL    O2638330   2.182   7.414   1.915 -0.4795 -0.0921 -0.0912
  113MOL    H2738331   2.274   7.459   1.500 -1.2974 -1.3930 -1.4611
  113MOL    H2838332   2.268   7.378   1.665  0.3052 -0.9432 -0.4824
  113MOL    H2938333   2.161   7.648   1.583 -0.1106  0.0161  1.1708
  113MOL    H3038334   2.050   7.781   1.793  0.5113 -0.2965  0.7149
  113MOL    H3138335   1.952   7.683   1.688 -0.6154  0.6316  0.4164
  113MOL    H3238336   1.857   7.715   1.939  0.7649 -0.9414  1.2930
  113MOL    H3338337   1.844   7.567   1.845 -1.3214 -0.2449  2.8328
  113MOL    H3438338   2.030   7.592   2.083 -0.3775 -0.4385  0.3332
  113MOL    H3538339   1.934   7.472   2.020  0.3728  0.0291  1.3884
  113MOL    C3638340   2.337   7.631   1.696  0.5838  0.1030  0.5130
  113MOL    C3738341   2.454   7.647   1.579 -0.4956  0.0197 -0.1277
  113MOL    N3838342   2.421   7.760   1.488 -0.4636 -0.8101 -0.1097
  113MOL    C3938343   2.408   7.735   1.342  0.4489  0.3023 -0.8117
  113MOL    C4038344   2.414   7.879   1.288 -0.2404  0.7616  0.5007
  113MOL    C4138345   2.398   0.073   1.405  0.0737  0.4122  0.7917
  113MOL    C4238346   2.417   7.888   1.525  0.6223  0.4905  0.6374
  113MOL    O4338347   2.423   0.027   1.639  0.1539 -0.1177  0.3559
  113MOL    H4438348   2.380   7.557   1.764  1.2349  1.1006  1.2065
  113MOL    H4538349   2.324   7.720   1.759 -1.1376  1.2877 -1.4628
  113MOL    H4638350   2.453   7.555   1.520  3.6312 -1.3717  1.8113
  113MOL    H4738351   2.485   7.668   1.304 -1.1633 -0.5589 -2.6215
  113MOL    H4838352   2.310   7.694   1.317 -0.3316  0.2454  2.1249
  113MOL    H4938353   2.512   7.894   1.244  0.4577  1.9790  2.4369
  113MOL    H5038354   2.334   7.897   1.215  1.0385  0.1879 -1.0813
  113MOL    H5138355   2.480   0.144   1.407  1.7853 -1.3247 -3.0212
  113MOL    H5238356   2.303   0.126   1.411  0.5814  1.6163 -1.3472
  113MOL    C5338357   2.584   7.675   1.644 -0.4838 -0.0453 -0.1786
  113MOL    C5438358   2.652   7.529   1.673  0.0091  0.7006  0.0880
  113MOL    N5538359   2.668   7.435   1.556 -0.1106  0.0428 -0.1862
  113MOL    C5638360   2.605   7.303   1.562  0.9104 -0.4162 -1.0234
  113MOL    C5738361   2.646   7.234   1.435 -0.0835  0.2897 -0.0220
  113MOL    C5838362   2.722   7.336   1.353  0.8332  0.0231 -0.2038
  113MOL    C5938363   2.730   7.456   1.439 -0.1138 -0.1251  0.1343
  113MOL    O6038364   2.784   7.560   1.406 -0.2912  0.1062  0.7917
  113MOL    H6138365   2.567   7.733   1.734 -0.2256 -0.3896  0.0926
  113MOL    H6238366   2.653   7.724   1.575 -0.2686 -0.4331 -0.2398
  113MOL    H6338367   2.583   7.477   1.740 -1.3053  1.5935 -0.5401
  113MOL    H6438368   2.627   7.263   1.661 -1.7531 -1.1836 -0.6873
  113MOL    H6538369   2.498   7.305   1.540  0.8502  0.3883 -0.6492
  113MOL    H6638370   2.715   7.156   1.465  0.4038  0.4032 -0.8459
  113MOL    H6738371   2.555   7.190   1.395 -0.3347 -1.0704  1.9455
  113MOL    H6838372   2.825   7.305   1.337  0.4751 -1.4489  0.3125
  113MOL    H6938373   2.676   7.371   1.261  0.6563  0.9907  0.2399
  113MOL    C7038374   2.791   7.530   1.743  0.0050 -0.2960 -0.0900
  113MOL    C7138375   2.770   7.612   1.881  0.2291 -0.2902  0.4085
  113MOL    N7238376   2.647   7.582   1.967 -0.1854  0.5284  0.2595
  113MOL    C7338377   2.570   7.682   2.024  0.3398  0.2211  0.4878
  113MOL    C7438378   2.484   7.616   2.133 -0.1040 -0.0207  0.0289
  113MOL    C7538379   2.511   7.460   2.118 -0.5147  0.4072 -0.5626
  113MOL    C7638380   2.623   7.456   2.017  0.1230  0.1853 -0.7180
  113MOL    O7738381   2.679   7.355   1.985 -0.1645  0.5963 -0.0014
  113MOL    H7838382   2.869   7.575   1.681  1.0233 -0.9503  0.7059
  113MOL    H7938383   2.830   7.431   1.765 -0.1408 -0.4474 -0.5193
  113MOL    H8038384   2.751   7.712   1.842 -0.0525 -1.1758 -1.8111
  113MOL    H8138385   2.638   7.758   2.063  0.3976  1.6353 -2.2833
  113MOL    H8238386   2.514   7.739   1.951 -1.3683 -0.2141  1.4286
  113MOL    H8338387   2.512   7.645   2.235  0.8947 -0.8867  0.0154
  113MOL    H8438388   2.381   7.635   2.105  0.1797 -2.1720 -2.7093
  113MOL    H8538389   2.524   7.401   2.208  1.2194  0.9857 -0.4215
  113MOL    H8638390   2.426   7.413   2.069  0.1895 -2.0558  0.5246
  113MOL    C8738391   2.888   7.611   1.975 -1.1264 -0.2483  0.1623
  113MOL    C8838392   3.019   7.671   1.921  0.8909 -0.0671  0.3904
  113MOL    N8938393   3.010   7.815   1.872 -0.0554 -0.2676  0.1866
  113MOL    C9038394   3.038   7.856   1.741  0.2349 -0.5364 -0.1711
  113MOL    C9138395   3.030   0.102   1.736  0.6163  0.5971  0.4177
  113MOL    C9238396   2.972   0.140   1.871  0.0185  0.3624 -0.4766
  113MOL    C9338397   2.951   0.010   1.942 -0.3576  0.3964 -0.5595
  113MOL    O9438398   2.904   0.006   2.054 -0.1264 -0.0126  0.3154
  113MOL    H9538399   2.909   7.507   2.003 -3.4681 -0.4560  1.2948
  113MOL    H9638400   2.857   7.674   2.059 -0.0734  0.4535  0.0305
  113MOL    H9738401   3.042   7.621   1.827  1.9836  0.1149  0.5583
  113MOL    H9838402   3.137   7.826   1.705  0.8414 -2.2345  2.7693
  113MOL    H9938403   2.965   7.814   1.672  1.1303 -1.2494 -0.6975
  113MOL   H10038404   3.130   0.144   1.731  0.9784 -0.3206 -0.0888
  113MOL   H10138405   2.981   0.143   1.648  0.6794 -1.6636 -0.6826
  113MOL   H10238406   3.039   0.200   1.933 -0.4138  2.6807 -2.1811
  113MOL   H10338407   2.876   0.191   1.870 -0.5526 -0.6070  1.7034
  113MOL   C10438408   3.137   7.667   2.019  0.2713  0.3231 -0.3895
  113MOL   C10538409   3.227   7.541   2.000 -0.2598  0.1724 -0.2504
  113MOL   N10638410   3.324   7.568   1.888 -0.0721 -0.1649 -0.5433
  113MOL   C10738411   3.295   7.506   1.762 -0.1182 -0.4814 -0.0366
  113MOL   C10838412   3.370   7.586   1.659  0.5089 -0.2797  0.2033
  113MOL   C10938413   3.465   7.678   1.732  0.8461 -0.0982 -0.3199
  113MOL   C11038414   3.427   7.660   1.882  0.4406 -0.1361  0.4021
  113MOL   O11138415   3.467   7.728   1.978  0.3916 -0.7718  0.5790
  113MOL   H11238416   3.095   7.669   2.120 -1.1210 -0.1235 -0.9421
  113MOL   H11338417   3.204   7.752   2.012  0.5385  0.2375  0.9416
  113MOL   H11438418   3.164   7.455   1.977  0.3196 -0.4868  0.5855
  113MOL   H11538419   3.331   7.405   1.777 -2.4685 -1.1939  1.1181
  113MOL   H11638420   3.188   7.507   1.740 -0.3453 -0.1796  1.0390
  113MOL   H11738421   3.406   7.535   1.570 -0.4410  0.5603 -0.6758
  113MOL   H11838422   3.296   7.645   1.605 -0.8454 -2.5643 -0.4626
  113MOL   H11938423   3.434   7.778   1.700  0.5705 -0.8910 -2.5953
  113MOL   H12038424   3.568   7.647   1.715  0.5975 -1.3561  0.4879
  113MOL   C12138425   3.318   7.518   2.121  0.2213  0.1765 -0.0108
  113MOL   C12238426   3.243   7.433   2.228  0.4765  0.2879 -0.1598
  113MOL   N12338427   3.197   7.301   2.172 -0.8249  0.2116  0.0481
  113MOL   C12438428   3.059   7.271   2.178  0.2703  0.1849 -0.8626
  113MOL   C12538429   3.047   7.144   2.095 -0.0168 -0.2567  0.2453
  113MOL   C12638430   3.192   7.080   2.093 -0.2368 -0.3241 -0.3289
  113MOL   C12738431   3.275   7.194   2.147  0.4680  0.0858  0.5734
  113MOL   O12838432   3.402   7.188   2.152 -0.4410  0.5123  0.5137
  113MOL   H12938433   3.351   7.613   2.165 -2.4221  0.0018  2.5125
  113MOL   H13038434   3.408   7.462   2.096 -0.7416 -0.5897 -1.8263
  113MOL   H13138435   3.154   7.489   2.260 -0.2065  0.2965 -2.0317
  113MOL   H13238436   3.000   7.355   2.139  0.3024  0.0111 -1.2864
  113MOL   H13338437   3.033   7.246   2.281 -1.1626 -0.7156 -1.4248
  113MOL   H13438438   2.974   7.079   2.142 -2.4634  1.8302 -0.5725
  113MOL   H13538439   3.013   7.179   1.998 -0.0009  1.8339  0.9734
  113MOL   H13638440   3.216   7.006   2.169  2.1663  0.1937 -0.5716
  113MOL   H13738441   3.226   7.042   1.996 -1.4419 -0.5862 -0.6602
  113MOL   C13838442   3.327   7.404   2.360  0.5210  0.0194  0.1631
  113MOL   C13938443   3.355   7.534   2.435 -0.2622 -0.3800  0.0861
  113MOL   N14038444   3.233   7.603   2.490  0.3984 -0.4055  0.4842
  113MOL   C14138445   3.223   7.741   2.463  0.1750 -0.1019  0.1028
  113MOL   C14238446   3.091   7.789   2.525 -1.0000 -1.1037 -0.4494
  113MOL   C14338447   3.013   7.661   2.557 -0.8836  0.2806 -0.3221
  113MOL   C14438448   3.120   7.553   2.543 -0.8484  0.3793  0.1602
  113MOL   O14538449   3.102   7.435   2.573 -0.5168 -0.6423 -0.1812
  113MOL   H14638450   3.421   7.361   2.326  1.3565  2.4300 -0.6738
  113MOL   H14738451   3.274   7.338   2.428 -0.0956  0.0403 -0.2922
  113MOL   H14838452   3.396   7.601   2.359  0.5516  0.5629  1.3244
  113MOL   H14938453   3.303   7.797   2.511 -0.8119  1.6050 -0.2056
  113MOL   H15038454   3.212   7.759   2.356 -1.7116 -0.1903  0.2680
  113MOL   H15138455   3.104   7.855   2.610 -1.1754 -2.6312  0.7999
  113MOL   H15238456   3.051   7.858   2.452  2.5129  0.9842 -0.5271
  113MOL   H15338457   2.939   7.640   2.480  0.6365 -0.1797 -1.7092
  113MOL   H15438458   2.975   7.665   2.658 -0.1603 -2.2721  0.0937
  113MOL   C15538459   3.467   7.523   2.544 -0.2636  0.0961  0.2072
  113MOL   C15638460   3.608   7.537   2.468  0.2774 -0.4678 -0.1297
  113MOL   N15738461   3.628   7.673   2.410 -0.6572  0.1378 -0.2173
  113MOL   C15838462   3.687   7.685   2.275 -0.7806  0.8703  0.2050
  113MOL   C15938463   3.708   7.835   2.257  0.0258 -0.2316 -0.4179
  113MOL   C16038464   3.667   0.005   2.385 -0.1167 -0.1845  0.0091
  113MOL   C16138465   3.609   7.795   2.470 -0.4592 -0.2787  0.2421
  113MOL   O16238466   3.555   7.818   2.576 -0.2991  0.2639  0.2799
  113MOL   H16338467   3.466   7.433   2.605  0.1405  0.6793  1.0823
  113MOL   H16438468   3.456   7.604   2.616 -1.9807 -1.0547  1.2941
  113MOL   H16538469   3.597   7.475   2.379 -1.6692  1.3669 -1.2050
  113MOL   H16638470   3.781   7.629   2.278 -1.0971  0.1410 -2.2220
  113MOL   H16738471   3.624   7.637   2.200 -0.3699  1.0605 -0.2701
  113MOL   H16838472   3.814   7.850   2.236  0.3348 -1.2256  0.4186
  113MOL   H16938473   3.654   7.876   2.171  0.4752  2.2285  0.4367
  113MOL   H17038474   3.734   0.067   2.443 -1.0107 -0.0062  0.8585
  113MOL   H17138475   3.593   0.081   2.358  1.7656  0.6629 -3.0581
  113MOL   C17238476   3.723   7.494   2.559 -0.5800 -0.0367  0.1721
  113MOL   C17338477   3.741   7.344   2.592  0.8872  0.3573 -0.4844
  113MOL   N17438478   3.744   7.266   2.465 -0.2184 -0.6377 -0.0822
  113MOL   C17538479   3.657   7.146   2.456 -0.5314 -0.2793  0.3125
  113MOL   C17638480   3.705   7.076   2.330  0.0748 -0.2352 -0.3089
  113MOL   C17738481   3.813   7.169   2.265  0.1021  0.1574 -0.2006
  113MOL   C17838482   3.820   7.283   2.355 -0.0137 -0.1538 -0.2935
  113MOL   O17938483   3.897   7.379   2.322 -0.2620 -0.3236 -0.4414
  113MOL   H18038484   3.692   7.553   2.646 -0.7779  2.1795 -1.3602
  113MOL   H18138485   3.812   7.539   2.516  0.3245 -2.2419 -0.2915
  113MOL   H18238486   3.659   7.313   2.657  1.6327  1.4476  1.0131
  113MOL   H18338487   3.665   7.076   2.539 -0.5783 -0.2233  0.3640
  113MOL   H18438488   3.552   7.170   2.439 -0.7516 -0.9574  0.6550
  113MOL   H18538489   3.618   7.047   2.272 -0.8293  4.3568 -1.4380
  113MOL   H18638490   3.763   6.987   2.355 -0.2167 -0.2228  0.4340
  113MOL   H18738491   3.911   7.121   2.266  0.4100  0.7047 -2.2612
  113MOL   H18838492   3.788   7.183   2.160  0.6972 -1.0375 -0.5106
  113MOL   C18938493   3.870   7.313   2.669  0.3679 -0.9941 -0.3626
  113MOL   C19038494   3.865   7.409   2.802 -0.2745  0.7118  0.2772
  113MOL   N19138495   3.736   7.387   2.878 -0.3021 -0.3484  0.0364
  113MOL   C19238496   3.657   7.506   2.922  0.5713 -0.1495 -0.1329
  113MOL   C19338497   3.569   7.463   3.038  0.3242 -0.0631  0.4359
  113MOL   C19438498   3.593   7.313   3.053 -0.0770  0.1500  0.1663
  113MOL   C19538499   3.688   7.276   2.937 -0.4928  0.6020 -0.5100
  113MOL   O19638500   3.730   7.161   2.916  0.7615 -0.1119  0.7588
  113MOL   H19738501   3.961   7.319   2.610  0.1452  0.7247 -0.5464
  113MOL   H19838502   3.874   7.212   2.711 -0.9388 -0.4631  1.1147
  113MOL   H19938503   3.869   7.513   2.772  0.1313  1.2465  2.1315
  113MOL   H20038504   3.714   7.591   2.960 -0.9773  1.7046 -1.8341
  113MOL   H20138505   3.590   7.537   2.841 -1.8070 -1.6558  1.1993
  113MOL   H20238506   3.598   7.520   3.126  1.1361  3.4776 -1.9964
  113MOL   H20338507   3.463   7.478   3.021  0.1986  1.8496  2.7248
  113MOL   H20438508   3.643   7.286   3.146 -1.8170  1.9590  1.6995
  113MOL   H20538509   3.504   7.254   3.034  1.7280 -2.4250 -0.5236
  113MOL   C20638510   3.993   7.390   2.881 -0.2953  0.0578  0.7214
  113MOL   C20738511   4.126   7.432   2.828  0.4754  0.4182  0.1608
  113MOL   N20838512   4.118   7.565   2.766  0.2228  0.2064  0.1180
  113MOL   C20938513   4.158   7.592   2.634 -0.3851  0.9399  0.0671
  113MOL   C21038514   4.085   7.724   2.602 -0.3861 -0.2853  0.2239
  113MOL   C21138515   4.073   7.798   2.733 -0.0608  0.0446 -0.2112
  113MOL   C21238516   4.084   7.677   2.826  1.3777 -0.4609  0.2222
  113MOL   O21338517   4.041   7.677   2.940 -0.3484  0.0802 -0.3396
  113MOL   H21438518   3.996   7.282   2.896 -0.7819  0.3404  3.0337
  113MOL   H21538519   3.977   7.435   2.979  1.1938  0.2618  0.8763
  113MOL   H21638520   4.157   7.355   2.757  2.3096 -1.4425  2.8846
  113MOL   H21738521   4.266   7.606   2.635 -0.1488 -0.8570  0.1251
  113MOL   H21838522   4.135   7.511   2.566 -3.1471  0.9467  0.9526
  113MOL   H21938523   4.130   7.782   2.522 -4.7873  0.8710 -1.5619
  113MOL   H22038524   3.985   7.698   2.567 -0.3924  0.8038 -0.5764
  113MOL   H22138525   4.152   7.869   2.754  0.7487 -0.2794 -2.0034
  113MOL   H22238526   3.982   7.856   2.731  0.1650  0.3770 -1.2815
  113MOL   C22338527   4.233   7.431   2.946  0.3928  0.2219  0.6346
  113MOL   C22438528   4.378   7.428   2.892  0.1262 -0.7139 -0.3878
  113MOL   N22538529   4.477   7.458   2.998 -0.4766 -0.4085 -0.2171
  113MOL   C22638530   4.561   7.363   3.075 -0.1431  0.2760 -0.1884
  113MOL   C22738531   4.636   7.441   3.181 -0.4838 -0.8649  0.8494
  113MOL   C22838532   4.560   7.566   3.196 -1.2497 -0.2460 -0.1447
  113MOL   C22938533   4.483   7.576   3.062  0.4364  0.1095 -0.0751
  113MOL   O23038534   4.424   7.680   3.024  0.3809  0.5514 -1.2854
  113MOL   H23138535   4.224   7.345   3.011  0.0142  0.1205  0.4490
  113MOL   H23238536   4.219   7.522   3.004  0.4135  0.0236  0.9493
  113MOL   H23338537   4.387   7.508   2.818 -1.8956  0.7987  0.9435
  113MOL   H23438538   4.493   7.296   3.127  0.8832  0.8187  1.9216
  113MOL   H23538539   4.627   7.303   3.012  0.1655  1.7616 -1.3185
  113MOL   H23638540   4.657   7.402   3.281 -0.1821 -1.8816  0.3911
  113MOL   H23738541   4.734   7.467   3.141 -0.7575 -0.2197  0.5913
  113MOL   H23838542   4.481   7.569   3.271 -0.2729  1.1163  0.8437
  113MOL   H23938543   4.638   7.641   3.209 -0.0186 -1.1685 -2.1170
  113MOL   C24038544   4.419   7.299   2.806  1.0921  0.0246  1.2525
  113MOL   C24138545   4.545   7.309   2.723  0.2466  0.1773  0.1277
  113MOL   N24238546   4.569   7.177   2.664 -0.0370  0.5525 -0.2324
  113MOL   C24338547   4.704   7.128   2.676  0.0795  0.3270  0.2905
  113MOL   C24438548   4.720   7.016   2.572  0.1749  0.2706  0.5870
  113MOL   C24538549   4.590   7.021   2.485  0.5690  0.0491 -0.7440
  113MOL   C24638550   4.498   7.110   2.570 -0.1891 -0.4776  0.0825
  113MOL   O24738551   4.381   7.138   2.533  0.7133  0.1421  0.5697
  113MOL   H24838552   4.345   7.251   2.742  2.8716 -0.7398 -0.2885
  113MOL   H24938553   4.436   7.225   2.883  3.7199 -2.1806 -1.3428
  113MOL   H25038554   4.632   7.328   2.785  1.2849 -2.0892 -0.5920
  113MOL   H25138555   4.770   7.213   2.659 -1.2395  0.9021 -2.2921
  113MOL   H25238556   4.708   7.092   2.779  1.4803 -1.2053 -0.2811
  113MOL   H25338557   4.812   7.025   2.516  0.7438 -1.1342  1.2527
  113MOL   H25438558   4.712   6.921   2.626 -0.2905  1.1635  2.1308
  113MOL   H25538559   4.598   7.068   2.387 -0.4974  0.6468 -0.5577
  113MOL   H25638560   4.544   6.924   2.467  0.0984  0.1176  0.0413
  113MOL   C25738561   4.523   7.417   2.608  0.0909 -0.6280 -0.1718
  113MOL   C25838562   4.588   7.564   2.640 -0.1930 -0.1225 -0.0085
  113MOL   N25938563   4.734   7.550   2.630  0.1843 -0.1708  0.0721
  113MOL   C26038564   4.809   7.561   2.496 -0.3474  0.0816  0.3693
  113MOL   C26138565   4.961   7.538   2.536 -0.0105  0.0269 -0.1937
  113MOL   C26238566   4.961   7.504   2.689 -0.5236 -0.2409 -0.3129
  113MOL   C26338567   4.816   7.525   2.732  0.5946 -0.3147 -1.3245
  113MOL   O26438568   4.784   7.524   2.851  0.0145 -0.0020 -0.1218
  113MOL   H26538569   4.418   7.432   2.581 -0.4305 -3.5232  0.0633
  113MOL   H26638570   4.575   7.381   2.519 -0.0047  1.3498 -1.0434
  113MOL   H26738571   4.571   7.585   2.746  1.6501  0.3241  0.2218
  113MOL   H26838572   4.774   7.487   2.425  1.1152 -0.0515 -0.2337
  113MOL   H26938573   4.798   7.656   2.443 -2.2367  0.1936  0.9310
  113MOL   H27038574   5.003   7.451   2.484  0.2331 -0.7659  1.2917
  113MOL   H27138575   5.027   7.620   2.508 -1.0035  1.1059  0.5697
  113MOL   H27238576   4.985   7.398   2.703 -0.6014 -0.2518 -0.2608
  113MOL   H27338577   5.029   7.572   2.741  0.3017 -0.0761 -1.5840
  113MOL   C27438578   4.540   7.679   2.541 -0.1548  0.4183 -0.9264
  113MOL   C27538579   4.578   7.817   2.595 -0.3137  0.2270 -0.4107
  113MOL   N27638580   4.598   0.013   2.485 -0.3185  0.3610  0.0289
  113MOL   C27738581   4.719   0.093   2.459 -0.5698 -0.1318 -0.3816
  113MOL   C27838582   4.691   0.191   2.352  0.1693  0.9997 -0.3297
  113MOL   C27938583   4.549   0.171   2.309 -0.8636  0.0763 -0.8000
  113MOL   C28038584   4.503   0.056   2.397  0.8397 -0.7148  0.9713
  113MOL   O28138585   4.392   0.005   2.380 -0.4668  0.6535  0.0198
  113MOL   H28238586   4.433   7.661   2.546  0.2053 -2.0194 -1.3134
  113MOL   H28338587   4.571   7.659   2.438 -0.3238  1.9585 -1.2871
  113MOL   H28438588   4.674   7.818   2.646  0.1578  0.4593 -1.2835
  113MOL   H28538589   4.740   0.159   2.543 -1.4706  1.9866 -1.7827
  113MOL   H28638590   4.808   0.035   2.434  1.0883  1.3396  1.8738
  113MOL   H28738591   4.712   0.292   2.388 -2.1643  0.3430  3.1120
  113MOL   H28838592   4.764   0.174   2.272  0.2496 -0.9089  0.1268
  113MOL   H28938593   4.486   0.259   2.323 -0.1588  0.5006 -0.3190
  113MOL   H29038594   4.545   0.142   2.204  0.4668  1.3371 -1.2075
  113MOL   C29138595   4.477   7.866   2.700 -0.7721  0.0559 -0.5809
  113MOL   C29238596   4.531   0.053   2.802 -0.0501 -0.3725  0.8531
  113MOL   N29338597   4.427   0.127   2.876 -0.1611 -0.8945  0.1916
  113MOL   C29438598   4.341   0.075   2.986  0.1087  0.2156  0.1087
  113MOL   C29538599   4.229   0.181   3.011  0.9680  0.9256  0.3277
  113MOL   C29638600   4.243   0.279   2.900  0.4100 -1.6074  0.4603
  113MOL   C29738601   4.372   0.242   2.829 -0.6287  0.0498 -0.0036
  113MOL   O29838602   4.415   0.312   2.735 -0.0906  0.0331 -0.0352
  113MOL   H29938603   4.429   7.785   2.755 -1.2386  0.4866 -0.3470
  113MOL   H30038604   4.395   0.012   2.650 -1.0570  2.1032  1.9066
  113MOL   H30138605   4.577   0.121   2.730  0.3128 -0.9279  0.5553
  113MOL   H30238606   4.292   7.888   2.956  1.9975 -0.7216 -0.1617
  113MOL   H30338607   4.396   0.049   3.076  1.1470 -1.6938 -1.0432
  113MOL   H30438608   4.127   0.142   3.012  1.3767 -0.1382  0.4369
  113MOL   H30538609   4.249   0.233   3.105  1.2236  0.8648  0.3061
  113MOL   H30638610   4.151   0.279   2.841 -0.4651  1.0939  1.7157
  113MOL   H30738611   4.252   0.378   2.946 -0.6028 -1.2003 -0.1960
  113MOL   C30838612   4.634   7.896   2.896  0.2816  0.6974  0.6260
  113MOL   C30938613   4.768   0.072   2.912 -0.9327  1.0276  0.2515
  113MOL   N31038614   4.737   0.204   2.962  0.0721  0.3346 -0.1394
  113MOL   C31138615   4.751   0.308   2.860  0.3459 -0.0316  0.4573
  113MOL   C31238616   4.751   0.443   2.934  0.2353 -0.8358 -0.2399
  113MOL   C31338617   4.712   0.407   3.078 -0.1750 -0.0601  0.7035
  113MOL   C31438618   4.711   0.253   3.081 -0.7188 -0.2548 -0.8482
  113MOL   O31538619   4.709   0.196   3.192  0.0070 -0.3721  0.4148
  113MOL   H31638620   4.658   7.794   2.867  0.6250  1.3327 -1.4102
  113MOL   H31738621   4.586   7.883   2.993  0.9523 -1.0584  0.7400
  113MOL   H31838622   4.817   0.071   2.815  2.4183 -0.3098  1.8660
  113MOL   H31938623   4.850   0.286   2.822  0.3872  0.4389  0.3003
  113MOL   H32038624   4.689   0.306   2.770 -0.2542 -3.1807  0.8797
  113MOL   H32138625   4.849   0.489   2.929 -0.7825  1.5282  0.6382
  113MOL   H32238626   4.694   0.524   2.889  1.5895 -0.7718 -1.8972
  113MOL   H32338627   4.785   0.446   3.148  2.3378 -1.3360 -1.1225
  113MOL   H32438628   4.609   0.436   3.099 -1.1293 -2.9916  0.4090
  113MOL   C32538629   4.869   7.903   2.999  0.0529  0.7808  0.2270
  113MOL   C32638630   5.014   0.056   2.983  0.3833 -0.3346  0.5342
  113MOL   N32738631   5.063   0.117   3.105 -0.7568 -0.0828  0.0590
  113MOL   C32838632   5.087   0.260   3.114  0.0187  0.7803  0.3855
  113MOL   C32938633   5.160   0.274   3.245 -0.6443 -0.1354  0.5550
  113MOL   C33038634   5.153   0.139   3.316 -1.7016 -0.0384  0.4057
  113MOL   C33138635   5.106   0.048   3.208  0.2708 -0.1029 -0.0290
  113MOL   O33238636   5.112   7.831   3.214  0.4288 -0.2269  0.5957
  113MOL   H33338637   4.864   7.797   2.976  0.3208  0.9785 -0.7655
  113MOL   H33438638   4.845   7.902   3.106  1.2848 -1.7737  0.5145
  113MOL   H33538639   5.014   0.128   2.902 -1.6076  0.4301  1.1816
  113MOL   H33638640   5.154   0.285   3.032 -2.4289 -0.9516 -2.2108
  113MOL   H33738641   4.989   0.308   3.106 -0.6406 -0.8250 -1.3508
  113MOL   H33838642   5.267   0.283   3.227 -1.1445  1.0171 -2.2282
  113MOL   H33938643   5.127   0.356   3.308 -1.4710 -0.1458  0.1453
  113MOL   H34038644   5.253   0.107   3.344 -0.7117 -0.6447 -3.5816
  113MOL   H34138645   5.090   0.134   3.405 -1.6564 -0.1239  0.4327
  113MOL   H34238646   5.079   7.879   2.955 -0.4687 -0.9552  0.3420
  114MOL     C138647   7.869   7.296   0.093  0.1629 -0.2171  0.3503
  114MOL     C238648   7.754   7.295   0.198  0.6566 -0.1271 -0.0656
  114MOL     N338649   7.751   7.434   0.250 -0.8109 -0.0637  0.2136
  114MOL     C438650   7.764   7.447   0.390 -0.0429  0.0204 -0.1790
  114MOL     C538651   7.774   7.600   0.406  0.1163  0.2418  0.3909
  114MOL     C638652   7.695   7.658   0.292 -0.1597 -0.3204 -0.3342
  114MOL     C738653   7.714   7.548   0.191  1.0167  0.8578 -0.9231
  114MOL     O838654   7.685   7.563   0.072 -0.4994 -0.5575  0.7596
  114MOL     H938655   7.878   7.199   0.043 -0.9235 -0.9717  1.5856
  114MOL    H1038656   7.860   7.370   0.013 -1.2078 -0.7631 -0.0199
  114MOL    H1138657   7.776   7.217   0.272 -0.6502  1.4856  2.1024
  114MOL    H1238658   7.668   7.405   0.420  0.3304 -1.8700 -1.5640
  114MOL    H1338659   7.840   7.377   0.422  1.9106  1.1978 -2.1414
  114MOL    H1438660   7.730   7.624   0.503  0.8106  2.3194  0.2072
  114MOL    H1538661   7.878   7.629   0.397  0.1304  0.0195 -0.2150
  114MOL    H1638662   7.588   7.663   0.313 -0.2774 -0.4626 -0.9005
  114MOL    H1738663   7.743   7.747   0.251 -0.2695  0.7392  1.7399
  114MOL    H1838664   0.062   7.308   0.136  0.7827  0.1807 -1.1337
  114MOL    C1938665   7.618   7.250   0.134  0.6226 -0.5051 -0.3263
  114MOL    C2038666   7.588   7.102   0.106  0.6362  0.0668 -0.1950
  114MOL    N2138667   7.565   7.026   0.224 -0.2798  0.0920 -0.0602
  114MOL    C2238668   7.581   6.885   0.225  0.4127 -0.1277 -0.6065
  114MOL    C2338669   7.500   6.822   0.333 -0.2740 -0.3166  0.0477
  114MOL    C2438670   7.487   6.939   0.424  0.4175 -0.2818  0.5748
  114MOL    C2538671   7.506   7.056   0.335 -0.4626 -0.3247 -0.3312
  114MOL    O2638672   7.465   7.170   0.365 -0.0198 -0.1545 -0.4765
  114MOL    H2738673   7.624   7.291   0.033  0.9208 -1.5214 -0.7230
  114MOL    H2838674   7.537   7.306   0.181  0.2825  0.1242 -1.6104
  114MOL    H2938675   7.687   7.069   0.075  0.6651 -1.0867  1.0635
  114MOL    H3038676   7.560   6.829   0.134 -3.1205 -1.0838  0.7249
  114MOL    H3138677   7.685   6.862   0.249 -0.2561 -2.3088  0.4068
  114MOL    H3238678   7.404   6.785   0.297 -0.8142  0.9939  0.1320
  114MOL    H3338679   7.552   6.739   0.382  0.9734  0.4277 -0.0019
  114MOL    H3438680   7.386   6.934   0.465  0.0690  0.2211 -0.2239
  114MOL    H3538681   7.563   6.943   0.503  0.6969 -2.2562  0.4270
  114MOL    C3638682   7.478   7.082   7.904 -0.5393 -0.1640  0.0918
  114MOL    C3738683   7.499   7.145   7.765  0.0932 -0.2997 -0.3384
  114MOL    N3838684   7.629   7.116   7.713  0.0429  0.3867  0.1584
  114MOL    C3938685   7.716   7.222   7.660  0.9709  0.0867 -0.0158
  114MOL    C4038686   7.854   7.153   7.631 -0.8476 -0.2509  1.1021
  114MOL    C4138687   7.819   7.001   7.641  0.4578 -0.1383  0.0244
  114MOL    C4238688   7.677   6.998   7.684 -0.8599 -0.8031  0.0009
  114MOL    O4338689   7.621   6.890   7.702 -0.0843  0.9233 -0.4296
  114MOL    H4438690   7.383   7.097   0.051 -0.2541 -2.4774  1.3211
  114MOL    H4538691   7.479   6.974   7.886 -0.9385  0.2575 -2.7792
  114MOL    H4638692   7.494   7.252   7.786  0.6338 -0.1567 -0.9478
  114MOL    H4738693   7.674   7.271   7.572 -1.5004 -0.0768  1.0292
  114MOL    H4838694   7.729   7.299   7.736 -2.0342  0.9706 -0.3421
  114MOL    H4938695   7.894   7.178   7.533 -1.7755 -0.4518  0.6676
  114MOL    H5038696   0.026   7.173   7.705 -1.6054  0.5972  1.6788
  114MOL    H5138697   7.841   6.952   7.547  1.2525  1.1024 -0.4496
  114MOL    H5238698   7.878   6.957   7.721 -0.5857 -1.4821  0.0702
  114MOL    C5338699   7.377   7.097   7.682  0.2208 -0.3871 -0.0023
  114MOL    C5438700   7.360   7.178   7.550  0.1488 -0.4770  0.3063
  114MOL    N5538701   7.303   7.087   7.446 -0.1949 -0.1871  0.0678
  114MOL    C5638702   7.392   7.048   7.335  0.3480 -0.4627  0.0007
  114MOL    C5738703   7.313   6.942   7.252 -0.3929 -0.3889  0.7309
  114MOL    C5838704   7.174   6.931   7.322  0.0028 -0.6046 -0.0147
  114MOL    C5938705   7.183   7.032   7.439 -0.5743  0.1095  0.7255
  114MOL    O6038706   7.084   7.057   7.513 -0.4234 -0.2508  0.0390
  114MOL    H6138707   7.282   7.108   7.733 -0.7962 -4.5292 -0.8933
  114MOL    H6238708   7.381   6.991   7.661  2.0803 -0.3192 -0.1112
  114MOL    H6338709   7.456   7.211   7.510 -0.5672  0.8968 -0.3136
  114MOL    H6438710   7.433   7.133   7.280 -1.9005  0.2945 -0.5443
  114MOL    H6538711   7.474   6.998   7.386  0.7951  1.5133  1.2351
  114MOL    H6638712   7.289   6.976   7.152  1.5309  1.4043  0.8443
  114MOL    H6738713   7.373   6.850   7.248  0.2971  0.1362 -2.1156
  114MOL    H6838714   7.105   6.955   7.241 -1.3750 -1.4365  0.8763
  114MOL    H6938715   7.146   6.834   7.363  1.2925 -1.1999 -0.5226
  114MOL    C7038716   7.281   7.304   7.580  0.4194  0.4090 -0.6647
  114MOL    C7138717   7.297   7.418   7.486  0.5655 -0.1389 -0.6856
  114MOL    N7238718   7.423   7.489   7.502 -0.4539  0.9673 -0.9526
  114MOL    C7338719   7.437   7.593   7.610  0.1025 -0.3993  0.4682
  114MOL    C7438720   7.578   7.650   7.595 -0.3520  0.3421  0.0117
  114MOL    C7538721   7.643   7.560   7.488  0.3829 -0.2924 -0.2067
  114MOL    C7638722   7.540   7.472   7.428 -0.1570 -0.1872 -0.5034
  114MOL    O7738723   7.558   7.395   7.336 -0.0564  0.2922 -0.2701
  114MOL    H7838724   7.304   7.332   7.683 -1.9403 -1.1224  0.3032
  114MOL    H7938725   7.174   7.286   7.590  0.9906 -1.9601  1.8517
  114MOL    H8038726   7.219   7.488   7.515 -0.8254 -1.5677 -0.9050
  114MOL    H8138727   7.367   7.673   7.588 -0.3129 -1.6541 -3.2218
  114MOL    H8238728   7.416   7.547   7.706  1.9871 -0.7333  0.7421
  114MOL    H8338729   7.583   7.754   7.562 -1.1069  0.2598 -0.3916
  114MOL    H8438730   7.636   7.648   7.687 -0.0850  2.0799 -0.1078
  114MOL    H8538731   7.677   7.616   7.401  0.4117 -0.1907 -0.1301
  114MOL    H8638732   7.721   7.501   7.537 -0.5460  1.0122  2.9415
  114MOL    C8738733   7.242   7.389   7.341 -0.0429  0.3268 -0.8903
  114MOL    C8838734   7.237   7.501   7.236 -0.1064 -0.4592  0.7619
  114MOL    N8938735   7.207   7.446   7.103 -0.0828  0.6788  0.2388
  114MOL    C9038736   7.301   7.451   6.987  0.1349 -0.8964  0.1410
  114MOL    C9138737   7.223   7.383   6.872 -0.5608 -0.3944  0.1895
  114MOL    C9238738   7.109   7.306   6.933 -0.2616 -0.2233  0.1363
  114MOL    C9338739   7.103   7.360   7.075 -0.9099 -0.5582 -0.6291
  114MOL    O9438740   7.017   7.329   7.152 -0.0975  0.0187  0.0707
  114MOL    H9538741   7.143   7.348   7.361 -0.0268  0.2715 -0.9243
  114MOL    H9638742   7.309   7.313   7.300 -0.4715  0.4098 -1.7367
  114MOL    H9738743   7.336   7.545   7.229 -0.3472  0.4726  3.0567
  114MOL    H9838744   7.324   7.553   6.956  1.8266 -2.0395 -2.4909
  114MOL    H9938745   7.388   7.392   7.013 -0.5978 -2.0364  0.0774
  114MOL   H10038746   7.174   7.453   6.804  1.4648  0.7984 -0.0773
  114MOL   H10138747   7.296   7.324   6.816  0.4227 -0.4085  1.4611
  114MOL   H10238748   7.014   7.320   6.882 -0.0552 -1.4135 -0.6103
  114MOL   H10338749   7.140   7.201   6.933 -1.7396 -0.6796 -1.2215
  114MOL   C10438750   7.134   7.608   7.273 -0.3772  0.4052  0.5530
  114MOL   C10538751   7.140   7.733   7.188 -0.2813 -0.2634 -0.4791
  114MOL   N10638752   7.009   7.800   7.188 -0.0356  0.1432  0.2640
  114MOL   C10738753   6.948   7.825   7.065  0.0461 -0.2540  0.4398
  114MOL   C10838754   6.816   7.892   7.098  0.2686 -0.4738 -0.2647
  114MOL   C10938755   6.831   0.026   7.245 -0.3787  0.3112 -1.2516
  114MOL   C11038756   6.946   7.857   7.293  0.3453  0.2198  0.6675
  114MOL   O11138757   6.994   7.882   7.404  0.1732 -0.2245  0.2003
  114MOL   H11238758   7.128   7.640   7.377 -0.4414  0.7529  0.4434
  114MOL   H11338759   7.031   7.572   7.263 -1.0601  2.3428  0.4337
  114MOL   H11438760   7.164   7.708   7.084  0.0522  0.5008 -0.5936
  114MOL   H11538761   7.010   7.895   7.009 -1.2079  0.4715 -0.0452
  114MOL   H11638762   6.937   7.740   6.999  0.3039  1.1916 -1.5010
  114MOL   H11738763   6.799   0.069   7.030  2.8335 -0.2669 -0.7037
  114MOL   H11838764   6.736   7.818   7.090  0.3554 -0.6792  0.6828
  114MOL   H11938765   6.743   0.006   7.307  0.6948 -0.4974  0.0469
  114MOL   H12038766   6.848   0.133   7.246 -1.7356  0.5353  0.0832
  114MOL   C12138767   7.250   7.828   7.248 -0.5794 -0.5695  0.0221
  114MOL   C12238768   7.288   0.044   7.169  0.6738  0.3776 -0.2694
  114MOL   N12338769   7.327   0.144   7.268 -0.2316 -0.0774  0.7306
  114MOL   C12438770   7.228   0.242   7.300 -0.3806  0.4821 -0.0218
  114MOL   C12538771   7.303   0.333   7.391 -0.4442  0.5291 -0.1209
  114MOL   C12638772   7.434   0.275   7.430 -0.6570  0.3290 -0.2928
  114MOL   C12738773   7.435   0.146   7.348  0.2199 -0.5197  0.4235
  114MOL   O12838774   7.525   0.066   7.346  0.1761  0.1742  0.1727
  114MOL   H12938775   7.346   7.777   7.251  0.3331  1.1527  1.3105
  114MOL   H13038776   7.229   7.843   7.354  0.1241 -1.2171  0.2604
  114MOL   H13138777   7.206   0.089   7.112  2.1319 -0.1340 -2.8805
  114MOL   H13238778   7.153   0.184   7.354 -1.7318  0.2420 -2.1333
  114MOL   H13338779   7.185   0.289   7.212  0.1580 -1.5425 -1.3993
  114MOL   H13438780   7.311   0.433   7.349  0.1496 -0.2802 -1.9675
  114MOL   H13538781   7.242   0.355   7.479  0.5921 -0.6608  0.9099
  114MOL   H13638782   7.515   0.343   7.406  0.3848 -1.8596 -3.2661
  114MOL   H13738783   7.440   0.245   7.534 -0.2280  2.1300  0.2181
  114MOL   C13838784   7.393   0.022   7.056 -0.8920  0.6613  0.8457
  114MOL   C13938785   7.419   0.138   6.950  0.5906 -0.1334 -0.3272
  114MOL   N14038786   7.555   0.196   6.960 -0.4437 -0.1640  0.1340
  114MOL   C14138787   7.570   0.343   6.977  0.3776 -0.1086 -0.5582
  114MOL   C14238788   7.724   0.373   6.997  0.5210 -0.1634 -0.1015
  114MOL   C14338789   7.775   0.232   7.021 -1.0650 -0.1375  0.1474
  114MOL   C14438790   7.668   0.134   6.982 -0.1642  0.7093  0.6623
  114MOL   O14538791   7.687   0.017   6.973  0.0163 -0.3398  0.0541
  114MOL   H14638792   7.347   7.853   6.991  0.2083  1.0865 -0.4417
  114MOL   H14738793   7.477   7.877   7.102 -1.3786  0.2882  1.3349
  114MOL   H14838794   7.348   0.218   6.968  3.0168  2.1229 -0.3162
  114MOL   H14938795   7.523   0.407   6.903 -1.0887  0.4088  0.8000
  114MOL   H15038796   7.516   0.366   7.069  1.7605 -1.3471  0.6052
  114MOL   H15138797   7.760   0.423   6.907 -1.0317 -1.1637 -1.3219
  114MOL   H15238798   7.733   0.438   7.083 -2.4411  0.2233 -0.0153
  114MOL   H15338799   7.789   0.221   7.128  1.9877 -1.7401 -0.3679
  114MOL   H15438800   7.869   0.208   6.971 -1.8732 -0.6212 -1.1757
  114MOL   C15538801   7.403   0.084   6.809 -0.1410 -0.5598 -0.0899
  114MOL   C15638802   7.253   0.085   6.766  0.2477 -0.1597  0.4147
  114MOL   N15738803   7.190   0.216   6.735 -0.0184 -0.7511  0.3520
  114MOL   C15838804   7.070   0.249   6.820  0.1278 -0.3827  0.5482
  114MOL   C15938805   7.019   0.377   6.764 -0.0522 -0.4981 -0.0833
  114MOL   C16038806   7.130   0.434   6.673  0.2147  0.6339 -0.1130
  114MOL   C16138807   7.230   0.318   6.656 -0.6945  0.0287  0.5674
  114MOL   O16238808   7.331   0.318   6.584 -0.4848  0.0502  0.1402
  114MOL   H16338809   7.466   7.904   6.786  0.5271  0.3760 -1.9066
  114MOL   H16438810   7.455   0.144   6.733 -5.1844 -0.1924 -3.5060
  114MOL   H16538811   7.188   0.037   6.840  1.9274 -1.0202  1.3516
  114MOL   H16638812   6.996   0.169   6.821  0.0633 -0.3252  2.6966
  114MOL   H16738813   7.102   0.260   6.924  1.1198 -0.9489  0.3182
  114MOL   H16838814   6.924   0.372   6.712  0.4085 -2.0929 -0.8099
  114MOL   H16938815   7.004   0.449   6.845 -0.0418  0.3027 -0.7935
  114MOL   H17038816   7.085   0.470   6.580  1.5710  1.9575 -0.2835
  114MOL   H17138817   7.191   0.510   6.722  0.3785  1.3869 -1.4629
  114MOL   C17238818   7.239   7.893   6.639  0.2221 -0.0230  0.0256
  114MOL   C17338819   7.094   7.861   6.599 -0.5924 -0.4732 -0.0585
  114MOL   N17438820   7.095   7.822   6.457  0.0733  0.1915  0.6979
  114MOL   C17538821   7.034   0.008   6.356  0.0475  0.2116  0.9233
  114MOL   C17638822   7.060   7.837   6.226  0.3673  0.6941 -0.6501
  114MOL   C17738823   7.095   7.694   6.266  0.0221  0.1141 -0.4235
  114MOL   C17838824   7.139   7.705   6.408 -0.6529 -0.4800  0.7115
  114MOL   O17938825   7.199   7.614   6.470  0.3087 -0.1232 -0.4883
  114MOL   H18038826   7.293   7.801   6.659 -0.9339 -0.5366  0.7783
  114MOL   H18138827   7.284   0.030   6.549 -1.3545 -0.5842 -1.0587
  114MOL   H18238828   7.034   0.046   6.590 -2.3017 -1.4404  1.3599
  114MOL   H18338829   6.929   0.018   6.381  0.0838 -0.1219  1.2107
  114MOL   H18438830   7.076   0.109   6.350 -1.8852  1.0430  1.2306
  114MOL   H18538831   7.149   7.884   6.182  0.0386  2.1377  0.1891
  114MOL   H18638832   6.976   7.844   6.157  1.1867 -0.0391 -1.7579
  114MOL   H18738833   7.008   7.629   6.261  0.5455 -0.5627 -0.7609
  114MOL   H18838834   7.166   7.663   6.190 -1.0688 -0.9381 -1.0212
  114MOL   C18938835   7.023   7.761   6.686 -0.7101 -0.4955 -0.3578
  114MOL   C19038836   6.875   7.749   6.641  0.3419 -0.2802 -0.8389
  114MOL   N19138837   6.844   7.604   6.652  0.0184 -0.2644  0.5066
  114MOL   C19238838   6.873   7.521   6.534  0.8507 -0.5498 -1.4217
  114MOL   C19338839   6.828   7.378   6.570  0.0602  0.0205 -0.2482
  114MOL   C19438840   6.738   7.399   6.694 -0.3652 -0.3712  0.0915
  114MOL   C19538841   6.770   7.537   6.742 -1.1641  0.3992  0.0178
  114MOL   O19638842   6.746   7.567   6.859  0.1908  0.0119 -0.1458
  114MOL   H19738843   7.030   7.787   6.792  1.0671  0.3060 -0.6500
  114MOL   H19838844   7.071   7.663   6.688  2.2057  0.8759 -0.2552
  114MOL   H19938845   6.865   7.791   6.541 -0.7550  0.2062 -0.5263
  114MOL   H20038846   6.821   7.567   6.450 -0.1732 -2.2238 -1.7143
  114MOL   H20138847   6.981   7.512   6.520  1.3773  0.6712  1.4830
  114MOL   H20238848   6.769   7.333   6.490 -0.8962  0.3632  0.2644
  114MOL   H20338849   6.917   7.317   6.585  0.0822  0.1835  0.2764
  114MOL   H20438850   6.634   7.403   6.661 -0.3080 -0.9444 -0.1531
  114MOL   H20538851   6.752   7.326   6.773  4.7247  1.8913  1.4699
  114MOL   C20638852   6.789   7.840   6.734  0.2203  0.0132  0.1275
  114MOL   C20738853   6.670   7.903   6.676  0.0094 -0.2037  0.3387
  114MOL   N20838854   6.546   7.878   6.762  0.8015  0.4621 -0.1328
  114MOL   C20938855   6.441   7.783   6.726 -0.2510 -1.0764 -0.8196
  114MOL   C21038856   6.345   7.781   6.846 -0.3832  0.0761  0.0406
  114MOL   C21138857   6.407   7.886   6.949 -0.5137  0.0038  0.8016
  114MOL   C21238858   6.521   0.035   6.876  0.2167  0.7310  0.1385
  114MOL   O21338859   6.588   0.125   6.921  0.2462 -0.0358 -0.4225
  114MOL   H21438860   6.848   0.018   6.771 -0.0586 -0.0287  0.6706
  114MOL   H21538861   6.769   7.802   6.834  1.2391 -0.3316  0.2069
  114MOL   H21638862   6.636   7.850   6.587 -0.2151 -0.2670  0.4621
  114MOL   H21738863   6.387   7.819   6.639  0.1618 -0.1677 -0.7053
  114MOL   H21838864   6.469   7.677   6.721  2.3111 -0.5799  1.6261
  114MOL   H21938865   6.243   7.813   6.823 -0.3786  0.5373  0.6623
  114MOL   H22038866   6.359   7.686   6.897  1.9518 -0.5554 -1.6668
  114MOL   H22138867   6.356   0.075   6.970 -0.2012  0.4089 -0.2127
  114MOL   H22238868   6.436   7.836   7.041 -0.6514 -1.5431  0.0080
  114MOL   C22338869   6.705   0.153   6.639 -0.1492 -0.0301  0.2576
  114MOL   C22438870   6.586   0.243   6.593 -0.2752 -0.2707  0.0562
  114MOL   N22538871   6.615   0.385   6.608  0.0783  0.1180 -0.5136
  114MOL   C22638872   6.550   0.450   6.718  0.2470 -0.1821 -0.3997
  114MOL   C22738873   6.598   0.598   6.712 -0.5797  0.6401 -0.9323
  114MOL   C22838874   6.702   0.604   6.600  0.0582 -0.8043  0.1731
  114MOL   C22938875   6.699   0.463   6.543  0.0367  0.4616  1.1041
  114MOL   O23038876   6.771   0.425   6.449  0.3857 -0.1419 -0.1853
  114MOL   H23138877   6.783   0.151   6.563 -0.2879  0.8266  0.0886
  114MOL   H23238878   6.733   0.206   6.729  0.0611  1.0037 -0.4061
  114MOL   H23338879   6.503   0.220   6.659  2.1541  0.4137  3.4497
  114MOL   H23438880   6.442   0.450   6.708  0.0821 -2.6630  0.7935
  114MOL   H23538881   6.568   0.389   6.807  1.0416 -0.5246 -0.7843
  114MOL   H23638882   6.513   0.660   6.685 -0.8569  1.5319  1.9036
  114MOL   H23738883   6.637   0.614   6.812 -0.5718  0.0604 -0.8416
  114MOL   H23838884   6.671   0.677   6.525  0.7959 -0.2797  0.3758
  114MOL   H23938885   6.802   0.639   6.622 -0.4303 -0.7209  2.3478
  114MOL   C24038886   6.532   0.208   6.458 -0.7430  0.2695  0.7294
  114MOL   C24138887   6.396   0.267   6.417 -0.4883  0.4635 -1.2119
  114MOL   N24238888   6.375   0.275   6.278  0.0220  0.2962  0.0365
  114MOL   C24338889   6.421   0.398   6.210 -0.5589 -0.0987  0.1956
  114MOL   C24438890   6.439   0.366   6.060 -1.1116 -0.0185 -0.0770
  114MOL   C24538891   6.365   0.230   6.041  0.2191 -0.4523 -0.1537
  114MOL   C24638892   6.336   0.183   6.185 -0.0356  0.5604  0.9810
  114MOL   O24738893   6.300   0.070   6.218 -0.2295 -0.1682  0.6229
  114MOL   H24838894   6.520   0.100   6.461 -1.8483  0.3451 -0.5099
  114MOL   H24938895   6.614   0.234   6.390 -0.7017  0.7472  0.9608
  114MOL   H25038896   6.391   0.370   6.452 -1.2088  0.5612 -1.5944
  114MOL   H25138897   6.352   0.477   6.238  0.2005  0.5407  0.2679
  114MOL   H25238898   6.518   0.437   6.241  0.5857 -3.3366  0.9025
  114MOL   H25338899   6.397   0.428   5.981 -0.4880  1.1463  0.4883
  114MOL   H25438900   6.545   0.344   6.053 -1.5014 -1.8627 -0.5105
  114MOL   H25538901   6.276   0.248   5.980 -0.0471  1.3827  0.7383
  114MOL   H25638902   6.428   0.152   5.996  0.5329 -0.0326 -0.4485
  114MOL   C25738903   6.286   0.189   6.495  0.2866  0.7455  0.1711
  114MOL   C25838904   6.141   0.253   6.482  0.1000 -0.1228  0.7185
  114MOL   N25938905   6.034   0.181   6.548 -0.6841 -0.0473  0.0589
  114MOL   C26038906   5.921   0.142   6.461 -0.2600  0.6433  0.1127
  114MOL   C26138907   5.821   0.086   6.562  0.0991 -0.2110 -0.0122
  114MOL   C26238908   5.899   0.062   6.693  0.3909  0.9813 -0.1648
  114MOL   C26338909   6.031   0.140   6.675  0.5298 -0.4209 -0.5285
  114MOL   O26438910   6.116   0.163   6.753 -0.3776 -0.1434 -0.5899
  114MOL   H26538911   6.304   0.187   6.603 -0.5614 -1.0922  0.2925
  114MOL   H26638912   6.273   0.086   6.461  0.3424  0.7263  0.2077
  114MOL   H26738913   6.118   0.243   6.376  1.4413  0.6610  0.3399
  114MOL   H26838914   5.864   0.210   6.398  1.9678  0.8991 -1.6863
  114MOL   H26938915   5.952   0.056   6.403 -0.4948  0.0196  0.8921
  114MOL   H27038916   5.744   0.162   6.578  0.0771 -0.0919 -0.6763
  114MOL   H27138917   5.766   7.902   6.532 -0.3268 -1.0015  2.9602
  114MOL   H27238918   5.835   0.085   6.778 -0.2647  0.5883 -0.5417
  114MOL   H27338919   5.924   7.862   6.709 -0.6150  0.7805  0.1427
  114MOL   C27438920   6.141   0.405   6.517 -0.1260 -0.0407  0.4508
  114MOL   C27538921   5.999   0.469   6.528  0.2560 -0.2385  0.2472
  114MOL   N27638922   6.001   0.579   6.622  0.1877 -0.1448 -0.0401
  114MOL   C27738923   5.932   0.584   6.746 -0.7240  0.0400  0.7269
  114MOL   C27838924   5.986   0.706   6.823  0.5633 -0.6948 -0.1826
  114MOL   C27938925   6.068   0.784   6.722 -0.5281 -0.3809 -0.6468
  114MOL   C28038926   6.084   0.683   6.610 -0.1253  0.5921 -0.4771
  114MOL   O28138927   6.164   0.695   6.515 -0.1003 -0.1722 -0.3352
  114MOL   H28238928   6.180   0.454   6.428 -1.7850  2.0110  0.8313
  114MOL   H28338929   6.190   0.427   6.612  1.1501  0.3318 -0.2793
  114MOL   H28438930   5.934   0.391   6.569 -0.9864  0.7384  0.1611
  114MOL   H28538931   5.824   0.585   6.727 -1.2035 -1.2671  3.1792
  114MOL   H28638932   5.943   0.497   6.810  1.9183 -0.1704  0.0297
  114MOL   H28738933   5.898   0.752   6.866  1.5485 -0.4574  1.6168
  114MOL   H28838934   6.049   0.666   6.902 -0.0533  0.3049  0.8292
  114MOL   H28938935   6.015   0.870   6.682  0.6177 -0.6867 -2.8933
  114MOL   H29038936   6.168   0.814   6.751 -0.9410  0.9033 -0.5155
  114MOL   C29138937   5.935   0.500   6.389 -0.5234 -0.5833  0.1752
  114MOL   C29238938   5.781   0.532   6.373 -1.0842  0.2489 -0.6983
  114MOL   N29338939   5.736   0.552   6.236  0.3930  0.3702 -0.9559
  114MOL   C29438940   5.680   0.673   6.190  0.3740  0.4854 -0.3937
  114MOL   C29538941   5.613   0.632   6.057 -1.0228  0.0141 -0.6055
  114MOL   C29638942   5.673   0.499   6.020 -0.0248  0.0885 -0.0659
  114MOL   C29738943   5.736   0.450   6.145 -0.5698  0.0246 -0.0056
  114MOL   O29838944   5.768   0.330   6.151 -0.0231  0.2601  0.4642
  114MOL   H29938945   5.956   0.421   6.317 -1.3517  0.7451 -1.5661
  114MOL   H30038946   5.985   0.591   6.355  0.3855 -1.7093 -1.5479
  114MOL   H30138947   5.768   0.629   6.421  1.7305 -0.1535  0.9831
  114MOL   H30238948   5.603   0.719   6.251  1.0560  0.8870  0.1682
  114MOL   H30338949   5.766   0.739   6.176  1.0591 -0.4790 -0.7544
  114MOL   H30438950   5.505   0.631   6.066 -0.9547 -2.6463  0.1391
  114MOL   H30538951   5.637   0.701   5.976  3.7565  1.4073  1.8001
  114MOL   H30638952   5.599   0.429   5.981 -2.2535  1.9593  0.6878
  114MOL   H30738953   5.744   0.520   5.940 -0.2134 -1.6713 -0.7186
  114MOL   C30838954   5.696   0.434   6.453  0.0306  0.0113 -0.3599
  114MOL   C30938955   5.544   0.470   6.481  0.0824  0.8660  0.1540
  114MOL   N31038956   5.480   0.354   6.540 -0.2998 -0.0501 -0.0252
  114MOL   C31138957   5.416   0.262   6.449 -0.1620 -0.3681 -0.1711
  114MOL   C31238958   5.409   0.126   6.525 -0.4989  0.5773  0.3510
  114MOL   C31338959   5.422   0.163   6.668 -0.1716  0.4275  0.2751
  114MOL   C31438960   5.500   0.295   6.660  0.2041 -0.1751 -0.3925
  114MOL   O31538961   5.564   0.336   6.757 -0.3405 -0.5700 -0.6546
  114MOL   H31638962   5.738   0.398   6.547  1.7599  1.2067 -0.6415
  114MOL   H31738963   5.691   0.346   6.390 -0.9960 -0.1156 -0.1055
  114MOL   H31838964   5.494   0.491   6.386  0.3333  0.7156 -0.0143
  114MOL   H31938965   5.321   0.295   6.410 -0.0813 -0.8587 -0.7928
  114MOL   H32038966   5.488   0.243   6.369  0.9334  0.5505  0.5732
  114MOL   H32138967   5.318   0.070   6.502  0.7040 -1.2446 -0.1520
  114MOL   H32238968   5.482   0.052   6.490 -1.3660 -0.9135  1.6249
  114MOL   H32338969   5.328   0.190   6.717 -0.8005 -3.5986  1.5287
  114MOL   H32438970   5.478   0.088   6.724  0.5047 -0.6714 -1.8088
  114MOL   C32538971   5.534   0.595   6.572 -0.8560  0.3858 -0.3089
  114MOL   C32638972   5.388   0.622   6.605  0.5715  0.4073 -0.4878
  114MOL   N32738973   5.374   0.764   6.611 -0.6890  0.2967 -0.3802
  114MOL   C32838974   5.318   0.846   6.499  0.1258 -0.0430 -0.1921
  114MOL   C32938975   5.313   0.993   6.557  0.3630  0.4260 -0.2735
  114MOL   C33038976   5.355   0.973   6.707  0.4493  0.4671  0.6427
  114MOL   C33138977   5.415   0.839   6.712 -0.6066  0.5617 -0.6956
  114MOL   O33238978   5.491   0.800   6.800  0.7957 -0.3971  0.3417
  114MOL   H33338979   5.582   0.681   6.526 -0.7189  1.5435  1.9248
  114MOL   H33438980   5.588   0.582   6.666 -1.2003  0.2698 -0.1251
  114MOL   H33538981   5.353   0.574   6.696  1.0061 -0.8744 -0.9953
  114MOL   H33638982   5.372   0.833   6.404  0.3728  0.7313 -0.1622
  114MOL   H33738983   5.215   0.814   6.482 -0.3253  0.6312  1.2365
  114MOL   H33838984   5.360   1.075   6.503 -2.0085  1.4501 -0.8738
  114MOL   H33938985   5.210   1.030   6.553 -0.2618 -1.2670  0.0284
  114MOL   H34038986   5.431   1.044   6.739  0.1264  0.6024  1.1268
  114MOL   H34138987   5.266   0.968   6.771  0.1426  1.1762  0.2795
  114MOL   H34238988   5.318   0.593   6.527 -0.4933 -0.6987  0.8579
  115MOL     C138989   2.203   3.988   2.016  0.3742  0.2237 -0.4449
  115MOL     C238990   2.266   3.947   2.148 -0.2116  0.5034  0.0518
  115MOL     N338991   2.182   4.004   2.263  0.1796  0.4555  0.3266
  115MOL     C438992   2.189   4.144   2.288  0.4840  0.6661  0.1449
  115MOL     C538993   2.097   4.175   2.396 -0.3085 -0.3596  0.1780
  115MOL     C638994   2.013   4.041   2.413 -0.2855 -0.0057  0.5246
  115MOL     C738995   2.082   3.939   2.328 -0.8005 -0.6957  0.2313
  115MOL     O838996   2.064   3.818   2.329 -0.3489 -0.5090 -0.6051
  115MOL     H938997   2.186   4.095   2.003 -0.1524  0.1557 -0.3408
  115MOL    H1038998   2.251   3.955   1.925  0.2288  0.0538 -0.4588
  115MOL    H1138999   2.360   4.001   2.162  0.3534 -0.8707  1.6322
  115MOL    H1239000   2.294   4.171   2.300  0.6939 -0.3709  0.7993
  115MOL    H1339001   2.157   4.202   2.202  0.6336  2.6031  1.3780
  115MOL    H1439002   2.129   4.200   2.497  0.8635  1.4242 -0.6102
  115MOL    H1539003   2.027   4.254   2.370 -0.4771 -0.9891 -1.3577
  115MOL    H1639004   2.013   4.007   2.516 -0.0727 -3.1835 -0.4806
  115MOL    H1739005   1.913   4.057   2.373  0.5834  2.1782 -0.8685
  115MOL    H1839006   2.108   3.935   2.012 -0.3474  1.4994 -0.3737
  115MOL    C1939007   2.293   3.791   2.158 -0.0531  0.1094 -0.0076
  115MOL    C2039008   2.411   3.742   2.076  0.2142  0.3353 -0.6082
  115MOL    N2139009   2.545   3.780   2.136 -0.5153  0.5292 -0.4230
  115MOL    C2239010   2.633   3.860   2.066 -0.5171 -0.1150  0.3008
  115MOL    C2339011   2.773   3.840   2.129  0.0041  0.4133 -0.2843
  115MOL    C2439012   2.741   3.778   2.265 -0.0715  0.1405 -0.4602
  115MOL    C2539013   2.593   3.736   2.250  0.2831  1.3744  1.2740
  115MOL    O2639014   2.528   3.676   2.333 -0.4039 -0.5739  0.1499
  115MOL    H2739015   2.206   3.728   2.139 -0.4147  0.8485 -0.8176
  115MOL    H2839016   2.317   3.761   2.260 -0.8507  0.8467  0.4055
  115MOL    H2939017   2.412   3.796   1.981  0.1601 -0.1566 -0.8866
  115MOL    H3039018   2.639   3.839   1.959 -0.4206 -0.8203  0.4392
  115MOL    H3139019   2.616   3.967   2.067 -0.8075 -0.1581  0.0390
  115MOL    H3239020   2.831   3.768   2.072 -0.9261 -0.6216  0.0362
  115MOL    H3339021   2.832   3.931   2.130  1.4742 -0.5202 -0.1331
  115MOL    H3439022   2.815   3.703   2.289 -0.0613  0.2701 -0.0850
  115MOL    H3539023   2.758   3.851   2.344 -0.1490  2.2169 -2.3102
  115MOL    C3639024   2.402   3.587   2.044 -0.3707  0.0737  0.0063
  115MOL    C3739025   2.304   3.553   1.928 -0.1761 -1.1213 -0.2560
  115MOL    N3839026   2.342   3.621   1.795  0.1667 -0.3296  0.1050
  115MOL    C3939027   2.231   3.661   1.701 -0.3086  0.5000 -0.2542
  115MOL    C4039028   2.303   3.733   1.577 -0.6082 -0.4308  0.2104
  115MOL    C4139029   2.450   3.730   1.611  0.1816 -0.2061  0.2191
  115MOL    C4239030   2.461   3.664   1.749  0.0009 -0.1407  0.7239
  115MOL    O4339031   2.568   3.651   1.800 -0.2631  0.1257  0.1220
  115MOL    H4439032   2.371   3.544   2.140 -0.2979  2.8394  1.3016
  115MOL    H4539033   2.498   3.545   2.014 -0.0041  1.5808 -0.9817
  115MOL    H4639034   2.208   3.598   1.955 -0.8830 -2.0110 -1.2533
  115MOL    H4739035   2.169   3.577   1.667 -0.4222  0.8522 -0.9233
  115MOL    H4839036   2.167   3.738   1.744 -1.5518 -1.5864  1.7971
  115MOL    H4939037   2.305   3.676   1.484  0.4783 -1.0944  0.6263
  115MOL    H5039038   2.271   3.837   1.572 -0.4202 -0.4002 -0.3123
  115MOL    H5139039   2.504   3.676   1.533  0.0954  0.2745 -0.1749
  115MOL    H5239040   2.492   3.830   1.613  1.5858 -0.7653 -0.8943
  115MOL    C5339041   2.272   3.401   1.898  0.3666 -0.4076 -0.3157
  115MOL    C5439042   2.192   3.319   1.999 -0.0442  0.0086  0.3869
  115MOL    N5539043   2.077   3.393   2.052  0.1433 -0.8597  0.3110
  115MOL    C5639044   2.074   3.428   2.191 -0.1906 -0.2438 -0.2969
  115MOL    C5739045   1.947   3.507   2.209  0.0133 -0.8392 -0.7973
  115MOL    C5839046   1.880   3.516   2.072 -0.0866 -0.0142  0.0159
  115MOL    C5939047   1.975   3.451   1.983  0.6266  0.0719  0.2884
  115MOL    O6039048   1.966   3.456   1.853  0.2153 -0.5861 -0.0225
  115MOL    H6139049   2.362   3.348   1.867  1.0943  0.1292  0.8330
  115MOL    H6239050   2.199   3.414   1.818 -1.8796  1.7783  1.9908
  115MOL    H6339051   2.269   3.295   2.072  1.0424 -0.3698 -0.8811
  115MOL    H6439052   2.075   3.337   2.251  0.5014 -0.6626 -0.9254
  115MOL    H6539053   2.164   3.484   2.216 -0.3347 -0.4685  0.7189
  115MOL    H6639054   1.870   3.474   2.279 -0.8045  0.4768 -1.0644
  115MOL    H6739055   1.969   3.610   2.237  1.5987 -1.1831 -0.7207
  115MOL    H6839056   1.784   3.466   2.067 -0.9419  1.7443 -1.9550
  115MOL    H6939057   1.858   3.615   2.033  1.4579 -0.5451 -2.3071
  115MOL    C7039058   2.135   3.188   1.938 -1.4564 -0.4941 -0.0741
  115MOL    C7139059   2.219   3.058   1.960  0.2799 -0.3378 -0.1653
  115MOL    N7239060   2.232   3.016   2.099 -0.0264 -0.3105 -0.1257
  115MOL    C7339061   2.357   2.974   2.158 -0.9578  0.2410  0.1227
  115MOL    C7439062   2.319   2.891   2.288 -0.1347  0.2282 -0.3755
  115MOL    C7539063   2.167   2.882   2.286 -0.2258  0.3314  0.4658
  115MOL    C7639064   2.124   2.973   2.170  0.2483 -0.2854  0.0564
  115MOL    O7739065   2.008   2.997   2.143  0.5628 -0.6184 -0.3931
  115MOL    H7839066   2.116   3.199   1.831  2.2778  2.2945 -0.5407
  115MOL    H7939067   2.036   3.167   1.979 -1.2449  1.1553  1.3431
  115MOL    H8039068   2.320   3.096   1.943  0.3072 -0.3693 -0.0723
  115MOL    H8139069   2.416   2.913   2.090  0.0694  3.0076 -1.5488
  115MOL    H8239070   2.413   3.064   2.179 -0.2835 -0.0425 -0.4738
  115MOL    H8339071   2.352   2.788   2.283  1.1818  0.6871 -1.5130
  115MOL    H8439072   2.353   2.938   2.381  1.0365  1.2862 -1.3143
  115MOL    H8539073   2.135   2.779   2.271  1.0758  0.1285 -0.9460
  115MOL    H8639074   2.121   2.936   2.370 -0.5328  2.5313 -1.0859
  115MOL    C8739075   2.179   2.943   1.865 -0.5058  0.0594  0.5438
  115MOL    C8839076   2.272   2.941   1.741 -0.1772  0.2090  0.3611
  115MOL    N8939077   2.241   2.823   1.651 -0.7230 -0.2930 -0.9851
  115MOL    C9039078   2.344   2.721   1.625 -0.0820 -0.3454  0.0429
  115MOL    C9139079   2.286   2.645   1.505 -0.8264  0.2006 -0.1155
  115MOL    C9239080   2.142   2.686   1.488 -0.4283  0.0970 -0.3767
  115MOL    C9339081   2.132   2.812   1.576 -0.5565  0.3731 -0.3310
  115MOL    O9439082   2.031   2.882   1.585  0.6391 -0.2126 -0.0730
  115MOL    H9539083   2.074   2.960   1.845 -0.4950 -1.6065 -1.0937
  115MOL    H9639084   2.191   2.850   1.921  3.5798 -1.4096 -2.5008
  115MOL    H9739085   2.373   2.930   1.782 -0.7807 -0.1532  1.7923
  115MOL    H9839086   2.442   2.763   1.607  1.0267 -0.8897  4.2806
  115MOL    H9939087   2.366   2.659   1.712 -1.0752  0.9038  1.2054
  115MOL   H10039088   2.337   2.678   1.414 -0.2749 -1.7541 -0.5436
  115MOL   H10139089   2.309   2.540   1.525  3.7372  1.0562 -0.2401
  115MOL   H10239090   2.106   2.694   1.386 -0.4156  0.8687 -0.3203
  115MOL   H10339091   2.079   2.612   1.538  0.3830  0.7323  1.6347
  115MOL   C10439092   2.283   3.075   1.654 -0.0614  0.1108 -0.4333
  115MOL   C10539093   2.379   3.071   1.531 -0.2784  0.8484 -0.3158
  115MOL   N10639094   2.354   3.185   1.443  0.5824  0.0796  0.4409
  115MOL   C10739095   2.273   3.155   1.325  0.3711 -0.3975  0.4773
  115MOL   C10839096   2.243   3.297   1.277  0.2434  0.3528  0.8314
  115MOL   C10939097   2.303   3.401   1.380 -0.5726  0.2649  0.2348
  115MOL   C11039098   2.372   3.314   1.476 -0.2294 -0.6579 -0.1717
  115MOL   O11139099   2.433   3.359   1.570 -0.1598  0.4631 -0.7560
  115MOL   H11239100   2.300   3.162   1.717 -1.6872  0.5576 -0.5816
  115MOL   H11339101   2.184   3.082   1.609 -1.0867 -3.2952  1.1798
  115MOL   H11439102   2.353   2.984   1.472 -0.8419  0.0006  1.1468
  115MOL   H11539103   2.331   3.098   1.252  1.2764 -0.9730  1.6298
  115MOL   H11639104   2.179   3.103   1.342  0.3611 -0.4427  0.2868
  115MOL   H11739105   2.286   3.303   1.177 -0.5405 -0.8477  0.4147
  115MOL   H11839106   2.136   3.312   1.261 -0.0221 -3.0245 -1.0109
  115MOL   H11939107   2.234   3.463   1.436 -1.2752 -0.1403 -0.1751
  115MOL   H12039108   2.378   3.474   1.350  0.5582 -0.4538  1.2657
  115MOL   C12139109   2.530   3.064   1.579  0.1386 -0.3629  0.0828
  115MOL   C12239110   2.641   3.103   1.471  0.1651 -0.0251 -0.0809
  115MOL   N12339111   2.775   3.118   1.530 -0.2907  0.1154  0.3458
  115MOL   C12439112   2.849   3.246   1.521 -0.1381 -0.5399 -0.0482
  115MOL   C12539113   2.987   3.222   1.583  0.0328 -0.6666 -0.2079
  115MOL   C12639114   2.980   3.078   1.629 -0.1272  0.1923 -0.3585
  115MOL   C12739115   2.852   3.020   1.583 -0.5228  0.2160 -0.0629
  115MOL   O12839116   2.822   2.901   1.603  0.3643  0.4674  0.0231
  115MOL   H12939117   2.548   2.961   1.609  0.4361  0.0837  1.4680
  115MOL   H13039118   2.543   3.129   1.666 -1.3908  0.8105 -0.5335
  115MOL   H13139119   2.610   3.203   1.440  1.2074  0.5870  0.8272
  115MOL   H13239120   2.787   3.312   1.581 -0.6313 -0.2434 -0.8745
  115MOL   H13339121   2.865   3.271   1.416  0.6225  0.7309  0.3629
  115MOL   H13439122   3.066   3.240   1.510  0.9299 -1.4036  0.5717
  115MOL   H13539123   3.015   3.286   1.667  2.0908  0.7666 -1.9230
  115MOL   H13639124   3.062   3.012   1.597 -0.2568 -0.7097  1.0944
  115MOL   H13739125   2.998   3.074   1.736  0.9530 -0.0093 -0.5359
  115MOL   C13839126   2.646   3.017   1.348 -0.1113  0.3195  0.5429
  115MOL   C13939127   2.714   3.080   1.222  0.0395  0.2143 -0.0640
  115MOL   N14039128   2.749   2.976   1.119 -0.6310 -0.5457 -0.4843
  115MOL   C14139129   2.887   2.958   1.079  0.9365 -0.1898 -0.4414
  115MOL   C14239130   2.877   2.840   0.976 -0.2059 -0.3825 -0.7130
  115MOL   C14339131   2.731   2.824   0.938  0.2808 -0.6102  0.0672
  115MOL   C14439132   2.661   2.902   1.046  0.1664  0.9235 -0.2122
  115MOL   O14539133   2.540   2.894   1.053  0.1936  0.4029 -0.1945
  115MOL   H14639134   2.542   3.000   1.321 -0.3113 -2.3194  2.7727
  115MOL   H14739135   2.701   2.925   1.368  0.6315  0.8082  0.7507
  115MOL   H14839136   2.808   3.130   1.248  0.1538  0.3517 -0.7275
  115MOL   H14939137   2.931   3.046   1.032  0.4923  0.6660  0.7216
  115MOL   H15039138   2.947   2.927   1.164 -0.4014 -1.0747  0.1914
  115MOL   H15139139   2.942   2.873   0.896  0.7359 -2.2650 -0.7618
  115MOL   H15239140   2.918   2.745   1.012  2.2745  1.2459  0.9150
  115MOL   H15339141   2.692   2.723   0.945  1.4468 -1.1190 -0.5947
  115MOL   H15439142   2.706   2.867   0.841  1.7065  1.6735  0.6723
  115MOL   C15539143   2.620   3.187   1.160  0.1037 -0.0794  0.2971
  115MOL   C15639144   2.677   3.243   1.028 -0.0519  0.0312  0.3099
  115MOL   N15739145   2.570   3.280   0.941 -0.2116  0.0149 -0.8744
  115MOL   C15839146   2.537   3.196   0.829  0.3539  0.4557  0.1747
  115MOL   C15939147   2.389   3.228   0.798 -0.3660  0.0065  0.0249
  115MOL   C16039148   2.359   3.356   0.874 -0.3982 -0.2963  0.2820
  115MOL   C16139149   2.490   3.384   0.946  0.1827 -0.5873  0.2354
  115MOL   O16239150   2.519   3.485   1.006  0.3836 -0.3094 -0.6048
  115MOL   H16339151   2.595   3.266   1.232  0.1315 -0.0665  0.2928
  115MOL   H16439152   2.524   3.138   1.148 -0.8263  2.2714 -2.5965
  115MOL   H16539153   2.742   3.172   0.977  0.4156  0.5095  0.2311
  115MOL   H16639154   2.594   3.226   0.741  0.6825  0.3583  0.3516
  115MOL   H16739155   2.561   3.090   0.835  0.8777  0.5037 -0.9147
  115MOL   H16839156   2.383   3.229   0.689  1.2378  1.7204 -0.0654
  115MOL   H16939157   2.320   3.149   0.828 -0.8975  0.6472  0.5214
  115MOL   H17039158   2.326   3.444   0.819  0.1099  0.9349  1.8942
  115MOL   H17139159   2.285   3.350   0.954 -2.5203  1.8472 -1.4537
  115MOL   C17239160   2.783   3.354   1.054  0.6174 -0.2010  0.2472
  115MOL   C17339161   2.841   3.424   0.930 -0.3002  0.1222 -0.1304
  115MOL   N17439162   2.881   3.560   0.964  0.0333  0.2662 -0.0221
  115MOL   C17539163   2.792   3.673   0.919 -0.4443  0.3433  0.1855
  115MOL   C17639164   2.843   3.789   0.988  0.2861 -0.6114  0.2180
  115MOL   C17739165   2.969   3.749   1.048 -0.1287 -0.0823 -0.2304
  115MOL   C17839166   2.979   3.605   1.043  0.7885  0.4138  0.9563
  115MOL   O17939167   3.056   3.538   1.112 -0.4799 -0.6562  0.8751
  115MOL   H18039168   2.871   3.325   1.112  0.1349 -2.0793  0.0813
  115MOL   H18139169   2.735   3.425   1.121 -0.2547 -1.9944  1.5697
  115MOL   H18239170   2.762   3.437   0.856 -0.2840 -0.1953 -0.2012
  115MOL   H18339171   2.799   3.677   0.810 -1.0320 -0.6273  0.1045
  115MOL   H18439172   2.687   3.647   0.933 -0.2890 -0.9298 -0.8836
  115MOL   H18539173   2.771   3.815   1.066 -2.0820  0.4551 -2.2234
  115MOL   H18639174   2.839   3.886   0.937 -1.5412 -0.2049  1.0831
  115MOL   H18739175   3.057   3.795   1.003  0.8677 -0.5326  1.2018
  115MOL   H18839176   2.970   3.787   1.151 -3.3050  2.5701 -1.1030
  115MOL   C18939177   2.952   3.335   0.866  0.5913  1.1934 -0.1089
  115MOL   C19039178   3.005   3.381   0.726 -0.1191 -0.0611  0.3562
  115MOL   N19139179   3.125   3.309   0.688 -0.0927  0.0590  0.1321
  115MOL   C19239180   3.130   3.166   0.679  0.2877 -0.0640 -0.4378
  115MOL   C19339181   3.274   3.124   0.658 -0.2340  0.1060 -0.3325
  115MOL   C19439182   3.344   3.253   0.620 -0.4784 -0.3310 -0.3934
  115MOL   C19539183   3.244   3.360   0.664 -1.0087 -0.0984  0.4112
  115MOL   O19639184   3.273   3.479   0.668 -0.5324 -0.7076 -0.0039
  115MOL   H19739185   2.895   3.244   0.849 -0.8407  2.0684 -0.0511
  115MOL   H19839186   3.040   3.328   0.930  2.1923  0.3314 -2.3420
  115MOL   H19939187   3.028   3.487   0.729  0.5403 -0.2385  2.2122
  115MOL   H20039188   3.092   3.119   0.770 -0.2233  1.2470  0.0252
  115MOL   H20139189   3.069   3.135   0.594  0.7832 -1.0299 -0.4460
  115MOL   H20239190   3.318   3.070   0.742 -1.0441  0.9668  0.6633
  115MOL   H20339191   3.284   3.050   0.579  0.3890  1.4754 -1.5540
  115MOL   H20439192   3.441   3.259   0.669  0.1241 -1.4387 -1.4043
  115MOL   H20539193   3.376   3.271   0.518 -0.5643 -1.8599 -0.7069
  115MOL   C20639194   2.895   3.363   0.618  0.0419  0.3015  1.0947
  115MOL   C20739195   2.931   3.414   0.480  0.4555  0.1307  1.3467
  115MOL   N20839196   2.839   3.352   0.387 -0.1768  0.1589 -0.0655
  115MOL   C20939197   2.881   3.228   0.331 -0.4100  0.1707  0.2537
  115MOL   C21039198   2.763   3.175   0.249 -0.0253  0.2037  0.1277
  115MOL   C21139199   2.664   3.287   0.240  0.5605 -0.1449 -1.0117
  115MOL   C21239200   2.718   3.390   0.344  0.3831 -0.0562 -0.1136
  115MOL   O21339201   2.651   3.486   0.382  0.4726 -0.4445  0.4543
  115MOL   H21439202   2.805   3.417   0.647  0.2737  1.1484  0.2696
  115MOL   H21539203   2.862   3.259   0.611  0.8023  0.1598 -0.8207
  115MOL   H21639204   3.031   3.382   0.451  0.9010  3.2582 -0.8793
  115MOL   H21739205   2.971   3.246   0.272 -0.6559 -1.2479 -0.5791
  115MOL   H21839206   2.894   3.169   0.422 -1.6755  0.9782  0.9703
  115MOL   H21939207   2.788   3.134   0.151 -2.4284 -0.2109 -0.3538
  115MOL   H22039208   2.703   3.096   0.295 -0.0791 -0.4023 -0.9622
  115MOL   H22139209   2.661   3.342   0.146  1.1377  1.1815 -0.2613
  115MOL   H22239210   2.561   3.267   0.270  0.6639  0.0076 -0.5550
  115MOL   C22339211   2.942   3.570   0.477 -0.3767  0.0194  0.6336
  115MOL   C22439212   3.053   3.631   0.389  0.1929 -0.1316  0.2354
  115MOL   N22539213   3.051   3.588   0.247  0.1077  0.2015 -0.2594
  115MOL   C22639214   3.165   3.521   0.194 -0.9919 -0.2895 -0.4876
  115MOL   C22739215   3.147   3.513   0.045  0.5821  0.2544 -0.7831
  115MOL   C22839216   2.993   3.536   0.023 -0.8024  0.0245 -0.6048
  115MOL   C22939217   2.948   3.596   0.155  0.1920 -0.0846 -0.4895
  115MOL   O23039218   2.839   3.645   0.174  0.6690 -0.2421  0.2696
  115MOL   H23139219   2.949   3.601   0.581  1.6402  1.3771  0.1205
  115MOL   H23239220   2.851   3.610   0.433  1.1559  2.6312 -0.2829
  115MOL   H23339221   3.149   3.600   0.432 -0.7321 -1.4983  1.3496
  115MOL   H23439222   3.253   3.584   0.198 -1.0683 -0.2591  0.8100
  115MOL   H23539223   3.184   3.419   0.228  1.8643  0.0962 -0.8009
  115MOL   H23639224   3.197   3.599   0.000 -0.0679 -0.7505 -3.5519
  115MOL   H23739225   3.171   3.420   7.899 -0.4209 -0.3614 -0.1665
  115MOL   H23839226   2.979   3.605   7.846  1.3027  2.3439  0.8927
  115MOL   H23939227   2.936   3.443   0.014  0.8813 -1.2958  1.7730
  115MOL   C24039228   3.058   3.787   0.383 -0.0697  0.4169 -0.3470
  115MOL   C24139229   3.109   3.844   0.521  0.4653  0.6739  0.2515
  115MOL   N24239230   3.250   3.827   0.551  0.2303 -0.1589 -0.2904
  115MOL   C24339231   3.291   3.835   0.690 -0.1525 -0.3856  0.4730
  115MOL   C24439232   3.444   3.844   0.677 -0.6696 -0.3674  0.0473
  115MOL   C24539233   3.480   3.788   0.545  1.2115 -0.7828  0.5251
  115MOL   C24639234   3.351   3.806   0.469 -0.6341 -0.1112  0.0895
  115MOL   O24739235   3.351   3.776   0.353  0.3456  0.1037  0.1268
  115MOL   H24839236   2.959   3.829   0.367  0.5018  1.0444 -2.3795
  115MOL   H24939237   3.117   3.818   0.297  0.4430  0.7266  0.1154
  115MOL   H25039238   3.063   3.789   0.603  1.3805  0.2209  0.4590
  115MOL   H25139239   3.252   3.914   0.754  0.9715 -0.4117  1.2015
  115MOL   H25239240   3.257   3.743   0.739 -0.9301 -0.2575  0.1843
  115MOL   H25339241   3.484   3.945   0.686  0.7947 -1.0201  1.1325
  115MOL   H25439242   3.500   3.799   0.760  0.7868  1.4813  0.1218
  115MOL   H25539243   3.570   3.832   0.502 -0.8130  2.4087 -0.5514
  115MOL   H25639244   3.499   3.681   0.555 -2.4365 -1.4014  1.7423
  115MOL   C25739245   3.072   3.989   0.543 -0.1026  0.3008  0.5762
  115MOL   C25839246   2.936   4.007   0.623  0.5293  0.9121 -0.3614
  115MOL   N25939247   2.910   4.148   0.635  0.8731 -0.2422 -0.5172
  115MOL   C26039248   2.879   4.209   0.765 -0.3520 -1.4476  0.3673
  115MOL   C26139249   2.860   4.356   0.740  0.3580 -0.2994 -0.3034
  115MOL   C26239250   2.924   4.381   0.605 -0.9765 -0.9376  0.9200
  115MOL   C26339251   2.912   4.245   0.541 -0.4727 -0.0416  0.7760
  115MOL   O26439252   2.908   4.230   0.420 -0.2315 -0.5140 -0.5871
  115MOL   H26539253   3.078   4.045   0.450  0.7787  0.8427  0.9611
  115MOL   H26639254   3.151   4.029   0.605  0.0327  0.4232  0.3255
  115MOL   H26739255   2.938   3.963   0.723 -1.3824 -0.2305 -0.8076
  115MOL   H26839256   2.785   4.169   0.803 -1.5328  2.1538  1.4342
  115MOL   H26939257   2.955   4.188   0.840  1.2856 -1.2664 -1.2246
  115MOL   H27039258   2.755   4.387   0.737  0.7059  0.8069 -2.0349
  115MOL   H27139259   2.904   4.412   0.822 -1.6993 -0.8033  1.1798
  115MOL   H27239260   2.880   4.461   0.547  0.2785 -1.1723 -0.3780
  115MOL   H27339261   3.031   4.404   0.614 -0.7410 -1.7819  0.3321
  115MOL   C27439262   2.817   3.939   0.543  0.1399  0.5197 -0.1044
  115MOL   C27539263   2.669   3.943   0.600 -0.9239 -0.5607 -0.3066
  115MOL   N27639264   2.595   4.065   0.549 -0.1600 -0.3946  0.9280
  115MOL   C27739265   2.575   4.082   0.405  0.0490 -0.6628  0.8428
  115MOL   C27839266   2.455   4.175   0.394 -0.5402 -0.0483  0.5809
  115MOL   C27939267   2.446   4.242   0.531 -0.8375 -0.4557  0.3440
  115MOL   C28039268   2.528   4.152   0.624 -0.0405  0.6168 -0.5807
  115MOL   O28139269   2.530   4.172   0.745 -0.0788  0.5383 -0.0747
  115MOL   H28239270   2.838   3.832   0.542  0.2845  0.5503 -1.0909
  115MOL   H28339271   2.813   3.965   0.437  0.1506 -0.9697 -0.4841
  115MOL   H28439272   2.683   3.957   0.708  0.3496 -1.9753 -0.2649
  115MOL   H28539273   2.662   4.135   0.366 -0.0873 -1.6751 -0.8926
  115MOL   H28639274   2.562   3.988   0.351  2.5550 -0.3069 -0.4844
  115MOL   H28739275   2.458   4.237   0.305 -0.3632 -2.1527 -0.9096
  115MOL   H28839276   2.363   4.117   0.396  0.1282 -1.1302  0.9861
  115MOL   H28939277   2.492   4.340   0.541  0.9825 -1.2687  0.1735
  115MOL   H29039278   2.344   4.242   0.570 -0.3899 -0.4023  1.5616
  115MOL   C29139279   2.595   3.813   0.566 -0.3300  0.4506  0.0117
  115MOL   C29239280   2.447   3.814   0.609  0.5050  0.5309  0.0503
  115MOL   N29339281   2.370   3.697   0.563  0.2693 -0.2746 -0.1779
  115MOL   C29439282   2.252   3.716   0.478  0.3374  0.0424  0.1776
  115MOL   C29539283   2.193   3.577   0.452  0.1365 -0.2322 -1.3018
  115MOL   C29639284   2.310   3.483   0.497  0.5536  0.2229  0.0160
  115MOL   C29739285   2.403   3.574   0.579  0.6825  0.1944 -0.1610
  115MOL   O29839286   2.498   3.526   0.644 -0.8747  0.1972 -0.3291
  115MOL   H29939287   2.648   3.730   0.612 -1.0107  1.2564  2.2912
  115MOL   H30039288   2.604   3.795   0.459 -0.9327  0.1082  0.0170
  115MOL   H30139289   2.394   3.898   0.566  0.1376  1.4748  2.2817
  115MOL   H30239290   2.187   3.793   0.518 -0.6325  0.9982 -3.0695
  115MOL   H30339291   2.284   3.764   0.385 -2.7473  1.2207 -0.3414
  115MOL   H30439292   2.109   3.572   0.521  1.2464 -0.9988  0.0190
  115MOL   H30539293   2.163   3.558   0.349 -2.1505  0.6632 -0.8036
  115MOL   H30639294   2.283   3.396   0.556  2.4547 -0.5668 -0.2377
  115MOL   H30739295   2.370   3.447   0.414 -0.5379 -0.5174 -0.4663
  115MOL   C30839296   2.429   3.835   0.765  0.3487 -0.2512 -0.1267
  115MOL   C30939297   2.287   3.836   0.824  1.0564  0.0771  0.4854
  115MOL   N31039298   2.292   3.812   0.975 -0.3884 -0.1847  0.8419
  115MOL   C31139299   2.206   3.709   1.035  0.3090 -0.1970  0.4332
  115MOL   C31239300   2.262   3.691   1.168  0.4354 -0.0374  0.0736
  115MOL   C31339301   2.349   3.805   1.201  0.6385  0.0593 -0.1306
  115MOL   C31439302   2.382   3.858   1.063  0.3107  0.1306  0.6470
  115MOL   O31539303   2.474   3.943   1.040  0.3815  0.1137  0.1814
  115MOL   H31639304   2.483   3.927   0.790 -0.7356  0.3149  0.1717
  115MOL   H31739305   2.486   3.755   0.812  0.6633  0.1937  0.2496
  115MOL   H31839306   2.232   3.747   0.792  1.7388  0.5703 -2.1536
  115MOL   H31939307   2.102   3.742   1.034  0.7207  1.2316  2.4430
  115MOL   H32039308   2.211   3.623   0.968  1.7241 -0.8159  1.3288
  115MOL   H32139309   2.192   3.669   1.249  0.1337 -2.4034 -0.8058
  115MOL   H32239310   2.326   3.605   1.153 -0.2987 -0.2921 -1.7113
  115MOL   H32339311   2.289   3.891   1.232  0.5310 -0.6512  1.7284
  115MOL   H32439312   2.442   3.783   1.254  0.9166  0.5885 -0.3905
  115MOL   C32539313   2.210   3.968   0.790  0.0896 -0.0742  0.2477
  115MOL   C32639314   2.066   3.994   0.853 -0.2194 -1.0333  0.0537
  115MOL   N32739315   2.030   4.133   0.847 -0.7150 -0.0167 -0.2563
  115MOL   C32839316   2.005   4.210   0.970 -0.0332 -0.4890  0.1809
  115MOL   C32939317   1.988   4.354   0.926  0.4601  0.8174 -0.3003
  115MOL   C33039318   1.989   4.351   0.773 -0.5413  0.6622  0.1361
  115MOL   C33139319   2.010   4.207   0.734  0.3457  0.8343  0.5613
  115MOL   O33239320   2.005   4.168   0.617 -0.2424  0.0528  1.0448
  115MOL   H33339321   2.205   3.993   0.684 -3.0891  0.4008  0.4618
  115MOL   H33439322   2.264   4.051   0.835  0.7814 -0.7547  0.6807
  115MOL   H33539323   2.065   3.976   0.960 -1.2190 -2.0303 -0.1061
  115MOL   H33639324   1.919   4.163   1.017  0.5409 -3.2764 -1.4226
  115MOL   H33739325   2.095   4.201   1.030  0.1822  0.9207  0.0664
  115MOL   H33839326   1.891   4.378   0.970 -0.5442 -0.6687 -1.6461
  115MOL   H33939327   2.069   4.419   0.957 -0.2030  1.3997  0.2103
  115MOL   H34039328   1.895   4.390   0.733 -0.2100  2.9631  1.4610
  115MOL   H34139329   2.062   4.421   0.732 -0.4253  1.3261  1.4251
  115MOL   H34239330   1.987   3.928   0.817  0.2356 -1.6117  0.1153
  116MOL     C139331   0.257   1.303   2.969 -0.2712 -0.5522  0.3507
  116MOL     C239332   0.367   1.383   3.033  0.0098 -0.6887 -0.2806
  116MOL     N339333   0.392   1.499   2.946 -0.5943  0.8219  0.2782
  116MOL     C439334   0.528   1.534   2.914 -0.1353  0.7252 -0.6163
  116MOL     C539335   0.526   1.666   2.833  0.5899  0.0051 -0.0413
  116MOL     C639336   0.388   1.716   2.835  0.0745  0.0193 -0.1623
  116MOL     C739337   0.314   1.600   2.906  0.1181 -0.0461 -0.3303
  116MOL     O839338   0.195   1.608   2.938  0.5473 -0.3114 -0.5872
  116MOL     H939339   0.244   1.207   3.020  1.0202 -0.9244 -0.0147
  116MOL    H1039340   0.169   1.367   2.966  0.1509  0.0583  0.9343
  116MOL    H1139341   0.453   1.317   3.044  1.0078  0.1097 -2.9059
  116MOL    H1239342   0.592   1.537   3.003 -0.3206  0.0217 -0.4543
  116MOL    H1339343   0.573   1.457   2.852  0.3531  0.0883  0.5216
  116MOL    H1439344   0.598   1.736   2.874 -1.0223  1.3063  0.5989
  116MOL    H1539345   0.570   1.636   2.738  0.7573  0.4157 -0.0921
  116MOL    H1639346   0.376   1.807   2.894 -0.7512  0.4463 -0.9766
  116MOL    H1739347   0.351   1.726   2.733  0.7389 -1.4539 -0.5600
  116MOL    H1839348   0.283   1.265   2.870 -1.3566 -1.2776  0.3301
  116MOL    C1939349   0.325   1.441   3.173 -0.3223  0.3612 -0.1693
  116MOL    C2039350   0.321   1.337   3.284 -0.2760 -0.1178 -0.3997
  116MOL    N2139351   0.423   1.228   3.281 -0.5070 -0.0440  0.7278
  116MOL    C2239352   0.383   1.088   3.295  0.3567  0.2293 -0.5740
  116MOL    C2339353   0.510   1.016   3.323  0.1710 -0.5126 -0.4677
  116MOL    C2439354   0.627   1.111   3.330  0.2447 -0.5413 -0.7150
  116MOL    C2539355   0.556   1.239   3.288 -0.1588  0.2150  0.1199
  116MOL    O2639356   0.621   1.345   3.273  0.4135  0.0187  0.5310
  116MOL    H2739357   0.229   1.489   3.155  0.8794  2.5162 -1.0701
  116MOL    H2839358   0.392   1.521   3.203  0.8640 -0.4976 -0.5078
  116MOL    H2939359   0.229   1.279   3.281 -0.2204 -0.2188 -0.1789
  116MOL    H3039360   0.314   1.078   3.378  1.3156 -1.2415  0.0624
  116MOL    H3139361   0.334   1.046   3.207 -1.8324  2.9707 -0.7277
  116MOL    H3239362   0.518   0.953   3.412 -1.4686 -1.3532 -0.9037
  116MOL    H3339363   0.531   0.953   3.236  0.0315  1.0170 -1.6428
  116MOL    H3439364   0.658   1.127   3.434 -2.4412  1.0677 -0.1145
  116MOL    H3539365   0.712   1.077   3.271 -0.5538 -0.7208 -1.7750
  116MOL    C3639366   0.326   1.403   3.425 -0.7420  0.1210  0.2203
  116MOL    C3739367   0.232   1.519   3.452  0.2462  0.0106 -0.2313
  116MOL    N3839368   0.094   1.477   3.417 -0.0012 -0.0823  0.1615
  116MOL    C3939369   0.016   1.572   3.340 -0.3200  0.4935 -0.8897
  116MOL    C4039370   7.789   1.510   3.309  0.0101  0.7299 -0.1585
  116MOL    C4139371   7.792   1.379   3.394 -0.2661  0.1965 -0.0523
  116MOL    C4239372   0.025   1.371   3.457 -0.1185 -0.3505  0.3627
  116MOL    O4339373   0.066   1.282   3.532  0.0370  0.5172 -0.1782
  116MOL    H4439374   0.427   1.439   3.442 -0.7445  1.2912 -2.0051
  116MOL    H4539375   0.310   1.321   3.496  1.1972  0.0233  0.5682
  116MOL    H4639376   0.250   1.598   3.379 -0.6983 -1.1524 -1.7570
  116MOL    H4739377   7.900   1.649   3.414  3.2173  1.3311 -0.6067
  116MOL    H4839378   0.064   1.612   3.251  0.3145 -0.2900 -0.8985
  116MOL    H4939379   7.695   1.560   3.333  0.3384  0.7095  1.1676
  116MOL    H5039380   7.777   1.488   3.203  1.3797 -2.3709  0.2874
  116MOL    H5139381   7.715   1.375   3.470 -1.7949 -0.5844 -1.6035
  116MOL    H5239382   7.777   1.288   3.335 -1.1795  0.0915  0.3256
  116MOL    C5339383   0.231   1.577   3.598 -0.1544  0.4823 -0.0833
  116MOL    C5439384   0.358   1.660   3.621 -0.5704 -0.8634 -0.5738
  116MOL    N5539385   0.362   1.776   3.526  0.1325 -0.1317 -0.2294
  116MOL    C5639386   0.483   1.806   3.451 -0.6254  0.4315 -0.7854
  116MOL    C5739387   0.438   1.906   3.350  0.0104  0.0978 -0.3857
  116MOL    C5839388   0.301   1.957   3.394  1.0499  0.3083 -0.2137
  116MOL    C5939389   0.269   1.867   3.510  0.4654  0.3056 -0.1875
  116MOL    O6039390   0.170   1.890   3.580 -0.4350 -0.6202 -0.0246
  116MOL    H6139391   0.243   1.493   3.667 -1.6747  0.4171  0.1147
  116MOL    H6239392   0.141   1.636   3.615  0.0305  0.9129 -0.6055
  116MOL    H6339393   0.446   1.603   3.592  1.5360  1.8411  0.2348
  116MOL    H6439394   0.561   1.847   3.515  0.1807 -0.5125 -1.1492
  116MOL    H6539395   0.531   1.720   3.404  1.5012  1.7828 -1.1384
  116MOL    H6639396   0.502   1.993   3.352 -1.1733  0.9561  0.6845
  116MOL    H6739397   0.438   1.851   3.256  0.1379  0.0246 -0.3435
  116MOL    H6839398   0.308   2.063   3.418 -0.3305  0.0547  1.3819
  116MOL    H6939399   0.219   1.936   3.325 -0.3391  0.3541  1.4067
  116MOL    C7039400   0.383   1.698   3.768 -0.4793 -0.1496  0.3702
  116MOL    C7139401   0.412   1.584   3.868 -0.2404  0.1023  0.3635
  116MOL    N7239402   0.502   1.484   3.807  0.5232  0.8829 -0.0940
  116MOL    C7339403   0.477   1.342   3.821  0.2728  0.1077 -0.1352
  116MOL    C7439404   0.589   1.273   3.743 -0.0286 -0.1894 -0.5387
  116MOL    C7539405   0.707   1.380   3.745  0.5375  0.0705 -0.1515
  116MOL    C7639406   0.622   1.505   3.760 -0.1919  0.6607 -0.5701
  116MOL    O7739407   0.678   1.617   3.747 -0.3764  0.2603 -0.1612
  116MOL    H7839408   0.323   1.777   3.813  1.2513 -0.8510  4.1274
  116MOL    H7939409   0.475   1.756   3.766 -0.6726  0.1451 -0.1924
  116MOL    H8039410   0.318   1.536   3.897  0.1063 -0.9691 -0.2618
  116MOL    H8139411   0.474   1.325   3.929  1.4443  1.1978  0.0854
  116MOL    H8239412   0.379   1.315   3.783  0.3207  0.2864 -0.3839
  116MOL    H8339413   0.617   1.175   3.782 -0.0706  0.4223  1.0234
  116MOL    H8439414   0.562   1.255   3.638  0.8622 -2.7781 -0.3654
  116MOL    H8539415   0.769   1.355   3.831 -1.4062 -1.3442  0.8750
  116MOL    H8639416   0.767   1.361   3.656 -1.0521  3.0605 -1.9544
  116MOL    C8739417   0.472   1.631   4.003  0.2774 -0.2031 -0.6793
  116MOL    C8839418   0.375   1.719   4.092  0.1620 -0.0365 -1.0161
  116MOL    N8939419   0.259   1.652   4.139  0.5465  0.0515 -0.1251
  116MOL    C9039420   0.133   1.697   4.089  0.6710  0.2245  0.2880
  116MOL    C9139421   0.037   1.578   4.116  0.1605 -0.3122  0.6653
  116MOL    C9239422   0.115   1.474   4.198 -0.1518  0.0595 -0.3054
  116MOL    C9339423   0.250   1.534   4.207  0.6413  0.0108 -0.2438
  116MOL    O9439424   0.347   1.490   4.274  0.6626  0.6386  0.1504
  116MOL    H9539425   0.566   1.683   3.985 -0.1161  0.1555 -1.7192
  116MOL    H9639426   0.503   1.546   4.064  2.1080  0.5165 -0.5670
  116MOL    H9739427   0.347   1.797   4.021 -0.0842 -0.3197 -1.2362
  116MOL    H9839428   0.095   1.789   4.133 -2.1340 -0.8430  0.2316
  116MOL    H9939429   0.149   1.714   3.983  1.1658 -0.5601  0.2334
  116MOL   H10039430   7.854   1.610   4.171 -0.9495  1.3756 -2.0089
  116MOL   H10139431   0.006   1.528   4.024  0.2414  0.4439  0.2195
  116MOL   H10239432   0.072   1.453   4.296  1.5706  0.3797  0.5402
  116MOL   H10339433   0.119   1.380   4.143  1.7060 -2.1078  3.3511
  116MOL   C10439434   0.463   1.783   4.199  0.1089  0.5224 -0.6352
  116MOL   C10539435   0.398   1.841   4.327 -0.5706  0.0917  0.2407
  116MOL   N10639436   0.500   1.900   4.415 -0.3275  0.3955  0.0378
  116MOL   C10739437   0.508   1.847   4.548  0.5359 -0.1082  0.8894
  116MOL   C10839438   0.614   1.930   4.620 -0.0898  0.3981  0.0164
  116MOL   C10939439   0.650   2.046   4.523  0.5443 -0.1196 -0.0480
  116MOL   C11039440   0.574   2.011   4.398 -0.4086 -0.0216 -0.3295
  116MOL   O11139441   0.581   2.079   4.295  0.3058 -0.0942 -0.1054
  116MOL   H11239442   0.519   1.861   4.147  1.9561 -0.6947 -0.5541
  116MOL   H11339443   0.542   1.719   4.239 -0.2208  1.4039  1.4715
  116MOL   H11439444   0.354   1.763   4.390  1.7504  0.5677  2.5791
  116MOL   H11539445   0.411   1.854   4.598 -1.2964 -1.0396 -2.4195
  116MOL   H11639446   0.525   1.740   4.550 -2.1654 -0.5721  0.7926
  116MOL   H11739447   0.580   1.965   4.718 -1.8433 -0.0327 -0.4170
  116MOL   H11839448   0.701   1.871   4.645  0.0602  0.8203  0.5059
  116MOL   H11939449   0.756   2.046   4.497  0.3416 -1.4091 -0.9472
  116MOL   H12039450   0.633   2.146   4.563  4.1788  0.9587 -1.0590
  116MOL   C12139451   0.292   1.942   4.297  0.3732 -0.2263  0.1523
  116MOL   C12239452   0.182   1.966   4.404  0.5121  0.4747  0.4172
  116MOL   N12339453   0.127   2.103   4.389  0.3498  0.4292  0.0817
  116MOL   C12439454   0.167   2.215   4.470 -0.2037 -0.0456  0.3428
  116MOL   C12539455   0.085   2.337   4.421 -0.0312 -0.2794  1.1069
  116MOL   C12639456   0.028   2.296   4.286 -0.5170  0.1611 -0.8380
  116MOL   C12739457   0.059   2.145   4.278  0.0166  0.4907 -0.1733
  116MOL   O12839458   0.019   2.076   4.189 -0.1037  0.3390  0.0826
  116MOL   H12939459   0.234   1.925   4.207 -2.3501  1.7594  1.4569
  116MOL   H13039460   0.344   2.036   4.276 -3.0892  1.6527 -0.3787
  116MOL   H13139461   0.232   1.969   4.501 -0.2125 -1.4253  0.8736
  116MOL   H13239462   0.276   2.222   4.466 -0.2120  0.3311  0.7180
  116MOL   H13339463   0.136   2.202   4.573  0.1813 -2.3725  0.1954
  116MOL   H13439464   0.006   2.362   4.491 -1.0656 -0.7619  0.1393
  116MOL   H13539465   0.145   2.427   4.407  1.8021 -1.9039 -2.4412
  116MOL   H13639466   7.829   2.317   4.265 -1.1626 -0.6113  1.4767
  116MOL   H13739467   0.085   2.348   4.209  1.2747  0.2013  0.4918
  116MOL   C13839468   0.082   1.849   4.403  0.2017  0.0323 -0.0080
  116MOL   C13939469   7.900   1.841   4.526  0.2919 -0.1808 -0.0548
  116MOL   N14039470   7.806   1.958   4.540 -0.4647  0.2634  0.0086
  116MOL   C14139471   7.805   2.025   4.669  0.7593  0.2788  1.0413
  116MOL   C14239472   7.714   2.150   4.646  1.0460  0.4540 -0.1186
  116MOL   C14339473   7.643   2.122   4.511  0.7172  0.5940  0.3084
  116MOL   C14439474   7.712   2.001   4.462  0.5002  0.1206  0.1216
  116MOL   O14539475   7.678   1.944   4.356  0.2544 -0.2467  0.0923
  116MOL   H14639476   0.128   1.751   4.394 -1.0978 -0.3651 -2.7633
  116MOL   H14739477   0.018   1.864   4.316 -0.0776  1.0054  0.3545
  116MOL   H14839478   0.067   1.846   4.607  1.9125 -0.5318 -1.4672
  116MOL   H14939479   7.775   1.958   4.749  2.5991  0.6977  2.1167
  116MOL   H15039480   7.905   2.055   4.700  1.2467 -2.0785  1.7974
  116MOL   H15139481   7.647   2.158   4.732  0.7535 -0.2828 -0.2736
  116MOL   H15239482   7.766   2.245   4.645  0.1755  0.9390 -0.0886
  116MOL   H15339483   7.658   2.202   4.439  0.5125  0.6483  0.3244
  116MOL   H15439484   7.538   2.093   4.512  0.2486  2.1185 -1.7421
  116MOL   C15539485   7.815   1.710   4.527 -0.1657 -0.3673  0.7324
  116MOL   C15639486   7.876   1.580   4.586 -0.1155 -0.5835 -0.8255
  116MOL   N15739487   0.021   1.607   4.720 -0.9595  0.9237  0.2496
  116MOL   C15839488   0.166   1.613   4.743  0.2910  0.1802  0.0813
  116MOL   C15939489   0.194   1.652   4.891 -0.6980  0.7052  0.4208
  116MOL   C16039490   0.052   1.677   4.945 -0.3224  0.0587 -0.4190
  116MOL   C16139491   7.866   1.659   4.829 -0.2793  0.0012 -0.1062
  116MOL   O16239492   7.745   1.695   4.821 -0.2734  0.7694 -0.3920
  116MOL   H16339493   7.800   1.678   4.423 -1.6365 -0.8354  1.0703
  116MOL   H16439494   7.718   1.732   4.571 -1.0652 -0.1442 -1.3025
  116MOL   H16539495   0.054   1.548   4.525  1.0950  1.1155 -0.0935
  116MOL   H16639496   0.219   1.521   4.719 -1.6786 -0.7639 -0.7691
  116MOL   H16739497   0.214   1.693   4.687  4.3382 -0.9761  1.6851
  116MOL   H16839498   0.239   1.569   4.946 -3.0469 -0.9084 -0.0330
  116MOL   H16939499   0.265   1.735   4.896  0.6388 -0.4656  1.4552
  116MOL   H17039500   0.014   1.613   5.025 -1.7132  0.1897 -0.9669
  116MOL   H17139501   0.044   1.782   4.971 -2.1455 -0.1521 -0.0529
  116MOL   C17239502   7.767   1.472   4.583  0.8313  0.3288  0.2178
  116MOL   C17339503   7.794   1.344   4.664 -0.5366 -0.1726 -0.7784
  116MOL   N17439504   7.670   1.267   4.685 -0.2058  0.4712 -0.2368
  116MOL   C17539505   7.583   1.297   4.801  0.5175  0.4549  0.2770
  116MOL   C17639506   7.439   1.243   4.780  0.4013 -0.1060 -0.2904
  116MOL   C17739507   7.452   1.172   4.643 -0.2965  0.8681  0.0215
  116MOL   C17839508   7.596   1.196   4.598  0.0714 -0.2166  0.3330
  116MOL   O17939509   7.630   1.159   4.489  0.3271  0.1415 -0.4803
  116MOL   H18039510   7.745   1.450   4.479  2.1191  0.5161 -0.1045
  116MOL   H18139511   7.679   1.512   4.632  0.7928 -1.6835  1.8527
  116MOL   H18239512   7.839   1.365   4.761 -1.7110 -0.0986 -0.2329
  116MOL   H18339513   7.621   1.246   4.890 -0.7727  1.4414  1.4106
  116MOL   H18439514   7.575   1.403   4.825 -0.8437  0.6279 -0.8732
  116MOL   H18539515   7.374   1.330   4.776  0.7910  0.1086 -2.0124
  116MOL   H18639516   7.398   1.176   4.856 -3.2220  2.7700  0.4333
  116MOL   H18739517   7.436   1.066   4.664 -2.8228  1.2377  0.1703
  116MOL   H18839518   7.378   1.206   4.571  0.0011  0.5874 -0.4148
  116MOL   C18939519   7.897   1.252   4.582  0.3934 -0.0001 -0.1937
  116MOL   C19039520   0.026   1.129   4.656  0.1973  0.5522 -0.2974
  116MOL   N19139521   0.083   1.025   4.567 -0.7750 -0.3770  0.3191
  116MOL   C19239522   0.027   0.892   4.577 -0.2186  0.3102 -0.3196
  116MOL   C19339523   0.101   0.812   4.462 -0.2888 -0.4147  0.4425
  116MOL   C19439524   0.214   0.903   4.407 -0.0421  0.8193  0.2230
  116MOL   C19539525   0.182   1.039   4.471 -0.3310  0.3970  0.6694
  116MOL   O19639526   0.226   1.147   4.426  0.0734 -0.2628  0.1429
  116MOL   H19739527   0.084   1.302   4.553  1.3576 -1.9185 -0.5195
  116MOL   H19839528   7.863   1.223   4.482  0.7945  2.4653 -1.0802
  116MOL   H19939529   7.840   1.093   4.701  1.6326 -1.9343  0.7751
  116MOL   H20039530   0.041   0.851   4.676 -0.6153  0.2423 -0.2928
  116MOL   H20139531   7.825   0.890   4.564 -0.0782 -1.3495 -1.3872
  116MOL   H20239532   0.126   0.710   4.488 -1.6938 -0.6220  1.0488
  116MOL   H20339533   0.017   0.800   4.393 -0.1029 -1.8340  0.4528
  116MOL   H20439534   0.315   0.875   4.437 -0.3728  1.8016  2.4318
  116MOL   H20539535   0.202   0.917   4.300  1.9066 -0.6108 -0.2021
  116MOL   C20639536   0.124   1.162   4.773 -0.2592 -0.1062 -0.8216
  116MOL   C20739537   0.062   1.133   4.915  0.3532  0.3832  0.1805
  116MOL   N20839538   0.049   0.990   4.937 -0.0971  0.0346  0.4716
  116MOL   C20939539   0.161   0.907   4.958  0.0846  0.6406  0.1080
  116MOL   C21039540   0.101   0.761   4.958 -0.0487 -0.1104  0.0601
  116MOL   C21139541   7.863   0.775   4.967  0.4827 -0.8876 -0.9584
  116MOL   C21239542   7.836   0.921   4.944 -0.8318 -0.2096 -0.4931
  116MOL   O21339543   7.725   0.968   4.941 -0.5374 -0.7849  0.2999
  116MOL   H21439544   0.154   1.266   4.760  0.6613 -0.0745  1.3188
  116MOL   H21539545   0.226   1.124   4.784  0.1886  1.6028  1.3861
  116MOL   H21639546   7.869   1.179   4.911  0.5807  0.9053  0.5424
  116MOL   H21739547   0.239   0.924   4.885  0.8655  1.2083  1.0664
  116MOL   H21839548   0.208   0.916   5.056 -1.9203 -2.2654  1.4319
  116MOL   H21939549   0.134   0.718   4.863  1.1420 -1.0539  0.8768
  116MOL   H22039550   0.133   0.689   5.034  1.3372  0.3274 -0.0805
  116MOL   H22139551   7.807   0.731   4.884 -1.8423  2.0057 -1.0189
  116MOL   H22239552   7.796   0.756   5.052  0.5476  0.6843 -0.5452
  116MOL   C22339553   0.125   1.199   5.039  0.1037  0.2375  0.2750
  116MOL   C22439554   0.042   1.201   5.168  0.6676  0.3333  0.0239
  116MOL   N22539555   0.113   1.239   5.288 -0.4265  0.1707 -0.2430
  116MOL   C22639556   0.120   1.146   5.405 -0.4090 -0.4113 -0.1234
  116MOL   C22739557   0.190   1.229   5.514  0.2042  0.0482 -0.5936
  116MOL   C22839558   0.222   1.372   5.452  0.1817 -0.3629  0.5846
  116MOL   C22939559   0.177   1.358   5.306 -0.3640  0.3363  0.6256
  116MOL   O23039560   0.188   1.444   5.218  0.0657  0.3320  0.3284
  116MOL   H23139561   0.152   1.298   5.002 -1.0549  1.5395  2.8365
  116MOL   H23239562   0.221   1.151   5.051 -0.1046 -0.1839  0.2533
  116MOL   H23339563   0.016   1.099   5.197 -1.0051  0.7252 -0.0312
  116MOL   H23439564   0.017   1.125   5.430 -0.8510  2.0576  0.2965
  116MOL   H23539565   0.178   1.061   5.369  0.0433 -0.4024  0.5665
  116MOL   H23639566   0.126   1.231   5.602  1.6231 -1.1782  0.5079
  116MOL   H23739567   0.291   1.194   5.537  0.2491 -1.5864 -3.0387
  116MOL   H23839568   0.164   1.449   5.503  2.8911  1.1823  1.3771
  116MOL   H23939569   0.327   1.399   5.444  0.1277 -0.4404 -0.5405
  116MOL   C24039570   7.817   1.292   5.148  0.3750 -0.4743 -0.7031
  116MOL   C24139571   7.718   1.308   5.267 -0.3326 -0.2026  0.2894
  116MOL   N24239572   7.732   1.438   5.330  0.1327 -0.2578  0.0494
  116MOL   C24339573   7.738   1.450   5.478 -0.2793  0.6461 -0.5147
  116MOL   C24439574   7.716   1.597   5.512 -0.4202 -0.1549  0.3221
  116MOL   C24539575   7.715   1.672   5.376 -1.1506  0.7846  0.2709
  116MOL   C24639576   7.710   1.558   5.278  0.1927 -0.3045  0.6378
  116MOL   O24739577   7.694   1.582   5.156  0.7873  0.5080 -0.2933
  116MOL   H24839578   7.763   1.234   5.073  0.2252  0.2008 -1.1268
  116MOL   H24939579   7.833   1.385   5.094 -0.5223  0.2253  0.2192
  116MOL   H25039580   7.763   1.232   5.331  3.4569 -0.6557 -2.7164
  116MOL   H25139581   7.669   1.381   5.529  1.2547  0.1858  0.9927
  116MOL   H25239582   7.834   1.418   5.519 -0.0550 -0.8302 -2.1248
  116MOL   H25339583   7.617   1.590   5.558 -1.1058 -1.3066 -1.2710
  116MOL   H25439584   7.786   1.620   5.592  0.5986 -0.5487 -0.4551
  116MOL   H25539585   7.625   1.732   5.371 -1.4602  0.3053 -0.0173
  116MOL   H25639586   7.802   1.732   5.351 -1.5747  1.6230  0.7977
  116MOL   C25739587   7.570   1.281   5.228 -0.7707  0.1068 -0.7915
  116MOL   C25839588   7.534   1.135   5.205  0.1371 -0.5906  0.5711
  116MOL   N25939589   7.568   1.046   5.313  0.3343 -0.5558 -0.2132
  116MOL   C26039590   7.648   0.929   5.289 -0.1514  0.0117  0.2466
  116MOL   C26139591   7.665   0.866   5.425 -0.2503  0.2674 -0.4938
  116MOL   C26239592   7.581   0.948   5.528 -0.5681 -0.0733 -0.2700
  116MOL   C26339593   7.537   1.065   5.443 -0.1321 -0.4271 -0.6025
  116MOL   O26439594   7.469   1.159   5.488 -0.2836  0.3847 -0.6769
  116MOL   H26539595   7.556   1.346   5.142 -0.4434 -0.8800 -1.5938
  116MOL   H26639596   7.511   1.326   5.308 -1.4094 -1.5015 -0.3248
  116MOL   H26739597   7.590   1.108   5.115 -1.1505  0.4102 -0.5490
  116MOL   H26839598   7.580   0.860   5.238 -2.7755  1.6358  1.4598
  116MOL   H26939599   7.742   0.948   5.237 -0.2431  0.3085  0.1918
  116MOL   H27039600   7.634   0.762   5.427  0.5850  0.0265  0.9807
  116MOL   H27139601   7.771   0.857   5.451 -0.6219  0.1263  0.9881
  116MOL   H27239602   7.504   0.881   5.565 -0.7540  0.1024 -0.3428
  116MOL   H27339603   7.652   0.982   5.604  2.2131 -0.5384 -2.5808
  116MOL   C27439604   7.380   1.125   5.164 -0.0511 -0.5743 -0.1680
  116MOL   C27539605   7.326   0.971   5.140 -0.0340  0.8132 -0.5598
  116MOL   N27639606   7.178   0.976   5.145 -0.4043  0.2648 -0.3710
  116MOL   C27739607   7.104   0.943   5.266  0.2109  0.0070 -0.5070
  116MOL   C27839608   6.966   0.998   5.239 -0.3690 -0.4304  0.3650
  116MOL   C27939609   6.954   0.998   5.083 -0.1124 -0.2969  0.4777
  116MOL   C28039610   7.097   1.002   5.041  0.8238 -0.0659  0.0823
  116MOL   O28139611   7.126   1.027   4.923  0.6204  0.4675  0.2157
  116MOL   H28239612   7.346   1.191   5.083 -0.7353 -1.8300 -0.9163
  116MOL   H28339613   7.322   1.164   5.248 -1.4194 -1.3379 -0.7523
  116MOL   H28439614   7.363   0.908   5.222  1.3851  1.4606 -0.6867
  116MOL   H28539615   7.106   0.836   5.288 -1.6051 -0.1789 -1.1551
  116MOL   H28639616   7.165   0.994   5.341  2.0398  0.4758 -2.2699
  116MOL   H28739617   6.879   0.951   5.284 -0.5597  2.4558  3.2486
  116MOL   H28839618   6.979   1.102   5.270 -0.3361 -1.0796  2.5567
  116MOL   H28939619   6.924   0.896   5.058  2.1785 -1.2051  1.2909
  116MOL   H29039620   6.889   1.073   5.037  0.7346 -0.3577 -0.8539
  116MOL   C29139621   7.375   0.886   5.022  0.5450 -1.2675  0.2764
  116MOL   C29239622   7.321   0.740   5.006 -0.2440  0.7781 -0.1274
  116MOL   N29339623   7.351   0.690   4.872  0.0648  0.2949  0.6898
  116MOL   C29439624   7.243   0.692   4.772 -0.7312  0.2096  0.2438
  116MOL   C29539625   7.309   0.653   4.637 -0.0466 -0.2777  0.8323
  116MOL   C29639626   7.454   0.606   4.671 -0.6680  0.9914 -0.1369
  116MOL   C29739627   7.465   0.640   4.820 -0.1822  0.1462 -0.7144
  116MOL   O29839628   7.568   0.620   4.886  0.3133  0.2428  0.1276
  116MOL   H29939629   7.484   0.888   5.027  0.4922  1.1565  1.5739
  116MOL   H30039630   7.349   0.939   4.930 -0.1304 -0.0362  1.1546
  116MOL   H30139631   7.212   0.738   5.007 -0.2888 -2.3967 -2.9579
  116MOL   H30239632   7.179   0.612   4.807 -1.0252  0.4317  0.2222
  116MOL   H30339633   7.189   0.787   4.781 -0.3367  0.7250 -2.2914
  116MOL   H30439634   7.255   0.580   4.576  1.0763  0.3333 -0.9108
  116MOL   H30539635   7.331   0.734   4.568  2.3817 -1.3311  0.3216
  116MOL   H30639636   7.471   0.499   4.659 -2.5451  0.7843 -1.1024
  116MOL   H30739637   7.527   0.668   4.618  1.2915  0.0257  1.3644
  116MOL   C30839638   7.372   0.645   5.124  0.6135  0.0578  1.4873
  116MOL   C30939639   7.324   0.504   5.120  0.6212 -0.0052 -0.2532
  116MOL   N31039640   7.409   0.411   5.198  0.0961  0.5551 -0.3341
  116MOL   C31139641   7.511   0.335   5.120 -0.2987 -0.3162 -0.2622
  116MOL   C31239642   7.583   0.246   5.224 -0.1871 -0.2396 -0.6591
  116MOL   C31339643   7.501   0.258   5.353  1.2086  0.4672 -0.3196
  116MOL   C31439644   7.401   0.366   5.321  1.0131 -0.1352 -0.2391
  116MOL   O31539645   7.340   0.419   5.411 -0.5074  0.1970  0.3197
  116MOL   H31639646   7.342   0.678   5.223 -0.2124 -0.2388  1.3321
  116MOL   H31739647   7.481   0.634   5.120  0.5094 -0.4020 -0.3050
  116MOL   H31839648   7.349   0.481   5.016  4.4048 -0.7942  0.7529
  116MOL   H31939649   7.462   0.273   5.046 -3.4927 -0.3996  1.8279
  116MOL   H32039650   7.576   0.403   5.064 -1.2612  1.2726  0.5013
  116MOL   H32139651   7.591   0.142   5.192 -0.8952 -0.3204 -0.5955
  116MOL   H32239652   7.684   0.285   5.231 -0.3673  0.5273 -2.1841
  116MOL   H32339653   7.453   0.166   5.384  0.3541  2.0056  3.2548
  116MOL   H32439654   7.566   0.290   5.434 -0.0986  1.1863  0.4678
  116MOL   C32539655   7.172   0.485   5.164 -0.4461  0.6635 -0.4869
  116MOL   C32639656   7.115   0.351   5.112 -0.0002  0.0924 -0.1343
  116MOL   N32739657   6.973   0.310   5.139  0.5473  0.2828 -0.0451
  116MOL   C32839658   6.934   0.172   5.179 -0.1045  0.3594  0.4583
  116MOL   C32939659   6.787   0.152   5.149 -0.0147 -0.1297 -0.6989
  116MOL   C33039660   6.744   0.292   5.115 -0.7681 -0.2932  0.3457
  116MOL   C33139661   6.868   0.368   5.074 -0.6371  0.1059  0.1813
  116MOL   O33239662   6.870   0.467   5.003 -0.0097  0.2120 -0.2347
  116MOL   H33339663   7.117   0.567   5.118  0.6518  0.7045 -1.7676
  116MOL   H33439664   7.154   0.501   5.270  1.4556 -0.1981 -0.0105
  116MOL   H33539665   7.183   0.273   5.147  0.3120 -0.2015 -1.3755
  116MOL   H33639666   6.995   0.095   5.131 -2.0595 -0.3044 -1.0474
  116MOL   H33739667   6.956   0.161   5.285  2.8560  1.5036  0.0261
  116MOL   H33839668   6.768   0.074   5.075  1.4812 -0.9309 -0.2674
  116MOL   H33939669   6.735   0.125   5.242 -0.8135 -0.5328 -1.2547
  116MOL   H34039670   6.659   0.303   5.048 -0.7216 -0.5352  0.2477
  116MOL   H34139671   6.708   0.332   5.209  4.1032  0.1685  2.1628
  116MOL   H34239672   7.127   0.350   5.004  2.0692 -1.7679  0.0716
  117MOL     C139673   0.598   4.059   5.343 -0.3003 -0.3143 -0.2545
  117MOL     C239674   0.639   4.049   5.492  0.6291  0.6202 -0.1899
  117MOL     N339675   0.718   4.172   5.530  0.0249  0.6256  0.2925
  117MOL     C439676   0.865   4.167   5.519  0.9556  0.7754 -0.0226
  117MOL     C539677   0.905   4.262   5.629  0.0557 -0.0502 -0.2200
  117MOL     C639678   0.788   4.348   5.666  0.1448 -0.2985  0.2822
  117MOL     C739679   0.674   4.281   5.597 -0.2980 -0.3316 -0.4715
  117MOL     O839680   0.558   4.307   5.623 -0.4724 -0.3190  0.4915
  117MOL     H939681   0.516   4.124   5.313  0.2369 -0.1644 -1.4432
  117MOL    H1039682   0.678   4.069   5.269 -0.7997 -1.5817 -0.9798
  117MOL    H1139683   0.708   3.965   5.494 -1.6232 -1.3077 -0.0206
  117MOL    H1239684   0.908   4.067   5.529  0.2233  0.1885 -2.3138
  117MOL    H1339685   0.903   4.205   5.424 -2.2985  4.3704  0.0145
  117MOL    H1439686   0.926   4.198   5.715 -2.1007 -1.1285 -0.4634
  117MOL    H1539687   0.992   4.321   5.602 -1.2846  3.2043  2.0689
  117MOL    H1639688   0.772   4.341   5.774 -0.2006 -1.1092  0.1809
  117MOL    H1739689   0.809   4.451   5.639 -0.2476 -0.5887 -1.1349
  117MOL    H1839690   0.555   3.966   5.308 -0.3643 -0.2114 -0.4533
  117MOL    C1939691   0.520   4.004   5.584 -0.2452  0.0771  0.2351
  117MOL    C2039692   0.551   4.009   5.734 -0.1422  0.6770  0.1733
  117MOL    N2139693   0.435   4.019   5.816  0.2106  0.0224  0.6609
  117MOL    C2239694   0.397   4.126   5.903 -0.4795 -0.4055  0.2342
  117MOL    C2339695   0.260   4.093   5.959  0.0058 -1.1336  0.1022
  117MOL    C2439696   0.230   3.948   5.918  0.3186  0.4731  0.1240
  117MOL    C2539697   0.345   3.918   5.827 -1.2435  0.4733  0.0443
  117MOL    O2639698   0.353   3.805   5.785  0.4717  0.7530  0.4285
  117MOL    H2739699   0.492   3.905   5.549 -1.4130  0.3741  0.2940
  117MOL    H2839700   0.438   4.074   5.568  0.1162  0.5288  0.3373
  117MOL    H2939701   0.607   4.097   5.765  0.5603 -0.6501  2.7337
  117MOL    H3039702   0.468   4.155   5.980  3.2685  0.3673 -3.3373
  117MOL    H3139703   0.388   4.211   5.836  1.5116 -2.3418 -2.6469
  117MOL    H3239704   0.248   4.097   6.067  0.5275  3.7551  0.1262
  117MOL    H3339705   0.179   4.157   5.924 -0.6491 -2.2457 -0.4445
  117MOL    H3439706   0.212   3.882   6.003  0.3406 -0.1438 -0.3505
  117MOL    H3539707   0.133   3.953   5.868 -0.2418  0.9221  1.2465
  117MOL    C3639708   0.644   3.892   5.763  0.3462 -0.0242  0.7089
  117MOL    C3739709   0.696   3.876   5.906 -0.1619  0.7005  0.2093
  117MOL    N3839710   0.759   3.741   5.931  0.5349  0.1453  0.0897
  117MOL    C3939711   0.693   3.642   6.015 -0.3729 -0.3196 -0.8558
  117MOL    C4039712   0.792   3.527   6.017  0.3244 -0.3762  0.0370
  117MOL    C4139713   0.882   3.551   5.896 -0.1482  0.1865 -0.3855
  117MOL    C4239714   0.866   3.696   5.863  0.0748  0.3565 -0.4426
  117MOL    O4339715   0.940   3.755   5.783  0.4719 -0.2040 -0.4322
  117MOL    H4439716   0.726   3.907   5.693 -0.4189  2.4301  0.3288
  117MOL    H4539717   0.596   3.797   5.738 -1.9229  0.6417  2.4160
  117MOL    H4639718   0.611   3.876   5.974  0.5131  0.2047  1.0629
  117MOL    H4739719   0.660   3.672   6.114  0.6468 -1.0443 -0.2828
  117MOL    H4839720   0.596   3.625   5.969 -0.1879 -2.1473 -0.5888
  117MOL    H4939721   0.840   3.525   6.115 -2.1159  1.7496  1.3417
  117MOL    H5039722   0.750   3.427   6.007 -0.0892 -0.3748  1.6365
  117MOL    H5139723   0.980   3.513   5.925 -0.1671  0.8250  0.5382
  117MOL    H5239724   0.831   3.490   5.822 -0.1823  1.2292 -1.2391
  117MOL    C5339725   0.799   3.987   5.953  0.6941  0.0121  0.3596
  117MOL    C5439726   0.845   3.992   6.101  0.5348  0.2213  0.3304
  117MOL    N5539727   0.972   4.066   6.117 -0.1589  0.4111  0.0194
  117MOL    C5639728   1.101   3.991   6.122  0.4513  0.1469  0.2156
  117MOL    C5739729   1.209   4.096   6.107 -0.0517  0.7511  0.0726
  117MOL    C5839730   1.131   4.232   6.093  0.0065  0.9629  0.2800
  117MOL    C5939731   0.987   4.200   6.101 -0.3210  0.0912  0.2478
  117MOL    O6039732   0.899   4.278   6.078 -0.2341 -0.0275 -0.1872
  117MOL    H6139733   0.762   4.084   5.921 -2.8547 -1.2195  0.4534
  117MOL    H6239734   0.889   3.965   5.896  0.0546 -1.2123 -0.2109
  117MOL    H6339735   0.862   3.890   6.137  0.1207  0.3403  0.8823
  117MOL    H6439736   1.112   3.933   6.213 -0.2847 -0.5693 -0.1427
  117MOL    H6539737   1.111   3.917   6.042  0.1910  0.0439  0.2775
  117MOL    H6639738   1.267   4.098   6.199 -0.1776 -0.6559  0.1966
  117MOL    H6739739   1.271   4.078   6.019  0.2538 -0.5942  0.5472
  117MOL    H6839740   1.155   4.296   6.177 -1.9285  0.6464  1.0902
  117MOL    H6939741   1.163   4.280   6.000  0.0949  0.3173 -0.0262
  117MOL    C7039742   0.739   4.044   6.198  0.5693 -0.2710 -0.2713
  117MOL    C7139743   0.641   3.944   6.267 -0.7238  0.0889 -0.6322
  117MOL    N7239744   0.702   3.890   6.390  0.5611 -0.3952  0.3691
  117MOL    C7339745   0.755   3.758   6.390 -0.2219  0.2075 -0.2667
  117MOL    C7439746   0.834   3.737   6.524  0.4465  0.7248  0.5315
  117MOL    C7539747   0.810   3.863   6.602 -0.1561  0.6077  0.0431
  117MOL    C7639748   0.737   3.951   6.502  0.5078 -0.2088 -0.3994
  117MOL    O7739749   0.710   4.070   6.530 -0.4956  0.7753 -0.3255
  117MOL    H7839750   0.682   4.114   6.139 -0.2499  0.1558  1.0100
  117MOL    H7939751   0.789   4.108   6.271 -0.9678  1.1310 -0.4338
  117MOL    H8039752   0.608   3.876   6.189 -2.3813 -0.8117  0.8326
  117MOL    H8139753   0.672   3.689   6.372 -0.9170  1.0091 -0.1705
  117MOL    H8239754   0.830   3.756   6.311  0.6241  0.2990  0.5334
  117MOL    H8339755   0.801   3.648   6.577  0.4435  0.7931  0.6445
  117MOL    H8439756   0.942   3.730   6.507  0.0797 -1.0036 -1.3042
  117MOL    H8539757   0.755   3.846   6.694  1.4276  1.3949  1.1646
  117MOL    H8639758   0.909   3.902   6.627 -0.8982  1.0629  2.4026
  117MOL    C8739759   0.509   4.024   6.301 -0.1271  0.3735 -0.3307
  117MOL    C8839760   0.403   3.966   6.407  0.5866  0.4149  0.5643
  117MOL    N8939761   0.324   4.073   6.467 -0.2235  0.1117 -0.7140
  117MOL    C9039762   0.331   4.092   6.613 -0.2555 -0.4417  0.5072
  117MOL    C9139763   0.291   4.237   6.636 -0.1032  0.5244  0.3248
  117MOL    C9239764   0.233   4.286   6.505  0.1635  0.1562 -0.2170
  117MOL    C9339765   0.269   4.176   6.406 -0.2563  0.2858  0.6302
  117MOL    O9439766   0.253   4.186   6.284  0.4416 -0.2226 -0.1893
  117MOL    H9539767   0.446   4.033   6.212  0.0277 -1.9426 -0.7159
  117MOL    H9639768   0.528   4.130   6.317 -2.1210  0.4689  1.7478
  117MOL    H9739769   0.460   3.922   6.489  0.6004 -0.6150  0.0121
  117MOL    H9839770   0.270   4.015   6.661  0.9295 -1.7222 -0.0187
  117MOL    H9939771   0.432   4.068   6.647  0.9877  2.6601 -0.7816
  117MOL   H10039772   0.230   4.256   6.724  1.0163  4.2508  0.3929
  117MOL   H10139773   0.385   4.288   6.658 -0.8484  0.8066  3.0016
  117MOL   H10239774   0.125   4.297   6.506  0.0061 -1.3258 -0.4143
  117MOL   H10339775   0.274   4.382   6.473  1.1900  0.6284  2.3302
  117MOL   C10439776   0.319   3.843   6.351 -0.2343 -0.1445  0.4330
  117MOL   C10539777   0.261   3.747   6.459  0.3028 -0.3262 -0.6076
  117MOL   N10639778   0.154   3.807   6.539 -0.1022  0.3802  0.5386
  117MOL   C10739779   0.145   3.780   6.683  0.1761  0.3546  0.2657
  117MOL   C10839780   0.029   3.868   6.744 -0.0424 -0.5132  0.3894
  117MOL   C10939781   7.855   3.910   6.623  0.7266  0.3586  0.3023
  117MOL   C11039782   0.038   3.867   6.506  0.0370  0.1537 -0.3298
  117MOL   O11139783   0.004   3.881   6.389 -0.5840  0.4967 -0.3005
  117MOL   H11239784   0.394   3.787   6.295  1.7478  1.6867  1.1566
  117MOL   H11339785   0.245   3.874   6.277  2.2667  1.0551 -1.6582
  117MOL   H11439786   0.337   3.712   6.529 -0.8544 -1.0631  0.3269
  117MOL   H11539787   0.122   3.674   6.696 -0.4833  0.8349  3.2248
  117MOL   H11639788   0.233   3.793   6.745  0.0403  0.0648  0.5224
  117MOL   H11739789   7.869   3.818   6.815 -2.3991  1.3015 -0.4665
  117MOL   H11839790   0.061   3.954   6.803  1.0276 -0.8789  0.3518
  117MOL   H11939791   7.843   4.018   6.622  0.0570  0.3153  2.1726
  117MOL   H12039792   7.761   3.856   6.629  0.4317  0.9547  1.0831
  117MOL   C12139793   0.196   3.613   6.407  0.7955  0.4661 -0.5394
  117MOL   C12239794   0.294   3.505   6.356  0.2552  0.2518 -0.3385
  117MOL   N12339795   0.396   3.462   6.454 -0.0431 -0.0977 -0.1473
  117MOL   C12439796   0.356   3.410   6.585 -0.2514  0.0492 -0.4665
  117MOL   C12539797   0.489   3.350   6.648 -0.6001 -0.1253 -0.4630
  117MOL   C12639798   0.596   3.381   6.548 -0.7305  0.0052 -0.7826
  117MOL   C12739799   0.524   3.444   6.434  0.8580 -0.3052 -0.7836
  117MOL   O12839800   0.577   3.485   6.331  0.4363  0.2208  0.0693
  117MOL   H12939801   0.135   3.638   6.320 -0.0330  1.5823  0.3513
  117MOL   H13039802   0.136   3.568   6.486  1.9510  0.4482  0.3322
  117MOL   H13139803   0.343   3.563   6.277  0.0051  2.4391  1.0608
  117MOL   H13239804   0.280   3.333   6.572 -0.1342  0.0185 -0.9922
  117MOL   H13339805   0.308   3.475   6.658  0.8710  1.9865 -1.4126
  117MOL   H13439806   0.510   3.400   6.743  0.6334  0.1133 -0.8624
  117MOL   H13539807   0.490   3.242   6.663  0.3833 -0.0185  0.2789
  117MOL   H13639808   0.674   3.452   6.575 -0.1776 -1.0835  0.5531
  117MOL   H13739809   0.650   3.290   6.521 -0.1500  0.5365 -1.4308
  117MOL   C13839810   0.235   3.382   6.293 -0.0458  0.1948 -0.5545
  117MOL   C13939811   0.168   3.410   6.158  0.0772 -0.5426 -0.2398
  117MOL   N14039812   0.265   3.365   6.048 -0.2754 -0.3073  0.2813
  117MOL   C14139813   0.350   3.458   5.965  0.4310 -0.9822  0.5113
  117MOL   C14239814   0.430   3.373   5.866  0.0187 -0.5074 -0.3344
  117MOL   C14339815   0.430   3.241   5.944  0.7414  0.4445  0.1961
  117MOL   C14439816   0.308   3.241   6.036 -1.3730 -0.5520  0.2002
  117MOL   O14539817   0.268   3.140   6.093  0.3806  0.1383 -0.1396
  117MOL   H14639818   0.168   3.346   6.371  1.1796  0.9545  0.8875
  117MOL   H14739819   0.294   3.290   6.284 -0.6475 -0.3880  1.1922
  117MOL   H14839820   0.150   3.518   6.149  0.3693 -0.3578  1.3025
  117MOL   H14939821   0.293   3.539   5.918  2.0225 -0.2297 -0.1492
  117MOL   H15039822   0.420   3.506   6.032  0.0372 -1.0198  0.9512
  117MOL   H15139823   0.379   3.373   5.769 -0.0043  1.8156 -0.3542
  117MOL   H15239824   0.533   3.405   5.846  0.4157 -0.1691  2.1275
  117MOL   H15339825   0.524   3.234   5.999 -0.5757  2.0930  2.7355
  117MOL   H15439826   0.425   3.153   5.880  0.9908 -0.1303  0.9495
  117MOL   C15539827   0.036   3.340   6.142 -0.7667  0.3751  0.2040
  117MOL   C15639828   7.815   3.409   6.190  0.5373 -0.2040  0.2581
  117MOL   N15739829   7.786   3.530   6.115  0.2741 -0.4461  0.0181
  117MOL   C15839830   7.804   3.543   5.974 -0.4081  0.4832 -0.0009
  117MOL   C15939831   7.767   3.687   5.943  0.2035  0.0289  0.0286
  117MOL   C16039832   7.679   3.725   6.063  0.1778 -0.7065  0.0950
  117MOL   C16139833   7.728   3.633   6.171 -0.6195 -0.5600 -0.0736
  117MOL   O16239834   7.724   3.658   6.290  0.0831 -0.0692 -0.3335
  117MOL   H16339835   0.047   3.242   6.188 -1.5850  0.6368  0.9755
  117MOL   H16439836   0.015   3.306   6.041  0.2712  0.4338 -0.0339
  117MOL   H16539837   7.850   3.442   6.288  3.9065 -2.7549 -0.0117
  117MOL   H16639838   7.904   3.522   5.934  0.8779  0.4690  3.0915
  117MOL   H16739839   7.720   3.494   5.926 -2.2203  2.3115  1.2301
  117MOL   H16839840   7.855   3.749   5.953 -0.0366  0.4461 -0.4328
  117MOL   H16939841   7.722   3.706   5.846  0.5733  0.2399 -0.1039
  117MOL   H17039842   7.691   3.832   6.075 -1.6681 -0.2792 -1.6330
  117MOL   H17139843   7.575   3.699   6.042  0.9207 -2.8820 -1.0269
  117MOL   C17239844   7.696   3.310   6.224  0.4879  0.6001 -0.0087
  117MOL   C17339845   7.712   3.245   6.359  0.0416  0.0195  0.6485
  117MOL   N17439846   7.713   3.350   6.468  0.3529 -0.0604  0.2663
  117MOL   C17539847   7.594   3.420   6.514  0.5476 -0.4806  0.5914
  117MOL   C17639848   7.627   3.478   6.654 -0.1979 -0.0402  0.4263
  117MOL   C17739849   7.778   3.475   6.663 -0.4248  0.3990 -0.9259
  117MOL   C17839850   7.809   3.363   6.561  0.1275 -0.5245  0.3480
  117MOL   O17939851   0.008   3.299   6.558  0.2492  1.0844 -0.0318
  117MOL   H18039852   7.678   3.235   6.146  1.3595  1.7057 -1.2965
  117MOL   H18139853   7.608   3.374   6.226  0.2481  0.4048 -2.4788
  117MOL   H18239854   7.806   3.193   6.342  0.9657  1.4344  1.3166
  117MOL   H18339855   7.563   3.503   6.452 -1.5370 -1.1268  0.7303
  117MOL   H18439856   7.508   3.354   6.524 -2.4310  2.7308 -2.6034
  117MOL   H18539857   7.579   3.416   6.729 -0.1753  0.1037  0.5589
  117MOL   H18639858   7.575   3.573   6.664 -0.8361 -0.0904 -1.9905
  117MOL   H18739859   7.824   3.560   6.613 -1.6107  0.7286 -1.4891
  117MOL   H18839860   7.817   3.454   6.763  2.3484  3.2490 -1.3494
  117MOL   C18939861   7.606   3.135   6.396  0.3248  0.3945 -0.0607
  117MOL   C19039862   7.645   3.043   6.511 -0.9893  0.2704 -0.4579
  117MOL   N19139863   7.602   3.090   6.652 -0.0515 -0.2275  0.4518
  117MOL   C19239864   7.698   3.080   6.760  0.0497  0.1380  0.7572
  117MOL   C19339865   7.620   3.147   6.880  0.1081 -0.1752 -0.3011
  117MOL   C19439866   7.476   3.146   6.842 -0.8059  0.3317 -0.0304
  117MOL   C19539867   7.480   3.130   6.695  0.2789 -0.6753  0.9776
  117MOL   O19639868   7.389   3.153   6.618  0.0007 -0.2329 -0.0508
  117MOL   H19739869   7.596   3.071   6.308 -1.3279 -0.2839  0.5911
  117MOL   H19839870   7.511   3.184   6.414 -0.1093 -0.4045 -0.1385
  117MOL   H19939871   7.754   3.042   6.517 -0.9483  0.8589 -1.0046
  117MOL   H20039872   7.713   2.978   6.797  1.4699  0.1412  0.2029
  117MOL   H20139873   7.794   3.124   6.733 -0.1709  0.5153  0.5876
  117MOL   H20239874   7.646   3.121   6.982 -0.7693 -2.3492 -0.5931
  117MOL   H20339875   7.654   3.250   6.876 -0.1568 -0.0849 -0.2138
  117MOL   H20439876   7.436   3.053   6.882  2.4378 -0.0489  2.5621
  117MOL   H20539877   7.430   3.244   6.851 -0.9135  0.5655 -2.5829
  117MOL   C20639878   7.608   2.893   6.484  0.0138 -0.2009 -0.1230
  117MOL   C20739879   7.690   2.824   6.364 -0.2044 -0.4325  0.2863
  117MOL   N20839880   7.835   2.854   6.363  0.4417  0.6148  0.3994
  117MOL   C20939881   0.008   2.856   6.236  0.3325 -0.1053 -0.1745
  117MOL   C21039882   0.153   2.889   6.279  0.4662  0.5677 -0.1640
  117MOL   C21139883   0.155   2.851   6.429  0.5790  0.9693  0.0298
  117MOL   C21239884   0.013   2.840   6.469  0.5757 -0.4107  0.8142
  117MOL   O21339885   7.889   2.819   6.586  0.0177  0.2256 -0.1895
  117MOL   H21439886   7.502   2.867   6.483 -0.0754  0.1506  0.0373
  117MOL   H21539887   7.637   2.835   6.572 -0.1165 -0.7215 -0.4187
  117MOL   H21639888   7.655   2.851   6.264 -2.2215  1.3940  1.4243
  117MOL   H21739889   0.001   2.760   6.186 -0.6673  0.0682 -0.3728
  117MOL   H21839890   7.868   2.926   6.166  0.3159 -0.2474 -0.3058
  117MOL   H21939891   0.229   2.830   6.228  2.2186  3.0027 -0.4704
  117MOL   H22039892   0.190   2.991   6.264  1.8645 -0.0025 -0.6370
  117MOL   H22139893   0.202   2.754   6.445 -1.6745 -0.1144  0.2604
  117MOL   H22239894   0.195   2.928   6.494  1.4715 -0.6972  1.4751
  117MOL   C22339895   7.678   2.672   6.367 -0.2123  0.5024 -1.2705
  117MOL   C22439896   7.550   2.604   6.301  0.6382 -0.0574 -0.6782
  117MOL   N22539897   7.527   2.647   6.163 -0.0094  0.8853 -0.3244
  117MOL   C22639898   7.389   2.682   6.120  0.2317  0.0246 -0.4723
  117MOL   C22739899   7.396   2.706   5.968  0.4546  0.1887 -0.2029
  117MOL   C22839900   7.543   2.684   5.929 -0.0012 -0.1742 -0.1539
  117MOL   C22939901   7.610   2.632   6.056 -0.1863  0.4958  0.0650
  117MOL   O23039902   7.727   2.587   6.061  0.3233 -0.3336  0.2207
  117MOL   H23139903   7.696   2.638   6.469  0.5245 -1.7771 -2.1185
  117MOL   H23239904   7.763   2.634   6.310 -0.4346 -0.6701 -0.8525
  117MOL   H23339905   7.468   2.654   6.354  0.8525  0.6142 -0.9740
  117MOL   H23439906   7.318   2.608   6.158  1.6679  0.3757  3.1317
  117MOL   H23539907   7.371   2.784   6.157  1.9703  0.6233 -1.2350
  117MOL   H23639908   7.337   2.634   5.911  0.0155 -0.1015  0.6033
  117MOL   H23739909   7.361   2.805   5.939 -0.0087 -0.2285 -1.0694
  117MOL   H23839910   7.552   2.637   5.831 -0.1458  1.7691 -1.1257
  117MOL   H23939911   7.593   2.779   5.908  2.0276 -1.6642 -2.3342
  117MOL   C24039912   7.546   2.451   6.310  0.1297  0.4245  0.3928
  117MOL   C24139913   7.537   2.383   6.443 -0.6526  1.1051  0.5458
  117MOL   N24239914   7.406   2.398   6.500 -0.5753 -0.7279 -0.4254
  117MOL   C24339915   7.287   2.373   6.417  0.0450  0.2306  0.4328
  117MOL   C24439916   7.163   2.381   6.501  0.6018 -0.7707  0.3000
  117MOL   C24539917   7.224   2.451   6.631  0.5031 -0.2207 -0.2927
  117MOL   C24639918   7.375   2.458   6.617  0.8357 -0.5036 -0.0524
  117MOL   O24739919   7.442   2.510   6.706  0.0291  0.2156 -0.0710
  117MOL   H24839920   7.641   2.414   6.271 -0.4394 -0.4061 -0.2208
  117MOL   H24939921   7.475   2.412   6.237  0.1038 -2.6783  1.9885
  117MOL   H25039922   7.620   2.426   6.500  0.5308 -0.0382 -0.2775
  117MOL   H25139923   7.272   2.441   6.333 -1.4151 -1.0054 -0.3419
  117MOL   H25239924   7.295   2.273   6.373 -0.9345  0.2612  0.1605
  117MOL   H25339925   7.074   2.432   6.464 -1.1406 -3.1291  1.1311
  117MOL   H25439926   7.127   2.280   6.517 -1.6713 -0.6334 -3.4435
  117MOL   H25539927   7.204   2.558   6.633  2.9711  0.3260 -2.1565
  117MOL   H25639928   7.176   2.415   6.722 -0.0352 -0.0994 -0.5254
  117MOL   C25739929   7.572   2.233   6.428  0.2707  0.4747  0.2492
  117MOL   C25839930   7.567   2.142   6.551  0.6835 -0.3782  0.1158
  117MOL   N25939931   7.543   2.005   6.510 -0.9055  0.5479  0.2752
  117MOL   C26039932   7.416   1.941   6.529 -0.0336 -0.5455  0.5688
  117MOL   C26139933   7.417   1.813   6.447  0.0428 -0.8788 -0.0979
  117MOL   C26239934   7.563   1.790   6.415  0.1469  0.7130 -0.6682
  117MOL   C26339935   7.626   1.921   6.441 -0.5685 -0.4265  0.1344
  117MOL   O26439936   7.742   1.941   6.407  0.1378 -0.7953  0.2035
  117MOL   H26539937   7.676   2.232   6.396  0.4922 -1.6529  0.9241
  117MOL   H26639938   7.497   2.197   6.357 -0.0544  1.3101  0.1642
  117MOL   H26739939   7.477   2.181   6.598  0.1703  2.2734 -2.9165
  117MOL   H26839940   7.404   1.925   6.636  0.0818  3.2942  1.2316
  117MOL   H26939941   7.334   2.002   6.492  1.2821  1.8915  1.5420
  117MOL   H27039942   7.370   1.731   6.502 -1.7436 -0.8361 -1.4993
  117MOL   H27139943   7.356   1.826   6.358 -0.6356 -0.0762  0.4719
  117MOL   H27239944   7.607   1.714   6.480 -0.1407 -1.2836 -2.7666
  117MOL   H27339945   7.566   1.748   6.315 -0.5261 -1.3105  0.1268
  117MOL   C27439946   7.682   2.168   6.650  0.0452  0.0083  0.1582
  117MOL   C27539947   7.666   2.101   6.786  0.0362 -0.2072 -0.3023
  117MOL   N27639948   7.783   2.117   6.872  0.2558  0.3269  0.0035
  117MOL   C27739949   7.874   2.237   6.864  0.0026  0.4610  0.4811
  117MOL   C27839950   0.055   2.226   6.989  0.1423 -0.4726 -0.2853
  117MOL   C27939951   0.047   2.080   7.033  0.5666  0.5889 -0.1187
  117MOL   C28039952   7.839   2.023   6.948  0.7731 -0.1015 -0.8114
  117MOL   O28139953   7.792   1.911   6.952 -0.1313  0.3903 -0.2948
  117MOL   H28239954   7.682   2.276   6.664  0.6633 -0.2533  2.2975
  117MOL   H28339955   7.776   2.133   6.607 -0.7393 -0.9101 -0.8544
  117MOL   H28439956   7.660   1.993   6.768 -0.4681 -0.6607  2.3641
  117MOL   H28539957   0.039   2.227   6.782 -0.3072  0.2273  0.2420
  117MOL   H28639958   7.816   2.328   6.847 -0.6565 -0.0940 -0.3157
  117MOL   H28739959   0.158   2.258   6.974 -0.0597  1.1720  1.6724
  117MOL   H28839960   0.014   2.290   7.067  1.2456  0.4120 -0.4222
  117MOL   H28939961   0.143   2.032   7.013 -0.5538 -2.1385  0.8116
  117MOL   H29039962   0.038   2.077   7.142 -3.5416  1.5807 -0.3261
  117MOL   C29139963   7.546   2.136   6.868 -0.3946 -0.2840 -0.4193
  117MOL   C29239964   7.486   2.041   6.974  0.3846 -0.0067 -0.3707
  117MOL   N29339965   7.378   2.109   7.046 -0.1893 -0.1546  0.3114
  117MOL   C29439966   7.406   2.148   7.181  0.7718  0.9776 -0.4184
  117MOL   C29539967   7.286   2.231   7.220  1.4041 -0.2431 -0.7417
  117MOL   C29639968   7.184   2.213   7.115  0.0976 -0.0424  0.3964
  117MOL   C29739969   7.258   2.145   7.004  0.1595  0.0678 -0.2442
  117MOL   O29839970   7.206   2.125   6.895  0.1655 -0.1294  0.1401
  117MOL   H29939971   7.465   2.144   6.795  0.0844  0.1493 -0.9115
  117MOL   H30039972   7.570   2.227   6.923  3.4715 -0.6394 -1.3588
  117MOL   H30139973   7.554   2.017   7.055  1.2691  0.0135 -1.1016
  117MOL   H30239974   7.420   2.060   7.244 -0.9247  0.2028 -1.1128
  117MOL   H30339975   7.501   2.202   7.182  0.3910  1.6612  0.4876
  117MOL   H30439976   7.246   2.203   7.317  1.1006 -1.1286 -1.1150
  117MOL   H30539977   7.308   2.338   7.216 -1.4311  0.3966 -0.0016
  117MOL   H30639978   7.101   2.150   7.146 -0.2963 -0.4482 -1.4031
  117MOL   H30739979   7.155   2.312   7.080  2.2387 -0.0385 -1.5251
  117MOL   C30839980   7.432   1.902   6.910 -0.0462 -0.3022 -0.7712
  117MOL   C30939981   7.447   1.777   6.998 -0.0384 -0.1656  0.0937
  117MOL   N31039982   7.410   1.782   7.141  0.4302 -0.0983 -0.1749
  117MOL   C31139983   7.507   1.752   7.244  0.1845  0.1902  0.4232
  117MOL   C31239984   7.423   1.739   7.371  0.3101 -0.4419 -0.2224
  117MOL   C31339985   7.280   1.786   7.341  0.2974  0.3663  0.0399
  117MOL   C31439986   7.287   1.813   7.188 -0.5794  0.7905  0.0993
  117MOL   O31539987   7.186   1.857   7.120 -0.3350 -0.3414 -0.5712
  117MOL   H31639988   7.480   1.877   6.815 -0.3858 -0.7977 -0.8140
  117MOL   H31739989   7.327   1.904   6.882  0.1835 -2.1265 -1.8632
  117MOL   H31839990   7.549   1.740   6.990  0.5472  1.5501 -0.6862
  117MOL   H31939991   7.546   1.652   7.222 -1.1333 -0.0974 -0.6507
  117MOL   H32039992   7.579   1.834   7.243  0.2790  0.1190 -3.1910
  117MOL   H32139993   7.421   1.641   7.418  1.5993 -0.6091 -0.4858
  117MOL   H32239994   7.470   1.805   7.444  0.1281 -0.4976 -0.0584
  117MOL   H32339995   7.219   1.696   7.346 -0.1945  0.6282 -1.1324
  117MOL   H32439996   7.244   1.864   7.408 -2.4931 -1.7599  1.1034
  117MOL   C32539997   7.366   1.664   6.926 -0.6665 -1.0309 -0.3106
  117MOL   C32639998   7.400   1.523   6.987  0.5702  0.1468  0.5860
  117MOL   N32739999   7.318   1.412   6.925 -0.2433 -0.4440 -0.4319
  117MOL   C32840000   7.179   1.397   6.959 -0.2935 -0.3287  0.0900
  117MOL   C32940001   7.124   1.275   6.882  0.1562 -0.7112  0.2161
  117MOL   C33040002   7.253   1.207   6.829 -0.0301  0.2899  0.5261
  117MOL   C33140003   7.359   1.316   6.844  0.2312  0.5716 -0.3506
  117MOL   O33240004   7.474   1.309   6.800 -0.2643 -0.1165 -0.3966
  117MOL   H33340005   7.408   1.658   6.826 -0.2937  0.9637 -0.2871
  117MOL   H33440006   7.258   1.683   6.921 -0.2401  2.1967  1.2660
  117MOL   H33540007   7.371   1.513   7.092 -0.3701 -0.9460  0.2276
  117MOL   H33640008   7.177   1.377   7.067  0.2457 -0.3450  0.1006
  117MOL   H33740009   7.128   1.490   6.936  0.2670  0.2792  1.2282
  117MOL   H33840010   7.057   1.220   6.948  0.3574 -0.8903  0.2697
  117MOL   H33940011   7.058   1.299   6.799  2.2925  0.4469 -1.1840
  117MOL   H34040012   7.281   1.122   6.891 -0.5967 -0.3891 -0.1360
  117MOL   H34140013   7.253   1.174   6.725  4.4177  0.7462  0.2693
  117MOL   H34240014   7.504   1.496   6.969 -0.7019 -3.6587 -1.5449
  118MOL     C140015   3.590   0.137   4.378 -0.6131  0.5244  0.1744
  118MOL     C240016   3.506   0.194   4.487  0.2214  0.1388 -0.2160
  118MOL     N340017   3.375   0.125   4.480  0.0523  0.1849 -0.6769
  118MOL     C440018   3.256   0.189   4.419 -0.2293 -0.3412  0.0586
  118MOL     C540019   3.147   0.082   4.405 -0.6594  0.4064 -0.2887
  118MOL     C640020   3.209   7.854   4.438  0.3514 -0.1816 -0.1311
  118MOL     C740021   3.347   7.894   4.496 -1.0285  0.2958  0.1508
  118MOL     O840022   3.427   7.812   4.541  0.4923 -0.8775  0.0019
  118MOL     H940023   3.548   0.145   4.277  0.9472  0.8300 -0.4541
  118MOL    H1040024   3.682   0.192   4.360 -0.8311 -0.0597 -3.0663
  118MOL    H1140025   3.485   0.298   4.460 -1.5048 -0.5466 -1.6541
  118MOL    H1240026   3.221   0.266   4.487 -0.9983 -0.3842 -0.2762
  118MOL    H1340027   3.281   0.234   4.323 -1.4104  1.2127  0.4584
  118MOL    H1440028   3.070   0.105   4.479  0.4775 -0.1309  1.1065
  118MOL    H1540029   3.095   0.084   4.309  0.7118  0.9640 -1.0305
  118MOL    H1640030   3.148   7.805   4.513  0.3087  0.9039  0.5628
  118MOL    H1740031   3.218   7.792   4.349 -0.6566  1.7618 -1.6256
  118MOL    H1840032   3.625   0.035   4.391  1.4775  0.8247 -2.4620
  118MOL    C1940033   3.578   0.189   4.631  1.0562 -0.1921 -0.4469
  118MOL    C2040034   3.723   0.239   4.644 -0.4613  0.5707 -0.3996
  118MOL    N2140035   3.724   0.386   4.616  0.1966  0.0631  0.0893
  118MOL    C2240036   3.808   0.438   4.506 -0.7689 -0.0510 -0.1829
  118MOL    C2340037   3.775   0.589   4.504 -0.2319  0.0127  0.2182
  118MOL    C2440038   3.695   0.618   4.629  0.4295 -0.2468 -0.8315
  118MOL    C2540039   3.655   0.479   4.677  0.0315  0.8936  0.2035
  118MOL    O2640040   3.563   0.459   4.757 -0.4983  0.1710 -0.0069
  118MOL    H2740041   3.585   0.082   4.652  0.9421 -0.1104  0.0280
  118MOL    H2840042   3.509   0.223   4.708 -0.0843 -0.4725 -1.3242
  118MOL    H2940043   3.781   0.187   4.568  0.4572  0.1898  0.5378
  118MOL    H3040044   3.910   0.418   4.539 -0.1358 -0.9415 -2.5739
  118MOL    H3140045   3.787   0.386   4.413 -2.9352  1.4117 -0.5438
  118MOL    H3240046   3.854   0.663   4.491  0.0712 -0.4619 -0.7030
  118MOL    H3340047   3.709   0.597   4.418 -1.0913  0.1570  0.8858
  118MOL    H3440048   3.748   0.663   4.713  0.5867 -1.8200 -0.0709
  118MOL    H3540049   3.603   0.672   4.607  0.3656 -0.2263 -0.5156
  118MOL    C3640050   3.787   0.218   4.783  0.5146  0.1506 -0.0974
  118MOL    C3740051   3.811   0.070   4.835  0.3652 -0.5883  1.2095
  118MOL    N3840052   3.898   7.900   4.733  0.4011 -0.2063  0.6284
  118MOL    C3940053   3.835   7.795   4.652  0.0800  0.1541  0.1955
  118MOL    C4040054   3.942   7.722   4.580  0.4269 -0.9511 -0.4500
  118MOL    C4140055   4.058   7.827   4.581 -0.2701 -0.4384 -0.0993
  118MOL    C4240056   4.025   0.022   4.697 -0.4089  0.3226 -0.6815
  118MOL    O4340057   4.103   0.111   4.734 -0.1182 -0.1911 -0.1376
  118MOL    H4440058   3.719   0.269   4.852  1.5570  0.8466  0.4135
  118MOL    H4540059   3.871   0.286   4.797  0.1227  0.4341  0.9640
  118MOL    H4640060   3.716   0.017   4.840  0.6756 -1.6512 -2.6627
  118MOL    H4740061   3.800   7.720   4.723  2.1950  0.4069  1.5710
  118MOL    H4840062   3.749   7.828   4.594  1.3333  1.1440 -1.1383
  118MOL    H4940063   3.959   7.630   4.635  1.0610  0.5750  1.9781
  118MOL    H5040064   3.906   7.696   4.481 -3.4482 -1.5040  1.0344
  118MOL    H5140065   4.154   7.774   4.582  1.0304  1.7307 -2.7133
  118MOL    H5240066   4.057   7.894   4.496  0.1082 -0.8920 -0.4652
  118MOL    C5340067   3.876   0.073   4.982 -0.2611 -0.0732 -0.2949
  118MOL    C5440068   3.784   0.134   5.090 -0.6617  0.1052 -0.1917
  118MOL    N5540069   3.718   0.025   5.154  0.0016  0.3356  0.2130
  118MOL    C5640070   3.572   0.026   5.142 -0.8293 -0.1528 -0.1888
  118MOL    C5740071   3.524   7.812   5.229  0.1116  0.1910 -0.1578
  118MOL    C5840072   3.638   7.755   5.302  0.0734  0.2618 -0.1319
  118MOL    C5940073   3.756   7.846   5.252  0.3759 -0.4475  0.1200
  118MOL    O6040074   3.874   7.830   5.280 -0.2757 -0.0283 -0.3203
  118MOL    H6140075   3.964   0.133   4.960  0.2548 -1.1273 -1.2068
  118MOL    H6240076   3.911   7.879   5.007 -1.0241 -0.7867 -1.9762
  118MOL    H6340077   3.707   0.200   5.051 -0.2037 -1.0976 -3.2501
  118MOL    H6440078   3.543   0.118   5.192 -0.6880  0.6128 -1.5127
  118MOL    H6540079   3.542   0.023   5.038 -1.3122 -0.5548 -0.0430
  118MOL    H6640080   3.440   7.843   5.291 -1.6570 -1.2262 -1.7702
  118MOL    H6740081   3.484   7.729   5.170 -0.3185 -0.1026  0.5366
  118MOL    H6840082   3.623   7.759   5.409  2.1667  0.9542  0.1584
  118MOL    H6940083   3.668   7.654   5.274 -0.4205 -0.1396  0.7796
  118MOL    C7040084   3.860   0.218   5.194 -0.0156 -0.2874 -0.1726
  118MOL    C7140085   3.862   0.373   5.161  0.0386 -0.0268 -0.9928
  118MOL    N7240086   3.744   0.450   5.191 -0.1779  0.2849  0.2337
  118MOL    C7340087   3.686   0.548   5.092  0.8164  0.3607  0.5105
  118MOL    C7440088   3.561   0.605   5.162 -1.1269 -0.3001  0.2330
  118MOL    C7540089   3.572   0.560   5.310  0.3650  0.1242  0.1070
  118MOL    C7640090   3.683   0.456   5.311  0.1940 -0.2092 -0.0525
  118MOL    O7740091   3.713   0.400   5.416 -0.2320  0.5742 -0.0217
  118MOL    H7840092   3.965   0.188   5.198  0.6737  2.0611  1.0779
  118MOL    H7940093   3.823   0.198   5.295  0.6251 -0.4044  0.0425
  118MOL    H8040094   3.883   0.380   5.054 -0.7959  1.4478 -1.0736
  118MOL    H8140095   3.755   0.626   5.061  0.9370 -1.5730 -4.4893
  118MOL    H8240096   3.655   0.502   4.998  0.4796  0.3341  0.6339
  118MOL    H8340097   3.574   0.713   5.167 -0.7421 -0.4119  2.1964
  118MOL    H8440098   3.461   0.583   5.126 -1.4451  0.0234  0.9041
  118MOL    H8540099   3.591   0.641   5.380  0.3517 -0.1660  0.4474
  118MOL    H8640100   3.478   0.508   5.326 -0.5352  2.2834  2.1355
  118MOL    C8740101   3.971   0.439   5.235  0.4097  0.0095  0.5378
  118MOL    C8840102   4.122   0.410   5.198 -0.1136 -0.7886 -0.0933
  118MOL    N8940103   4.146   0.452   5.057 -0.0129 -0.1614  0.7384
  118MOL    C9040104   4.195   0.362   4.953  0.0446 -0.6749 -0.2219
  118MOL    C9140105   4.186   0.434   4.818  0.3001  0.3980  0.5680
  118MOL    C9240106   4.132   0.569   4.852 -0.0058  0.7695  0.0494
  118MOL    C9340107   4.111   0.573   4.996  0.1472  0.5743 -0.2160
  118MOL    O9440108   4.064   0.671   5.050  0.5543 -0.2785 -0.3366
  118MOL    H9540109   3.960   0.407   5.338  0.5518 -2.0675 -0.0730
  118MOL    H9640110   3.950   0.544   5.256  0.0210 -0.0996  0.6968
  118MOL    H9740111   4.144   0.304   5.208 -1.0303 -0.9152  0.6176
  118MOL    H9840112   4.295   0.331   4.983  0.3571 -0.9086 -1.4844
  118MOL    H9940113   4.122   0.281   4.958 -0.3043 -0.4422 -1.4225
  118MOL   H10040114   4.284   0.436   4.770 -0.7190 -2.3091 -1.7517
  118MOL   H10140115   4.133   0.378   4.741  0.3532 -0.7470  1.3616
  118MOL   H10240116   4.202   0.645   4.819  1.6093 -1.3834 -1.6760
  118MOL   H10340117   4.039   0.588   4.797  1.4466 -0.0118 -2.7866
  118MOL   C10440118   4.227   0.479   5.290  0.4474  0.2119  0.0309
  118MOL   C10540119   4.224   0.419   5.429 -0.1436  0.2806 -0.3951
  118MOL   N10640120   4.254   0.277   5.445  0.0086 -0.5044  0.0065
  118MOL   C10740121   4.157   0.194   5.513 -0.2195  0.1994 -0.8353
  118MOL   C10840122   4.214   0.055   5.516 -0.0895 -0.3160  0.6076
  118MOL   C10940123   4.360   0.064   5.468  0.3421 -0.3743 -0.7457
  118MOL   C11040124   4.369   0.212   5.428 -0.0474 -0.4683 -0.2032
  118MOL   O11140125   4.480   0.261   5.395  0.5758  0.0556  0.0668
  118MOL   H11240126   4.203   0.585   5.288 -2.3589 -0.3371  1.2026
  118MOL   H11340127   4.322   0.461   5.240 -0.2561 -1.0589 -0.8637
  118MOL   H11440128   4.125   0.422   5.473  0.3286 -0.8399  0.7763
  118MOL   H11540129   4.152   0.229   5.617  1.3335 -1.3344 -0.2231
  118MOL   H11640130   4.053   0.210   5.485 -0.9111 -1.3960  0.7191
  118MOL   H11740131   4.214   0.028   5.621 -1.0099 -0.1821  0.6401
  118MOL   H11840132   4.158   7.888   5.458 -0.2225  0.3765 -0.1541
  118MOL   H11940133   4.385   7.901   5.387 -0.3315  0.4764 -1.6905
  118MOL   H12040134   4.429   0.038   5.548  1.1903  1.5739 -0.8215
  118MOL   C12140135   4.311   0.508   5.525  0.0308  0.4255  0.5804
  118MOL   C12240136   4.267   0.661   5.535  0.6450 -0.1982  0.1449
  118MOL   N12340137   4.139   0.678   5.618 -0.2092  0.1381 -0.2463
  118MOL   C12440138   4.022   0.704   5.542  0.1859  0.4068 -0.5287
  118MOL   C12540139   3.905   0.690   5.638  0.0664  0.1890 -0.0323
  118MOL   C12640140   3.961   0.637   5.767  0.1588  0.4989 -0.1208
  118MOL   C12740141   4.113   0.647   5.749 -0.1624 -0.1570 -0.3464
  118MOL   O12840142   4.198   0.634   5.839  0.5944  0.3777  1.1262
  118MOL   H12940143   4.419   0.494   5.517 -0.1023 -0.4153  0.2083
  118MOL   H13040144   4.294   0.473   5.627  0.3521 -1.1550  0.1008
  118MOL   H13140145   4.244   0.710   5.440  2.0410  1.3065  0.5677
  118MOL   H13240146   4.016   0.655   5.445 -0.6657  0.8194 -0.6873
  118MOL   H13340147   4.019   0.811   5.520  0.1882  0.2399 -1.3481
  118MOL   H13440148   3.860   0.783   5.674 -1.8802 -0.9242  0.4940
  118MOL   H13540149   3.818   0.642   5.594 -0.7005  0.7027  0.8920
  118MOL   H13640150   3.920   0.678   5.860  0.3282  1.4718 -0.4735
  118MOL   H13740151   3.934   0.531   5.776 -2.8040  1.3660  2.1918
  118MOL   C13840152   4.392   0.736   5.583  0.2941 -0.0266  0.4414
  118MOL   C13940153   4.504   0.769   5.482  0.1281 -0.1402 -0.2777
  118MOL   N14040154   4.454   0.819   5.356 -0.2528  0.7889  0.1155
  118MOL   C14140155   4.481   0.741   5.237 -0.6034 -0.1633  0.3942
  118MOL   C14240156   4.380   0.788   5.134  0.6907  0.7535 -0.2720
  118MOL   C14340157   4.342   0.931   5.180  0.3095 -0.8362  0.0331
  118MOL   C14440158   4.386   0.931   5.328 -0.0563  0.5305  0.5288
  118MOL   O14540159   4.339   1.007   5.410 -0.0031 -0.1218  0.0289
  118MOL   H14640160   4.443   0.691   5.668 -0.3830  1.8416  1.8839
  118MOL   H14740161   4.362   0.835   5.620 -0.3925  1.3048 -3.4566
  118MOL   H14840162   4.557   0.675   5.463  0.0248 -0.2631  0.0490
  118MOL   H14940163   4.583   0.762   5.207 -0.1112 -1.2797  1.2388
  118MOL   H15040164   4.462   0.635   5.255 -2.2736  0.2361  1.1451
  118MOL   H15140165   4.416   0.769   5.033 -2.5340 -1.3604 -1.0968
  118MOL   H15240166   4.293   0.722   5.131  0.3667  0.8985  3.2017
  118MOL   H15340167   4.236   0.957   5.171  0.3790  0.1863  2.0054
  118MOL   H15440168   4.409   1.000   5.129 -1.1792  2.6754  2.6484
  118MOL   C15540169   4.617   0.852   5.541  0.2103  0.7262 -0.0402
  118MOL   C15640170   4.698   0.778   5.647 -0.3526  0.3486  0.0477
  118MOL   N15740171   4.778   0.664   5.599 -0.1514  0.0569 -0.0047
  118MOL   C15840172   4.762   0.541   5.672  0.2884  0.0939 -0.0324
  118MOL   C15940173   4.871   0.454   5.615  0.4206  0.1210  0.4969
  118MOL   C16040174   4.955   0.528   5.513 -0.2463  0.0582  0.5521
  118MOL   C16140175   4.887   0.663   5.519 -0.2407 -0.6894 -0.1953
  118MOL   O16240176   4.931   0.764   5.458 -0.3820  0.2529  0.2041
  118MOL   H16340177   4.569   0.942   5.580  1.6161  0.2906  2.7956
  118MOL   H16440178   4.685   0.887   5.463  0.1360  1.1188  0.0689
  118MOL   H16540179   4.635   0.734   5.724 -0.3329  0.1463 -0.0511
  118MOL   H16640180   4.781   0.546   5.780  3.4225 -0.1175 -0.5523
  118MOL   H16740181   4.663   0.502   5.647 -0.3797  2.4036 -1.0772
  118MOL   H16840182   4.934   0.412   5.693  0.1473 -0.0640  0.6158
  118MOL   H16940183   4.827   0.368   5.564  1.7609 -0.2179 -0.1213
  118MOL   H17040184   5.057   0.540   5.548  0.4949  0.4442 -1.7070
  118MOL   H17140185   4.947   0.503   5.407  1.5698  2.0094 -0.0787
  118MOL   C17240186   4.797   0.877   5.728  0.0533 -0.3307 -0.1303
  118MOL   C17340187   4.727   0.997   5.799 -0.2725  0.5171 -0.5977
  118MOL   N17440188   4.623   0.949   5.885  0.7386 -0.3178 -0.5645
  118MOL   C17540189   4.480   0.992   5.861 -0.0218  0.4592  0.3893
  118MOL   C17640190   4.399   0.895   5.942 -0.6568  0.1946 -0.1628
  118MOL   C17740191   4.494   0.825   6.040 -0.2199 -0.0049  0.1782
  118MOL   C17840192   4.634   0.860   5.985  0.2972  0.3252 -0.1190
  118MOL   O17940193   4.735   0.804   6.027  0.1767  0.7353 -0.0674
  118MOL   H18040194   4.874   0.907   5.658  1.1268  0.3837  1.3248
  118MOL   H18140195   4.857   0.828   5.806  1.0023 -0.6668 -1.0636
  118MOL   H18240196   4.676   1.054   5.722  0.7939 -0.1477 -1.8187
  118MOL   H18340197   4.492   1.095   5.895  0.6402  0.3147  0.6176
  118MOL   H18440198   4.457   0.994   5.755  2.4790 -1.5888 -0.2550
  118MOL   H18540199   4.358   0.822   5.873  1.2219  0.5834 -1.7443
  118MOL   H18640200   4.305   0.926   5.987 -0.8210 -2.6233  1.5307
  118MOL   H18740201   4.486   0.857   6.144 -0.7380 -1.8292  0.7128
  118MOL   H18840202   4.471   0.718   6.046  3.1517 -0.6733  2.9105
  118MOL   C18940203   4.818   1.104   5.861 -0.0539  0.6646  0.2666
  118MOL   C19040204   4.931   1.164   5.768  0.0256  0.5620 -0.9644
  118MOL   N19140205   4.876   1.234   5.653 -0.1853 -0.7226  0.0090
  118MOL   C19240206   4.887   1.176   5.520 -0.1652  0.0023  0.0361
  118MOL   C19340207   4.852   1.286   5.424  0.5636 -0.6102 -0.5911
  118MOL   C19440208   4.783   1.396   5.510  0.3028  0.1147  0.2550
  118MOL   C19540209   4.823   1.356   5.655 -0.5406  0.8552 -0.6415
  118MOL   O19640210   4.800   1.429   5.747  0.0576  0.2090 -1.1898
  118MOL   H19740211   4.862   1.077   5.956 -1.1349 -1.6926  0.1347
  118MOL   H19840212   4.759   1.194   5.881  0.1670  1.0232 -0.6724
  118MOL   H19940213   5.003   1.086   5.744  0.5910  0.7880 -0.0412
  118MOL   H20040214   4.985   1.131   5.501  0.9170  0.6091  3.6978
  118MOL   H20140215   4.807   1.103   5.515  2.3946 -2.7729 -1.7953
  118MOL   H20240216   4.942   1.335   5.387 -1.6914  1.6809 -3.1932
  118MOL   H20340217   4.806   1.259   5.329 -0.6757  2.1080 -0.7838
  118MOL   H20440218   4.795   1.498   5.473 -1.4736  0.6559  1.1438
  118MOL   H20540219   4.675   1.385   5.512  0.2480 -0.2882 -2.5470
  118MOL   C20640220   5.029   1.251   5.847  0.3254  0.2050 -0.3300
  118MOL   C20740221   5.148   1.301   5.759 -0.4958 -0.9492 -0.1407
  118MOL   N20840222   5.157   1.452   5.767  0.3374 -0.0445 -0.3237
  118MOL   C20940223   5.165   1.533   5.650 -0.3474 -0.2904 -0.5404
  118MOL   C21040224   5.220   1.666   5.701 -0.0183  1.0703 -0.0950
  118MOL   C21140225   5.203   1.670   5.856 -0.1030  0.4311 -0.2310
  118MOL   C21240226   5.170   1.521   5.878 -0.3587 -0.3434 -0.0508
  118MOL   O21340227   5.166   1.477   5.996  0.0882  0.4751 -0.3292
  118MOL   H21440228   5.069   1.203   5.936 -2.3951  1.2554  1.5210
  118MOL   H21540229   4.968   1.330   5.890 -2.4926 -1.8469 -0.3485
  118MOL   H21640230   5.121   1.286   5.654 -0.5481  2.6396 -0.6906
  118MOL   H21740231   5.204   1.491   5.558 -1.6311 -2.8159  0.0063
  118MOL   H21840232   5.064   1.562   5.622 -0.0697 -0.5449 -1.8180
  118MOL   H21940233   5.325   1.665   5.671  0.2287 -1.9808  0.6391
  118MOL   H22040234   5.174   1.751   5.650  1.5915  0.9817 -1.7440
  118MOL   H22140235   5.281   1.715   5.917 -1.3909 -0.4410  2.1593
  118MOL   H22240236   5.115   1.725   5.889  1.5542  2.4123  0.9868
  118MOL   C22340237   5.280   1.245   5.806 -0.3102  0.7564 -0.1347
  118MOL   C22440238   5.304   1.093   5.824 -0.0692  0.3294 -0.1350
  118MOL   N22540239   5.304   1.012   5.696 -0.8304  0.4136  0.9673
  118MOL   C22640240   5.211   0.900   5.680 -0.3437  0.3432 -0.0463
  118MOL   C22740241   5.249   0.832   5.547  0.7819 -0.1667 -0.4619
  118MOL   C22840242   5.362   0.915   5.485  0.6324  0.6782  0.2717
  118MOL   C22940243   5.376   1.028   5.587  0.2431 -0.5181  0.4717
  118MOL   O23040244   5.441   1.126   5.560  0.2919 -0.5119 -0.2122
  118MOL   H23140245   5.303   1.278   5.907  2.7815  0.3979 -0.6825
  118MOL   H23240246   5.352   1.291   5.738 -1.5003  1.1747 -1.1496
  118MOL   H23340247   5.223   1.056   5.886 -1.3534  2.2668 -0.5918
  118MOL   H23440248   5.211   0.838   5.769 -1.9056 -0.0613 -0.3240
  118MOL   H23540249   5.109   0.939   5.679 -0.4601  0.1966  2.5628
  118MOL   H23640250   5.285   0.735   5.582 -1.8960  0.1001  3.3501
  118MOL   H23740251   5.164   0.820   5.480  0.2216 -2.6836  0.6368
  118MOL   H23840252   5.456   0.861   5.488 -0.2977 -0.9569  0.3660
  118MOL   H23940253   5.334   0.951   5.386 -1.3767  1.7273  1.1638
  118MOL   C24040254   5.433   1.050   5.908 -0.2613 -0.0605  0.0238
  118MOL   C24140255   5.441   1.100   6.053 -0.2077  0.1066 -0.1935
  118MOL   N24240256   5.319   1.069   6.124  0.0597  0.1847  0.7462
  118MOL   C24340257   5.249   1.171   6.199 -0.6478  0.1901 -0.0664
  118MOL   C24440258   5.122   1.114   6.252 -0.1660 -1.4687 -0.3265
  118MOL   C24540259   5.121   0.968   6.203  0.4756  0.2863  0.5896
  118MOL   C24640260   5.260   0.950   6.138 -0.2996 -0.4199 -0.1912
  118MOL   O24740261   5.304   0.836   6.105  0.2218 -0.0973 -0.0958
  118MOL   H24840262   5.519   1.096   5.860 -0.5939  1.0027  0.4216
  118MOL   H24940263   5.434   0.941   5.915  1.1242  0.0056  1.1165
  118MOL   H25040264   5.465   1.205   6.039 -0.1064  0.0042 -0.8252
  118MOL   H25140265   5.313   1.203   6.282 -1.4446 -1.2406  1.1217
  118MOL   H25240266   5.224   1.258   6.139  0.7514 -0.2362 -1.2794
  118MOL   H25340267   5.141   1.107   6.359 -1.7266 -1.7318 -0.0501
  118MOL   H25440268   5.030   1.169   6.232 -0.2481 -2.2335 -2.2036
  118MOL   H25540269   5.102   0.905   6.289  1.9854 -0.7488  0.1804
  118MOL   H25640270   5.045   0.967   6.124  2.9172  1.7076 -1.9041
  118MOL   C25740271   5.573   1.040   6.123  0.3207  0.0571 -1.0452
  118MOL   C25840272   5.597   1.111   6.253 -0.1452  0.4445  0.2096
  118MOL   N25940273   5.709   1.033   6.324 -0.5796  0.2047 -0.3121
  118MOL   C26040274   5.660   0.958   6.439  0.3567 -0.2012  0.5693
  118MOL   C26140275   5.784   0.908   6.501  0.1301  0.4675  0.5414
  118MOL   C26240276   5.899   0.912   6.393 -0.4764 -0.1354  0.3707
  118MOL   C26340277   5.836   0.999   6.291  0.1092 -0.2359 -0.2294
  118MOL   O26440278   5.896   1.027   6.189  0.3645  0.1193  0.2278
  118MOL   H26540279   5.660   1.068   6.062  1.9918  0.1568  1.3035
  118MOL   H26640280   5.563   0.932   6.134 -2.9863  0.4094 -0.2668
  118MOL   H26740281   5.506   1.104   6.312  1.2103 -0.0245  2.2972
  118MOL   H26840282   5.614   1.022   6.514  0.8831  1.0587 -0.1729
  118MOL   H26940283   5.594   0.879   6.404  0.0089  0.6040 -0.6317
  118MOL   H27040284   5.812   0.974   6.584  1.4780  1.0138 -0.3235
  118MOL   H27140285   5.775   0.805   6.536 -0.2759  0.7706  1.3350
  118MOL   H27240286   5.990   0.963   6.424  0.7802 -0.8768 -2.0289
  118MOL   H27340287   5.929   0.812   6.363  0.6350 -0.2619  1.8449
  118MOL   C27440288   5.644   1.263   6.237  0.3909  0.3250 -0.1004
  118MOL   C27540289   5.669   1.347   6.362 -0.0605 -0.0354 -0.1480
  118MOL   N27640290   5.692   1.485   6.332  0.5526  0.0250 -0.0252
  118MOL   C27740291   5.810   1.548   6.374 -0.7491 -0.6489 -0.7596
  118MOL   C27840292   5.817   1.684   6.297  0.1260  0.3080  0.5110
  118MOL   C27940293   5.672   1.710   6.250 -0.5729 -0.2728  0.0035
  118MOL   C28040294   5.606   1.571   6.271 -0.1138 -0.8679 -0.3259
  118MOL   O28140295   5.487   1.551   6.240 -0.7623 -0.4421 -0.5625
  118MOL   H28240296   5.574   1.316   6.173 -0.5109 -0.1009  0.5260
  118MOL   H28340297   5.741   1.253   6.190  1.1984 -3.7590  2.1844
  118MOL   H28440298   5.745   1.296   6.421  0.3406 -0.8398 -1.3542
  118MOL   H28540299   5.802   1.568   6.481  0.9350  1.4515 -0.9757
  118MOL   H28640300   5.891   1.477   6.357  0.1617  0.3317 -0.6029
  118MOL   H28740301   5.855   1.766   6.358  0.5300 -0.4907  1.3486
  118MOL   H28840302   5.888   1.669   6.215 -1.4479 -2.2004 -0.4403
  118MOL   H28940303   5.627   1.777   6.323 -2.2323 -0.0898 -1.1452
  118MOL   H29040304   5.670   1.755   6.150 -0.7516 -1.0733 -0.3582
  118MOL   C29140305   5.541   1.340   6.455 -0.2846 -0.3845 -0.4368
  118MOL   C29240306   5.543   1.428   6.584 -0.1364  0.2465 -0.3887
  118MOL   N29340307   5.431   1.525   6.589  0.5409 -0.6248  0.8966
  118MOL   C29440308   5.289   1.493   6.585 -0.1621  0.2922  0.1390
  118MOL   C29540309   5.209   1.621   6.610 -0.1551 -0.5120 -0.5540
  118MOL   C29640310   5.315   1.729   6.640  0.0618 -0.0701  0.3014
  118MOL   C29740311   5.448   1.660   6.618  0.0079 -0.5438 -0.3298
  118MOL   O29840312   5.556   1.726   6.641 -0.1382 -0.5101  0.1580
  118MOL   H29940313   5.539   1.234   6.477  0.6052 -0.3864 -0.3219
  118MOL   H30040314   5.451   1.363   6.399 -0.6572 -0.4752  0.1248
  118MOL   H30140315   5.631   1.491   6.584 -0.0954  0.1880 -0.0850
  118MOL   H30240316   5.266   1.446   6.489 -0.9057 -0.8834  0.8891
  118MOL   H30340317   5.276   1.410   6.655  1.2863 -0.3663 -0.3469
  118MOL   H30440318   5.159   1.656   6.520 -1.5806  0.9352  0.7602
  118MOL   H30540319   5.129   1.604   6.682  0.6421  0.2701  0.5299
  118MOL   H30640320   5.308   1.813   6.571 -1.6824 -0.5703 -0.1464
  118MOL   H30740321   5.310   1.759   6.745 -0.8885  1.0666 -0.0555
  118MOL   C30840322   5.564   1.354   6.719  0.7402 -0.1487 -0.3295
  118MOL   C30940323   5.704   1.280   6.732  0.6765 -0.4883 -0.0675
  118MOL   N31040324   5.817   1.364   6.706  0.1635 -0.1518  0.2304
  118MOL   C31140325   5.830   1.490   6.775 -0.4153  0.2795  0.0750
  118MOL   C31240326   5.956   1.558   6.722 -0.5643  0.0337  0.4521
  118MOL   C31340327   6.030   1.462   6.634  0.1110 -0.1179  0.2449
  118MOL   C31440328   5.924   1.349   6.625 -0.3217 -0.0124 -0.3431
  118MOL   O31540329   5.961   1.250   6.560  0.2545  0.5119  0.3501
  118MOL   H31640330   5.481   1.283   6.726 -0.0669  0.8961  0.9100
  118MOL   H31740331   5.553   1.425   6.801  1.0444 -2.4576  1.7888
  118MOL   H31840332   5.712   1.208   6.651 -0.2862 -1.3785  0.6249
  118MOL   H31940333   5.746   1.557   6.760  0.1197  1.4592  2.0910
  118MOL   H32040334   5.847   1.466   6.880 -0.1666 -0.4009 -0.1186
  118MOL   H32140335   5.941   1.655   6.674  0.5167 -0.0408 -0.0425
  118MOL   H32240336   6.024   1.588   6.802  0.5038  3.1960 -1.5715
  118MOL   H32340337   6.063   1.478   6.531 -0.0894  0.8648  0.3329
  118MOL   H32440338   6.119   1.428   6.687  0.1157 -0.9726 -0.2894
  118MOL   C32540339   5.714   1.205   6.871  0.5269 -0.2004  0.1322
  118MOL   C32640340   5.838   1.106   6.886  0.0148  0.1266 -0.0283
  118MOL   N32740341   5.960   1.161   6.955 -0.2075 -0.3226 -0.3868
  118MOL   C32840342   6.095   1.148   6.892 -0.4341 -0.8133  0.2514
  118MOL   C32940343   6.180   1.256   6.970 -0.1266  0.0160  0.3289
  118MOL   C33040344   6.109   1.267   7.103  0.1154 -0.2321  0.0748
  118MOL   C33140345   5.967   1.222   7.071  0.4162  0.1307 -0.3923
  118MOL   O33240346   5.873   1.253   7.148 -0.3896  0.1813  0.1786
  118MOL   H33340347   5.630   1.135   6.869  0.6069 -0.3017  0.3745
  118MOL   H33440348   5.705   1.266   6.961 -0.7461  0.1529 -0.2173
  118MOL   H33540349   5.861   1.082   6.782 -3.4806  0.1117 -0.8428
  118MOL   H33640350   6.125   1.044   6.904  1.9701  0.0132  1.8535
  118MOL   H33740351   6.092   1.155   6.783 -2.5143  1.1279  0.3989
  118MOL   H33840352   6.282   1.220   6.982  0.7395  2.2631 -0.0838
  118MOL   H33940353   6.172   1.347   6.909 -1.6262 -1.2941 -1.4990
  118MOL   H34040354   6.143   1.190   7.171 -1.9328 -1.4473 -0.2603
  118MOL   H34140355   6.123   1.360   7.159 -0.1571 -0.3380  0.3218
  118MOL   H34240356   5.804   1.017   6.938  0.2123  1.7516  3.0067
  119MOL     C140357   1.324   5.391   6.135  0.0938  0.5093  0.5194
  119MOL     C240358   1.347   5.518   6.220 -0.7397 -0.0531 -0.6481
  119MOL     N340359   1.428   5.483   6.334 -0.5564  0.6768  0.0203
  119MOL     C440360   1.364   5.433   6.457  0.3861  0.1828 -0.0429
  119MOL     C540361   1.480   5.412   6.556 -0.2995  0.3495  0.9094
  119MOL     C640362   1.609   5.435   6.479  0.2205 -0.1343  0.2673
  119MOL     C740363   1.563   5.482   6.342  0.2246 -0.1526  0.3188
  119MOL     O840364   1.641   5.504   6.246  0.0582  0.9504  0.6375
  119MOL     H940365   1.306   5.311   6.208 -0.9318  0.4356  0.1967
  119MOL    H1040366   1.241   5.392   6.064 -2.7903  0.7764  3.7396
  119MOL    H1140367   1.246   5.535   6.259 -0.6418 -0.6370 -0.1273
  119MOL    H1240368   1.310   5.519   6.496 -0.6851 -0.8090  0.6713
  119MOL    H1340369   1.308   5.341   6.440  1.3281 -0.4259  0.0622
  119MOL    H1440370   1.465   5.479   6.641  0.1649  1.0547  0.4370
  119MOL    H1540371   1.487   5.310   6.593  1.5788 -0.2228 -0.9489
  119MOL    H1640372   1.670   5.515   6.520  0.3585  0.8373 -1.7938
  119MOL    H1740373   1.678   5.350   6.475 -0.2531 -0.5976  1.6304
  119MOL    H1840374   1.412   5.370   6.074  1.4264  3.0856  1.4912
  119MOL    C1940375   1.396   5.657   6.158  0.7628 -0.1189 -0.4801
  119MOL    C2040376   1.318   5.695   6.032  0.8042 -0.1764 -0.1718
  119MOL    N2140377   1.176   5.728   6.057 -0.2399  0.1023  0.3673
  119MOL    C2240378   1.065   5.645   6.006  0.4549  0.0747 -0.2553
  119MOL    C2340379   0.940   5.722   6.045  0.6875 -0.4494  0.5505
  119MOL    C2440380   0.989   5.850   6.122 -0.1350  0.3312  0.7206
  119MOL    C2540381   1.134   5.841   6.121  0.7253  0.4635  0.6710
  119MOL    O2640382   1.204   5.923   6.179 -0.0284 -0.2362 -0.0188
  119MOL    H2740383   1.503   5.655   6.135  0.4959 -1.3762 -1.7067
  119MOL    H2840384   1.404   5.743   6.224  2.0179 -0.4302 -0.2048
  119MOL    H2940385   1.316   5.604   5.971  3.2060  0.9895 -2.1224
  119MOL    H3040386   1.059   5.627   5.898 -1.7548 -1.4553  0.0868
  119MOL    H3140387   1.073   5.551   6.061 -1.2091  1.4810  2.4287
  119MOL    H3240388   0.888   5.749   5.953 -0.3505 -0.1197  1.2321
  119MOL    H3340389   0.867   5.660   6.097  0.0670 -1.5964 -1.6505
  119MOL    H3440390   0.950   5.944   6.084  0.6309  0.9457  1.4427
  119MOL    H3540391   0.944   5.846   6.222  0.9643  0.8534  1.2447
  119MOL    C3640392   1.385   5.813   5.945  0.3713  0.2347 -0.4182
  119MOL    C3740393   1.534   5.788   5.893  0.4794 -0.3335  0.0856
  119MOL    N3840394   1.550   5.651   5.847 -0.5989 -0.8160 -0.6684
  119MOL    C3940395   1.655   5.568   5.894  0.4059  0.8665 -0.2798
  119MOL    C4040396   1.629   5.425   5.841  0.8089 -0.0845  0.0458
  119MOL    C4140397   1.506   5.439   5.755  0.5042 -0.0708  0.1354
  119MOL    C4240398   1.471   5.586   5.763 -0.3057  0.7589  0.2507
  119MOL    O4340399   1.374   5.628   5.702  0.5332 -0.2850 -0.5168
  119MOL    H4440400   1.376   5.903   6.006  0.4170  0.4471 -0.7239
  119MOL    H4540401   1.316   5.818   5.861 -0.0621 -0.6297 -0.1231
  119MOL    H4640402   1.601   5.786   5.979  1.4117 -0.2360 -0.6304
  119MOL    H4740403   1.753   5.607   5.868  0.8278  0.3116  0.4618
  119MOL    H4840404   1.646   5.559   6.002  1.3659 -0.3349 -0.2902
  119MOL    H4940405   1.707   5.395   5.772  0.1476 -2.3963  0.2478
  119MOL    H5040406   1.613   5.349   5.918 -0.6226  0.4331  0.2828
  119MOL    H5140407   1.533   5.417   5.652  1.9245  0.1715  0.4468
  119MOL    H5240408   1.428   5.373   5.794 -0.7228  1.7243  0.7828
  119MOL    C5340409   1.573   5.885   5.786  0.5410 -0.3014 -0.1175
  119MOL    C5440410   1.591   6.032   5.829  1.1074 -0.0316 -0.4682
  119MOL    N5540411   1.722   6.044   5.893 -0.4703 -0.1063  0.2770
  119MOL    C5640412   1.727   6.074   6.040 -0.4903  0.7680 -0.3903
  119MOL    C5740413   1.870   6.109   6.061  0.2681 -0.4134 -0.0595
  119MOL    C5840414   1.939   6.094   5.926 -0.6325  0.1339 -0.4292
  119MOL    C5940415   1.835   6.066   5.825 -0.0984 -0.1212  0.0295
  119MOL    O6040416   1.856   6.053   5.705 -0.0895  0.2434 -0.3112
  119MOL    H6140417   1.492   5.892   5.713 -0.5555  1.3441  1.2055
  119MOL    H6240418   1.652   5.844   5.723 -0.6760 -1.2193 -1.0909
  119MOL    H6340419   1.518   6.059   5.905  0.9631  0.8366 -0.9091
  119MOL    H6440420   1.672   6.165   6.062 -0.5406  0.2463  1.7824
  119MOL    H6540421   1.689   5.988   6.095  0.6554 -0.2588 -1.1489
  119MOL    H6640422   1.871   6.211   6.099 -0.2659 -0.4855  0.1560
  119MOL    H6740423   1.904   6.039   6.138 -1.8737 -0.0274  1.2641
  119MOL    H6840424   1.992   6.184   5.894  0.5568 -0.6716 -0.7540
  119MOL    H6940425   2.008   6.009   5.925  1.0613  1.4896 -1.2863
  119MOL    C7040426   1.568   6.134   5.723 -0.2683  0.4775  0.2447
  119MOL    C7140427   1.417   6.174   5.706  0.2120  0.7729 -0.0778
  119MOL    N7240428   1.351   6.228   5.820  0.1190  0.1734 -0.6278
  119MOL    C7340429   1.220   6.182   5.860 -0.7787  0.0415 -0.5821
  119MOL    C7440430   1.170   6.264   5.980  0.8084 -0.2790  0.6679
  119MOL    C7540431   1.292   6.352   6.010 -0.5542  0.3380  0.7064
  119MOL    C7640432   1.400   6.311   5.918  0.1548 -0.3667  0.0218
  119MOL    O7740433   1.518   6.352   5.923 -0.0616 -0.1137 -0.0758
  119MOL    H7840434   1.614   6.105   5.629 -1.6550  0.8313 -0.5688
  119MOL    H7940435   1.627   6.222   5.748  2.8259 -1.8705  1.4305
  119MOL    H8040436   1.359   6.084   5.689 -0.9388  1.3315  0.8398
  119MOL    H8140437   1.148   6.209   5.783  0.5708  2.9478 -0.8662
  119MOL    H8240438   1.224   6.077   5.889  0.1180  0.6845  1.6937
  119MOL    H8340439   1.080   6.319   5.952  0.7939 -1.6348 -2.1911
  119MOL    H8440440   1.148   6.212   6.073  0.6635  0.6650  1.1664
  119MOL    H8540441   1.273   6.458   5.996  1.5027  0.8390  1.4701
  119MOL    H8640442   1.326   6.324   6.110 -2.3146  1.4914  1.6556
  119MOL    C8740443   1.393   6.266   5.589 -0.3220 -0.5945 -0.0073
  119MOL    C8840444   1.371   6.196   5.448  0.5847 -0.4880 -0.2167
  119MOL    N8940445   1.263   6.099   5.438 -0.1127  0.0393 -0.7409
  119MOL    C9040446   1.296   5.971   5.372  0.2234 -0.0533 -0.3316
  119MOL    C9140447   1.157   5.912   5.338  0.0810  0.4292  0.7810
  119MOL    C9240448   1.052   5.983   5.421  0.1200  0.1225 -0.4613
  119MOL    C9340449   1.131   6.109   5.462  0.2900 -1.1714  0.9117
  119MOL    O9440450   1.073   6.207   5.510  0.0774 -0.0216 -0.2203
  119MOL    H9540451   1.474   6.337   5.583 -0.3912 -0.5438 -0.3105
  119MOL    H9640452   1.305   6.328   5.610  0.7925  1.1641 -0.4764
  119MOL    H9740453   1.460   6.137   5.427  0.2152 -0.3502 -2.2343
  119MOL    H9840454   1.357   5.989   5.284  1.3930  0.6411  0.6057
  119MOL    H9940455   1.346   5.906   5.443 -2.1027 -1.0848  0.4333
  119MOL   H10040456   1.140   5.933   5.232  1.2095 -0.4384  0.4216
  119MOL   H10140457   1.147   5.804   5.347  0.4043  0.3314  0.0570
  119MOL   H10240458   0.955   5.981   5.373  0.2881  2.1113 -0.9351
  119MOL   H10340459   1.037   5.923   5.511 -1.7191  0.8010 -0.2962
  119MOL   C10440460   1.344   6.305   5.346  1.0324  0.3869 -0.0496
  119MOL   C10540461   1.452   6.424   5.333 -0.3608  0.0237 -0.3789
  119MOL   N10640462   1.585   6.373   5.314 -0.9734 -0.8048 -0.0478
  119MOL   C10740463   1.685   6.415   5.414  0.4819 -0.2053 -0.1908
  119MOL   C10840464   1.813   6.344   5.383 -0.0905 -0.0058  0.0572
  119MOL   C10940465   1.790   6.269   5.257 -0.0239  0.2574 -0.9444
  119MOL   C11040466   1.644   6.296   5.224 -0.4990  0.1909  0.3805
  119MOL   O11140467   1.589   6.239   5.127 -0.1557  0.1550  0.2704
  119MOL   H11240468   1.247   6.351   5.369 -0.1613 -2.3017  0.5433
  119MOL   H11340469   1.342   6.254   5.250  0.7544 -2.1635  1.2508
  119MOL   H11440470   1.452   6.486   5.423 -1.2294 -2.2451  1.2279
  119MOL   H11540471   1.705   6.522   5.404 -0.9609  0.3603  2.5333
  119MOL   H11640472   1.647   6.395   5.514  0.6083  2.3305  0.3927
  119MOL   H11740473   1.890   6.422   5.379  0.3575 -0.3571  1.4051
  119MOL   H11840474   1.851   6.277   5.460 -0.1170 -0.6355 -0.4758
  119MOL   H11940475   1.796   6.161   5.269 -1.3793  0.0955 -1.5745
  119MOL   H12040476   1.864   6.303   5.185  1.9416  0.8471  1.2812
  119MOL   C12140477   1.402   6.513   5.219 -0.6924 -0.2193  0.0885
  119MOL   C12240478   1.496   6.631   5.200 -0.1750  0.0905 -0.1801
  119MOL   N12340479   1.468   6.692   5.066 -0.7832  0.1357 -0.2129
  119MOL   C12440480   1.580   6.729   4.979 -0.4290  0.0677 -0.0856
  119MOL   C12540481   1.515   6.792   4.855  0.1704 -0.3525  0.5940
  119MOL   C12640482   1.372   6.822   4.893 -0.4928 -0.9506  1.0454
  119MOL   C12740483   1.352   6.741   5.017 -0.1404 -0.0636 -0.1331
  119MOL   O12840484   1.236   6.732   5.066 -0.4956  0.2767  0.0138
  119MOL   H12940485   1.300   6.549   5.231 -1.6451 -2.6636 -0.3749
  119MOL   H13040486   1.396   6.448   5.132  2.9557 -1.7856  0.9146
  119MOL   H13140487   1.603   6.608   5.196 -0.3893 -0.5663 -2.4300
  119MOL   H13240488   1.637   6.640   4.954 -1.2942 -0.4595 -0.2273
  119MOL   H13340489   1.650   6.792   5.032 -1.2490  1.4151 -0.5806
  119MOL   H13440490   1.570   6.883   4.829 -2.1611  1.1793  0.8889
  119MOL   H13540491   1.528   6.726   4.769 -0.8092 -0.1995  0.3248
  119MOL   H13640492   1.347   6.925   4.919 -0.3642 -0.5784 -0.2165
  119MOL   H13740493   1.300   6.796   4.815 -0.7017  1.4450  0.3880
  119MOL   C13840494   1.478   6.737   5.313 -0.3027  0.4431  0.8013
  119MOL   C13940495   1.548   6.876   5.305 -0.2378 -0.5235  0.8445
  119MOL   N14040496   1.453   6.987   5.336 -0.3110 -0.0119  0.1848
  119MOL   C14140497   1.402   7.003   5.474  0.1221  0.2743 -0.2401
  119MOL   C14240498   1.299   7.120   5.464  0.0675 -0.1992  0.1951
  119MOL   C14340499   1.289   7.158   5.322 -0.0484 -0.9316  0.0258
  119MOL   C14440500   1.385   7.061   5.252  0.2253 -0.3579  0.1794
  119MOL   O14540501   1.395   7.062   5.131  0.1350  0.2935  0.3968
  119MOL   H14640502   1.513   6.698   5.408 -0.1904  0.2747  0.6912
  119MOL   H14740503   1.372   6.744   5.338 -0.2343 -0.7798  1.4294
  119MOL   H14840504   1.571   6.885   5.198  1.0908  0.5519  1.2157
  119MOL   H14940505   1.352   6.910   5.499  0.0455  0.4082  0.1049
  119MOL   H15040506   1.477   7.020   5.550  0.1304  0.7974 -0.3639
  119MOL   H15140507   1.200   7.095   5.503 -0.1792  0.5809  0.0646
  119MOL   H15240508   1.336   7.212   5.507 -1.5696  0.6208 -0.1235
  119MOL   H15340509   1.315   7.262   5.300 -0.5015 -1.3447 -2.6621
  119MOL   H15440510   1.189   7.136   5.285 -0.6999  2.9340 -0.7515
  119MOL   C15540511   1.681   6.882   5.389 -0.1455  0.2685 -0.1814
  119MOL   C15640512   1.796   6.968   5.331  1.1062 -0.1705 -0.1589
  119MOL   N15740513   1.754   7.111   5.312  0.6965  0.2442  0.1859
  119MOL   C15840514   1.783   7.172   5.184  0.1246  0.0386  0.3099
  119MOL   C15940515   1.725   7.314   5.188 -0.5221 -0.7479  0.1140
  119MOL   C16040516   1.696   7.344   5.332  0.3982  0.1059  0.3166
  119MOL   C16140517   1.711   7.204   5.398 -0.6223 -0.5534 -0.1423
  119MOL   O16240518   1.686   7.183   5.514 -0.5289 -0.8784  0.0324
  119MOL   H16340519   1.715   6.780   5.403  1.6945  1.0309  1.1488
  119MOL   H16440520   1.654   6.914   5.490 -3.0260 -1.6681 -0.2896
  119MOL   H16540521   1.800   6.932   5.228  0.5478 -1.0773  0.1297
  119MOL   H16640522   1.892   7.174   5.181  0.1894  0.3377  1.9586
  119MOL   H16740523   1.751   7.121   5.093 -0.8435  0.1308  0.5909
  119MOL   H16840524   1.783   7.392   5.139 -0.3564 -0.9901 -0.0769
  119MOL   H16940525   1.635   7.320   5.127  0.2503  0.0183 -0.9771
  119MOL   H17040526   1.753   7.422   5.384  1.0635  1.5920 -2.5626
  119MOL   H17140527   1.591   7.368   5.344  0.1745 -1.7038  2.3131
  119MOL   C17240528   1.930   6.943   5.393 -0.3294 -0.6592 -0.1668
  119MOL   C17340529   1.998   6.805   5.359 -0.1772 -0.2069  0.6993
  119MOL   N17440530   2.010   6.783   5.215  0.7147  0.0912 -0.6920
  119MOL   C17540531   1.922   6.686   5.156 -0.0376 -0.4219 -1.3029
  119MOL   C17640532   1.948   6.696   5.009  0.1479  0.4361  0.1537
  119MOL   C17740533   2.022   6.823   4.980 -0.9166 -0.0877 -0.0762
  119MOL   C17840534   2.062   6.865   5.124  0.3356 -1.0418  0.4056
  119MOL   O17940535   2.121   6.968   5.145 -0.5408  0.2946 -0.2025
  119MOL   H18040536   1.915   6.977   5.495 -1.1504 -0.7730 -0.2406
  119MOL   H18140537   2.009   7.017   5.384 -0.7585 -0.3687 -1.7531
  119MOL   H18240538   1.935   6.726   5.398  0.6790 -2.3732 -2.0769
  119MOL   H18340539   1.934   6.584   5.192  0.7866  0.4865  1.0416
  119MOL   H18440540   1.820   6.723   5.171 -0.3552 -1.5403 -0.6362
  119MOL   H18540541   1.854   6.693   4.953  1.2302 -0.4554 -1.6618
  119MOL   H18640542   1.998   6.606   4.974 -2.1665 -0.8548  0.1027
  119MOL   H18740543   2.110   6.810   4.918  0.9589 -1.3532  2.7636
  119MOL   H18840544   1.949   6.895   4.942  0.9301  0.4522 -2.6951
  119MOL   C18940545   2.136   6.787   5.433 -0.2997 -0.3657  0.3069
  119MOL   C19040546   2.132   6.775   5.589 -0.0286  0.6889 -0.1698
  119MOL   N19140547   2.099   6.641   5.642 -0.2822  0.0495  0.7360
  119MOL   C19240548   1.977   6.612   5.715 -0.1258  0.0712 -0.4327
  119MOL   C19340549   1.976   6.468   5.755 -0.2321 -0.0487  0.6207
  119MOL   C19440550   2.101   6.407   5.692 -0.0522 -0.0689 -0.7220
  119MOL   C19540551   2.166   6.527   5.627  0.2178  0.9761 -0.0842
  119MOL   O19640552   2.268   6.511   5.566  0.0039  0.0788  0.2148
  119MOL   H19740553   2.195   6.876   5.409  1.4984 -1.4233  0.7105
  119MOL   H19840554   2.190   6.707   5.383  0.5442  0.8155 -0.7010
  119MOL   H19940555   2.051   6.841   5.621  0.2158  2.2628 -2.7118
  119MOL   H20040556   1.960   6.671   5.805  0.6326  0.4325 -0.5185
  119MOL   H20140557   1.895   6.634   5.645  2.1664  3.4984 -2.2131
  119MOL   H20240558   1.992   6.472   5.862 -1.9705 -0.9041  0.9215
  119MOL   H20340559   1.887   6.407   5.744 -0.7803  0.5793  1.5966
  119MOL   H20440560   2.182   6.370   5.754  1.3639 -0.0734 -2.5455
  119MOL   H20540561   2.081   6.333   5.615  0.2121 -0.5119 -0.3704
  119MOL   C20640562   2.252   6.837   5.669 -0.1199 -0.3999 -0.4175
  119MOL   C20740563   2.402   6.808   5.630  0.5809  1.0657  0.3915
  119MOL   N20840564   2.451   6.859   5.498 -0.8050 -0.3806 -0.5691
  119MOL   C20940565   2.493   6.763   5.397  0.0017  0.7397 -0.0882
  119MOL   C21040566   2.492   6.848   5.265 -0.9461 -0.4835  0.4345
  119MOL   C21140567   2.466   6.992   5.302 -0.4112 -0.7591 -0.2135
  119MOL   C21240568   2.448   6.983   5.454  0.4054 -0.0455 -0.0804
  119MOL   O21340569   2.443   7.077   5.531 -0.4160 -0.6829  0.7292
  119MOL   H21440570   2.235   6.807   5.773  1.7236 -1.7908 -0.4968
  119MOL   H21540571   2.246   6.946   5.672  1.7323 -0.2885 -0.1560
  119MOL   H21640572   2.417   6.703   5.606 -0.9368  0.8585  0.3254
  119MOL   H21740573   2.594   6.727   5.416  0.2111  0.7433 -1.1643
  119MOL   H21840574   2.423   6.681   5.379  0.9317  0.1785 -1.2287
  119MOL   H21940575   2.581   6.836   5.205  1.3625 -0.9906  3.8019
  119MOL   H22040576   2.402   6.823   5.208 -1.2918 -1.0678  1.2286
  119MOL   H22140577   2.552   7.059   5.290 -0.6342 -0.1469  1.5007
  119MOL   H22240578   2.378   7.038   5.258  1.2735 -0.4176 -3.4018
  119MOL   C22340579   2.504   6.842   5.738  0.2451 -0.1050  1.2935
  119MOL   C22440580   2.498   6.744   5.862  0.1965  0.8566  0.3394
  119MOL   N22540581   2.567   6.612   5.837 -0.3780 -0.1938 -0.2208
  119MOL   C22640582   2.503   6.483   5.844  0.1420 -0.3757 -0.2945
  119MOL   C22740583   2.616   6.378   5.833  0.8087 -0.0783 -0.0396
  119MOL   C22840584   2.736   6.458   5.783  0.2436 -0.0248  0.4119
  119MOL   C22940585   2.693   6.601   5.791 -0.3083  0.1672 -0.0212
  119MOL   O23040586   2.772   6.690   5.775 -0.2487  0.4248  0.1617
  119MOL   H23140587   2.487   6.948   5.760 -1.7915 -0.2543  0.5539
  119MOL   H23240588   2.604   6.853   5.696  0.0648 -2.9863  0.0306
  119MOL   H23340589   2.395   6.714   5.882  1.1419 -2.1701  0.8834
  119MOL   H23440590   2.443   6.475   5.935  0.4119  0.0936 -0.0744
  119MOL   H23540591   2.435   6.474   5.760 -2.9614 -2.5072  2.3153
  119MOL   H23640592   2.643   6.330   5.927  2.9085 -1.1252 -1.1335
  119MOL   H23740593   2.592   6.301   5.760 -1.5971  1.7758 -1.3177
  119MOL   H23840594   2.820   6.443   5.850  0.1941 -1.6078  0.1367
  119MOL   H23940595   2.763   6.425   5.682  1.6132  2.5782 -0.1209
  119MOL   C24040596   2.561   6.815   5.985 -0.4916 -0.0169  0.3519
  119MOL   C24140597   2.493   6.938   6.052  0.1354  0.1917 -0.3957
  119MOL   N24240598   2.346   6.939   6.054  0.6644 -0.2339  0.3415
  119MOL   C24340599   2.279   7.065   6.029  0.4653 -1.1989 -0.5913
  119MOL   C24440600   2.126   7.035   6.056  0.3577 -0.4715 -0.2850
  119MOL   C24540601   2.115   6.889   6.066 -0.0863  0.9462 -0.1224
  119MOL   C24640602   2.258   6.839   6.081  0.2474 -0.8634 -0.2534
  119MOL   O24740603   2.278   6.722   6.111  0.0419  0.3841 -0.0910
  119MOL   H24840604   2.661   6.838   5.950 -0.9578  0.6690 -0.5450
  119MOL   H24940605   2.586   6.739   6.060  2.0293 -0.7493 -1.1754
  119MOL   H25040606   2.533   7.027   6.002  3.1139 -0.9760 -0.1723
  119MOL   H25140607   2.312   7.151   6.088  0.6585 -0.8680 -1.1831
  119MOL   H25240608   2.291   7.093   5.925 -1.3989 -0.6626 -0.6981
  119MOL   H25340609   2.097   7.086   6.148 -0.6513 -1.0437 -0.2819
  119MOL   H25440610   2.061   7.077   5.980  1.1187  2.2404  0.5121
  119MOL   H25540611   2.039   6.857   6.137  0.1206  0.5143 -0.0988
  119MOL   H25640612   2.077   6.850   5.972  2.6523  0.0319 -0.8962
  119MOL   C25740613   2.528   6.945   6.206 -0.2762  0.0714  0.2768
  119MOL   C25840614   2.682   6.937   6.217 -0.2863 -1.0925 -0.1512
  119MOL   N25940615   2.739   7.068   6.158 -0.6728  0.4652 -0.6006
  119MOL   C26040616   2.857   7.058   6.074 -0.1261 -0.2084  0.4575
  119MOL   C26140617   2.893   7.200   6.040 -0.2445  0.7442  0.2044
  119MOL   C26240618   2.820   7.292   6.145  0.1524 -0.5123  1.0277
  119MOL   C26340619   2.709   7.197   6.193 -0.1937  0.9273  0.1042
  119MOL   O26440620   2.616   7.246   6.258  0.1830 -0.2016  0.4104
  119MOL   H26540621   2.489   6.866   6.271 -0.3152  1.2845  1.7371
  119MOL   H26640622   2.486   7.037   6.247 -0.9966  0.3874 -1.1048
  119MOL   H26740623   2.731   6.853   6.167  0.6199 -0.5918 -0.1068
  119MOL   H26840624   2.935   6.999   6.122  0.2604 -0.4496 -0.4639
  119MOL   H26940625   2.835   6.997   5.987 -0.5416  0.4087  0.1256
  119MOL   H27040626   3.000   7.213   6.051  0.1586 -0.1342 -2.4329
  119MOL   H27140627   2.866   7.214   5.936 -2.1923  0.4627  0.6536
  119MOL   H27240628   2.876   7.296   6.238 -0.0028 -1.1623  1.1532
  119MOL   H27340629   2.787   7.390   6.112 -2.1428 -1.4638  0.3495
  119MOL   C27440630   2.724   6.928   6.360 -0.0055 -0.3081  0.0725
  119MOL   C27540631   2.719   6.788   6.430  0.4515  0.6271  0.1373
  119MOL   N27640632   2.758   6.677   6.348 -0.2368 -0.1790 -0.8050
  119MOL   C27740633   2.669   6.568   6.321 -0.4657  0.3903 -0.8895
  119MOL   C27840634   2.733   6.458   6.242  0.1997 -0.3314 -0.2249
  119MOL   C27940635   2.870   6.514   6.217  0.0317 -0.2529  0.4520
  119MOL   C28040636   2.875   6.652   6.285  0.2179  0.2021 -0.1714
  119MOL   O28140637   2.969   6.728   6.274  0.0692 -0.2535  1.4527
  119MOL   H28240638   2.667   6.999   6.419  1.2584  0.2740  0.6145
  119MOL   H28340639   2.829   6.958   6.365  0.0170  0.0893 -1.9989
  119MOL   H28440640   2.613   6.776   6.448  0.5560  1.5570  1.4179
  119MOL   H28540641   2.638   6.527   6.417 -1.3575  1.1971 -0.8264
  119MOL   H28640642   2.581   6.591   6.261 -0.3899  2.4828 -0.2291
  119MOL   H28740643   2.746   6.362   6.293  0.9601  0.0335  0.2709
  119MOL   H28840644   2.681   6.425   6.152 -1.3241  2.5557 -0.4717
  119MOL   H28940645   2.942   6.450   6.267  0.3236  0.3648  0.8309
  119MOL   H29040646   2.888   6.512   6.110 -1.4565 -1.6593  0.2085
  119MOL   C29140647   2.795   6.791   6.566 -0.4298  0.5339 -0.0476
  119MOL   C29240648   2.732   6.849   6.690 -0.0525 -0.5932 -0.7933
  119MOL   N29340649   2.625   6.759   6.741 -0.1575 -0.3324 -0.6208
  119MOL   C29440650   2.488   6.805   6.732 -0.0436 -0.2173 -0.5555
  119MOL   C29540651   2.415   6.681   6.784  0.8249  0.2206  0.3441
  119MOL   C29640652   2.508   6.565   6.791 -0.3811  0.0089 -0.0896
  119MOL   C29740653   2.636   6.632   6.792 -0.4673 -0.4089 -0.0437
  119MOL   O29840654   2.735   6.576   6.836 -0.1804  0.5324 -0.2422
  119MOL   H29940655   2.887   6.847   6.550 -1.2990  1.2513 -2.8094
  119MOL   H30040656   2.832   6.694   6.599  0.5390  0.2547 -1.9010
  119MOL   H30140657   2.683   6.944   6.668 -0.9502 -0.9223 -0.2525
  119MOL   H30240658   2.450   6.890   6.789 -2.6977 -1.7292  0.0095
  119MOL   H30340659   2.461   6.829   6.629 -1.5658  0.7019  0.0305
  119MOL   H30440660   2.380   6.711   6.883 -0.5201  0.5627 -0.2278
  119MOL   H30540661   2.333   6.654   6.718  1.2138  0.1428 -0.1142
  119MOL   H30640662   2.516   6.507   6.884  0.2318 -0.4397 -0.4208
  119MOL   H30740663   2.506   6.500   6.704  1.1891  1.1454 -0.9822
  119MOL   C30840664   2.832   6.891   6.804 -0.1028 -0.3073 -0.0629
  119MOL   C30940665   2.915   7.021   6.775 -0.6663  0.2155 -0.2864
  119MOL   N31040666   2.827   7.135   6.745  0.0809 -0.2537 -0.3024
  119MOL   C31140667   2.854   7.213   6.624 -0.5782 -0.8624 -0.0367
  119MOL   C31240668   2.732   7.299   6.606  0.3324 -0.2942 -0.4069
  119MOL   C31340669   2.653   7.290   6.739 -0.1589  0.5490  0.4142
  119MOL   C31440670   2.728   7.186   6.826  0.3951 -0.5519  0.4952
  119MOL   O31540671   2.685   7.148   6.934 -0.3002 -0.5901 -0.2682
  119MOL   H31640672   2.899   6.811   6.838 -1.6096 -0.5197  2.6313
  119MOL   H31740673   2.776   6.902   6.898 -1.3130  1.2166 -0.9471
  119MOL   H31840674   2.964   6.992   6.682  0.0413 -0.2729  0.2334
  119MOL   H31940675   2.943   7.270   6.652 -1.3248 -0.7933  2.3107
  119MOL   H32040676   2.873   7.151   6.536  0.6542  0.1934 -0.5364
  119MOL   H32140677   2.765   7.398   6.573 -0.9597 -0.5993 -2.6808
  119MOL   H32240678   2.661   7.256   6.536 -2.6991 -0.7819  2.7824
  119MOL   H32340679   2.641   7.381   6.798  0.2768  1.2092 -0.5076
  119MOL   H32440680   2.550   7.259   6.720 -0.4270  2.4683 -1.5091
  119MOL   C32540681   3.020   7.047   6.879  1.2451  0.2447  0.7136
  119MOL   C32640682   3.149   6.965   6.852 -0.1227  0.0230 -0.6221
  119MOL   N32740683   3.263   7.016   6.935  0.0428 -0.2332 -0.1012
  119MOL   C32840684   3.344   6.914   7.013  0.4136 -0.2365  0.5334
  119MOL   C32940685   3.467   6.992   7.062 -0.0966  0.7493 -0.6764
  119MOL   C33040686   3.460   7.128   7.002  0.3862 -0.0835  0.5246
  119MOL   C33140687   3.331   7.125   6.920 -0.0246  0.5248 -0.4813
  119MOL   O33240688   3.304   7.218   6.847  0.5001  0.4340 -0.4486
  119MOL   H33340689   2.986   7.012   6.977  1.6678 -0.7325  0.5238
  119MOL   H33440690   3.055   7.150   6.877 -0.5101  0.8685  0.9093
  119MOL   H33540691   3.179   7.007   6.756 -0.4132  0.0777 -0.6884
  119MOL   H33640692   3.290   6.867   7.096 -2.4035  0.6140 -0.7742
  119MOL   H33740693   3.378   6.829   6.955  0.1052 -0.3595  0.5300
  119MOL   H33840694   3.473   6.993   7.171  1.7018  1.9292 -0.7625
  119MOL   H33940695   3.557   6.939   7.032 -0.7349 -0.2023 -0.9411
  119MOL   H34040696   3.451   7.198   7.085  1.5843 -0.0716  0.6554
  119MOL   H34140697   3.556   7.129   6.950  0.7804  0.4248  1.2490
  119MOL   H34240698   3.140   6.856   6.848  1.8318 -0.1651 -0.3888
  120MOL     C140699   3.087   3.746   4.651  0.4143 -0.2853  0.3616
  120MOL     C240700   2.973   3.660   4.692 -0.5798 -0.0169  0.2731
  120MOL     N340701   2.934   3.683   4.831 -0.5228  0.3731 -0.0675
  120MOL     C440702   2.945   3.573   4.927  0.2759 -0.1995 -0.1830
  120MOL     C540703   2.906   3.630   5.064  0.3352  0.5065  0.3023
  120MOL     C640704   2.834   3.760   5.034 -0.1013  0.0788 -0.2332
  120MOL     C740705   2.866   3.783   4.887 -0.3590 -0.0319  0.5779
  120MOL     O840706   2.830   3.888   4.835  0.5907 -0.1800 -0.0692
  120MOL     H940707   3.052   3.849   4.651 -2.3889 -1.1913 -0.0932
  120MOL    H1040708   3.161   3.743   4.731  0.3699 -0.2444  0.4045
  120MOL    H1140709   3.009   3.558   4.699 -0.1017  0.0729 -0.8267
  120MOL    H1240710   2.886   3.487   4.898  0.4975 -0.1922 -0.6665
  120MOL    H1340711   3.051   3.548   4.940  0.3345  0.0181 -0.2341
  120MOL    H1440712   2.835   3.568   5.119  0.2856  1.5948  1.4992
  120MOL    H1540713   3.002   3.651   5.112  0.6173  0.9631 -0.4578
  120MOL    H1640714   2.725   3.759   5.045 -0.4019 -2.5400 -2.8351
  120MOL    H1740715   2.875   3.845   5.088 -0.6635  1.1320 -1.4362
  120MOL    H1840716   3.120   3.724   4.550 -1.2437  0.4976 -0.3672
  120MOL    C1940717   2.855   3.661   4.587 -0.0017  0.5555  0.4432
  120MOL    C2040718   2.727   3.564   4.602  0.0940  0.4811 -0.0283
  120MOL    N2140719   2.637   3.607   4.706  0.5692  0.2308 -0.1076
  120MOL    C2240720   2.576   3.739   4.708 -0.0723  0.0692  0.1865
  120MOL    C2340721   2.493   3.753   4.839 -0.7821  0.0368  0.6482
  120MOL    C2440722   2.485   3.611   4.887  0.0794  0.7804 -0.5321
  120MOL    C2540723   2.592   3.533   4.810  0.1254 -0.4336 -0.2056
  120MOL    O2640724   2.629   3.417   4.843 -0.0746 -0.5594 -0.0032
  120MOL    H2740725   2.902   3.640   4.491 -1.1767  0.7608 -0.1726
  120MOL    H2840726   2.826   3.765   4.577 -0.3037  0.4422  0.1564
  120MOL    H2940727   2.771   3.469   4.633  0.7371  0.9828  0.6187
  120MOL    H3040728   2.651   3.815   4.686  1.2038 -1.5666 -1.2209
  120MOL    H3140729   2.508   3.741   4.623 -1.7219  1.8306  1.5058
  120MOL    H3240730   2.545   3.822   4.906 -1.5210  0.3435  0.9136
  120MOL    H3340731   2.394   3.794   4.815 -0.2384 -1.0744 -3.9265
  120MOL    H3440732   2.512   3.620   4.992 -0.1418  4.6543 -0.7280
  120MOL    H3540733   2.381   3.584   4.869  0.1695 -0.6888  1.0096
  120MOL    C3640734   2.651   3.551   4.460  0.2858 -0.2460  0.0779
  120MOL    C3740735   2.521   3.457   4.446  0.1778  0.0066  0.3056
  120MOL    N3840736   2.428   3.489   4.330 -0.5694 -0.3934 -0.9385
  120MOL    C3940737   2.297   3.550   4.344  0.5916  0.2810  0.2169
  120MOL    C4040738   2.258   3.599   4.205  0.2391  0.0064  0.0307
  120MOL    C4140739   2.390   3.596   4.124 -0.2537 -0.5098  0.3897
  120MOL    C4240740   2.473   3.494   4.201 -0.3247  0.1824 -0.7634
  120MOL    O4340741   2.579   3.444   4.155  0.0867 -0.8810  0.0641
  120MOL    H4440742   2.725   3.515   4.388 -1.4808 -2.2218 -0.7865
  120MOL    H4540743   2.623   3.653   4.433  0.1285  0.5826  3.1478
  120MOL    H4640744   2.455   3.464   4.532  0.1468 -0.1106  0.2913
  120MOL    H4740745   2.230   3.474   4.385  2.2662 -0.2609  2.0381
  120MOL    H4840746   2.295   3.634   4.413 -0.0083  2.8809 -2.8330
  120MOL    H4940747   2.186   3.536   4.153  0.4950 -0.3836  0.1435
  120MOL    H5040748   2.225   3.703   4.209  0.2288 -0.0449  1.3971
  120MOL    H5140749   2.376   3.554   4.024 -0.8701  0.3527  0.1079
  120MOL    H5240750   2.447   3.688   4.121  0.7754 -1.1265  0.8638
  120MOL    C5340751   2.566   3.308   4.435 -0.0345  0.1945  0.0696
  120MOL    C5440752   2.451   3.200   4.402  0.0177 -0.7953  0.1915
  120MOL    N5540753   2.508   3.093   4.315 -0.6065  0.4326 -0.1564
  120MOL    C5640754   2.507   3.100   4.172 -0.2535  0.0554  0.2986
  120MOL    C5740755   2.570   2.976   4.119 -0.2702  0.8662  0.0992
  120MOL    C5840756   2.642   2.910   4.235  0.4692  0.5448 -0.0614
  120MOL    C5940757   2.601   3.001   4.355  0.2252 -0.2092  0.4310
  120MOL    O6040758   2.645   2.990   4.471 -0.4147 -0.8183 -0.0410
  120MOL    H6140759   2.615   3.276   4.527 -0.2432 -0.1639  0.0556
  120MOL    H6240760   2.647   3.301   4.362  0.2563 -1.3463  0.5286
  120MOL    H6340761   2.374   3.247   4.341  1.1838 -1.2870 -1.7100
  120MOL    H6440762   2.402   3.098   4.146 -0.8430 -1.6337  2.6309
  120MOL    H6540763   2.561   3.190   4.141 -0.7655  0.2448 -0.0516
  120MOL    H6640764   2.498   2.903   4.083 -0.6659  0.3212  1.9310
  120MOL    H6740765   2.641   3.011   4.045 -0.2155  0.4320 -0.0504
  120MOL    H6840766   2.616   2.806   4.255  1.0566  0.5787  0.9190
  120MOL    H6940767   2.747   2.938   4.234  0.7563 -0.5114 -0.3155
  120MOL    C7040768   2.390   3.154   4.538  0.2630 -0.7623 -0.4977
  120MOL    C7140769   2.276   3.052   4.521 -0.0640 -0.5795  0.5961
  120MOL    N7240770   2.270   2.963   4.640 -0.4651  0.7020 -0.2797
  120MOL    C7340771   2.349   2.838   4.635  0.2748  0.0817 -0.1888
  120MOL    C7440772   2.341   2.775   4.776 -0.8010  0.5882  0.4900
  120MOL    C7540773   2.296   2.889   4.870  0.1404  0.7291  0.1451
  120MOL    C7640774   2.248   2.999   4.768 -0.3952  0.2266  0.2623
  120MOL    O7740775   2.201   3.103   4.815  0.0043  0.2282 -0.2278
  120MOL    H7840776   2.369   3.245   4.595  2.0656  0.1004 -1.1886
  120MOL    H7940777   2.466   3.109   4.601  0.5138 -0.7195 -0.7699
  120MOL    H8040778   2.295   2.988   4.435  2.7786  0.0268  0.7117
  120MOL    H8140779   2.330   2.769   4.553  1.2979  1.3853 -1.5389
  120MOL    H8240780   2.451   2.873   4.622 -0.5669  2.5137 -0.4997
  120MOL    H8340781   2.259   2.704   4.767 -0.0901 -0.1757 -0.0133
  120MOL    H8440782   2.438   2.734   4.805  1.5483  3.7088 -2.3799
  120MOL    H8540783   2.217   2.862   4.940  0.8139  0.0891  0.6631
  120MOL    H8640784   2.384   2.915   4.930  1.1255  0.3773 -1.1269
  120MOL    C8740785   2.136   3.108   4.491 -0.0863 -0.0277  0.2216
  120MOL    C8840786   2.031   3.025   4.414  0.2367  0.4453 -1.3882
  120MOL    N8940787   2.011   2.899   4.488  0.2557 -1.0354 -0.0042
  120MOL    C9040788   1.930   2.887   4.608  0.1640 -1.0344  0.3447
  120MOL    C9140789   1.937   2.741   4.646  0.0022 -0.6317  0.5352
  120MOL    C9240790   1.966   2.671   4.517 -0.3592 -0.3116  0.3545
  120MOL    C9340791   2.037   2.777   4.437 -0.5794 -0.1140  0.3788
  120MOL    O9440792   2.107   2.753   4.340 -0.1998 -0.3147 -0.7333
  120MOL    H9540793   2.157   3.192   4.425 -2.1022 -0.2403 -0.7392
  120MOL    H9640794   2.089   3.140   4.583  0.5603  1.1025  0.1678
  120MOL    H9740795   2.078   3.002   4.319 -0.9008 -1.0299 -1.6109
  120MOL    H9840796   1.960   2.954   4.689  0.9973  1.2555 -1.8169
  120MOL    H9940797   1.827   2.903   4.576  0.4685 -1.2045 -0.7106
  120MOL   H10040798   2.023   2.733   4.713  0.4935 -0.8337 -0.1161
  120MOL   H10140799   1.857   2.700   4.707  0.8592 -0.8791  1.5169
  120MOL   H10240800   2.019   2.578   4.537 -1.5710 -1.1311 -0.2017
  120MOL   H10340801   1.872   2.651   4.465  0.1423  0.8086 -1.0294
  120MOL   C10440802   1.893   3.093   4.387  0.1921  0.2082 -0.5517
  120MOL   C10540803   1.910   3.223   4.311  1.0253  0.4198  0.0470
  120MOL   N10640804   1.967   3.222   4.170 -0.0526 -0.1865 -0.4552
  120MOL   C10740805   1.893   3.141   4.074 -0.0324 -0.3299 -0.8317
  120MOL   C10840806   1.958   3.172   3.944 -0.0908 -0.9100 -0.5508
  120MOL   C10940807   2.089   3.244   3.978 -0.6640  0.4160  0.3788
  120MOL   C11040808   2.091   3.251   4.127 -0.4885 -0.3825 -0.7058
  120MOL   O11140809   2.182   3.294   4.197  0.5752 -0.9472 -0.2710
  120MOL   H11240810   1.839   3.121   4.477 -0.4525 -0.7540 -0.6245
  120MOL   H11340811   1.820   3.029   4.337 -1.3077  1.3360  0.1666
  120MOL   H11440812   1.969   3.286   4.377 -0.3779 -0.2655  2.0156
  120MOL   H11540813   1.904   3.039   4.112  0.0575 -0.1497 -0.3613
  120MOL   H11640814   1.788   3.166   4.062 -0.8436 -0.4248  4.5627
  120MOL   H11740815   1.985   3.074   3.904  0.3153 -0.9523 -0.1783
  120MOL   H11840816   1.899   3.238   3.881  1.6828 -0.1980 -1.5050
  120MOL   H11940817   2.093   3.346   3.941  0.9764  0.5631  0.9226
  120MOL   H12040818   2.179   3.193   3.943 -0.4304 -0.9419  2.8161
  120MOL   C12140819   1.787   3.318   4.308  0.5013  0.2291  0.1168
  120MOL   C12240820   1.743   3.380   4.448  0.2868 -0.5775  0.5108
  120MOL   N12340821   1.849   3.445   4.531 -0.1538 -0.1204  0.0076
  120MOL   C12440822   1.889   3.392   4.661  0.4321 -0.6216  0.5253
  120MOL   C12540823   1.976   3.506   4.725 -0.3154 -0.2491 -0.4898
  120MOL   C12640824   2.009   3.606   4.609 -0.4354  0.2009 -0.4024
  120MOL   C12740825   1.925   3.553   4.493 -0.3095  0.4360 -0.5955
  120MOL   O12840826   1.917   3.612   4.390  0.2951  0.2574  0.5765
  120MOL   H12940827   1.700   3.257   4.280  0.5525  0.6751 -1.0640
  120MOL   H13040828   1.804   3.396   4.234  1.5299 -0.3935 -0.3219
  120MOL   H13140829   1.699   3.297   4.502  0.1187 -0.1508  1.0386
  120MOL   H13240830   1.955   3.306   4.647  0.1595 -0.7267 -0.1630
  120MOL   H13340831   1.807   3.356   4.723 -0.0416  0.5661  0.5966
  120MOL   H13440832   1.911   3.542   4.805 -2.2541 -2.3441 -1.0785
  120MOL   H13540833   2.063   3.459   4.771  0.7176  1.1571 -0.9861
  120MOL   H13640834   1.963   3.705   4.618 -1.2057 -0.2072  0.2469
  120MOL   H13740835   2.108   3.614   4.565 -0.2014  2.7426  0.5021
  120MOL   C13840836   1.621   3.471   4.433 -0.3195 -0.0557  0.1884
  120MOL   C13940837   1.502   3.453   4.531  0.0650  0.1665 -0.0554
  120MOL   N14040838   1.421   3.580   4.540  1.3920  0.1191  0.5845
  120MOL   C14140839   1.417   3.650   4.665  0.0715 -0.4315 -0.0845
  120MOL   C14240840   1.317   3.765   4.651 -0.2659  0.4777 -1.1493
  120MOL   C14340841   1.293   3.770   4.497  0.1869 -0.3960 -0.3006
  120MOL   C14440842   1.358   3.645   4.446  0.6781 -0.0802  0.1418
  120MOL   O14540843   1.359   3.610   4.330  0.7855 -0.2875 -0.3594
  120MOL   H14640844   1.571   3.481   4.336 -2.8143  2.3931  1.6524
  120MOL   H14740845   1.654   3.572   4.457  0.0595 -0.8022  2.9376
  120MOL   H14840846   1.545   3.438   4.630 -1.5648 -0.5711  0.5477
  120MOL   H14940847   1.385   3.574   4.737 -0.5040 -0.7873 -0.7170
  120MOL   H15040848   1.517   3.688   4.683  0.0548 -0.8864  1.0418
  120MOL   H15140849   1.220   3.739   4.694  0.1835  0.7783  0.0683
  120MOL   H15240850   1.352   3.862   4.687 -3.2115  0.5472  1.8331
  120MOL   H15340851   1.357   3.848   4.456 -1.2040  1.6550  1.3328
  120MOL   H15440852   1.189   3.787   4.473  0.0719  0.5673  0.8426
  120MOL   C15540853   1.414   3.331   4.497  0.6170  0.1577  1.1101
  120MOL   C15640854   1.295   3.302   4.591  0.1482 -0.5985  0.1108
  120MOL   N15740855   1.166   3.363   4.557 -0.1007  0.2803 -0.0095
  120MOL   C15840856   1.091   3.445   4.649  0.4499 -0.1780  0.5123
  120MOL   C15940857   1.001   3.530   4.560 -0.7201 -0.8633  0.1818
  120MOL   C16040858   0.977   3.431   4.441 -0.0432 -0.0770  0.0258
  120MOL   C16140859   1.101   3.342   4.438  0.6194 -0.0957 -0.2272
  120MOL   O16240860   1.128   3.261   4.348 -0.3630 -0.3209  0.1728
  120MOL   H16340861   1.478   3.245   4.481  0.9554  0.1987  2.1723
  120MOL   H16440862   1.380   3.338   4.394  0.2351  0.4587  1.2547
  120MOL   H16540863   1.313   3.353   4.685 -1.8711  1.4693 -0.5786
  120MOL   H16640864   1.034   3.388   4.723  0.8897 -0.1193  0.9001
  120MOL   H16740865   1.154   3.508   4.712  0.2396  0.6398 -0.0892
  120MOL   H16840866   0.910   3.563   4.610 -0.8034 -1.4055  0.3935
  120MOL   H16940867   1.057   3.618   4.528  0.2846 -1.4122  0.4109
  120MOL   H17040868   0.893   3.366   4.464 -0.3419 -0.3794 -1.7995
  120MOL   H17140869   0.959   3.486   4.349 -0.6596  1.2035  0.9090
  120MOL   C17240870   1.261   3.146   4.606 -0.7723 -0.5936  0.4241
  120MOL   C17340871   1.358   3.050   4.686 -0.2569  0.7596 -0.4882
  120MOL   N17440872   1.399   2.938   4.597  0.5930  0.6536 -0.7027
  120MOL   C17540873   1.309   2.822   4.577  0.9145  0.3310  0.3142
  120MOL   C17640874   1.389   2.723   4.496 -0.2463  0.0582 -0.2399
  120MOL   C17740875   1.532   2.778   4.493 -0.2243  0.1149 -0.2955
  120MOL   C17840876   1.516   2.924   4.536 -0.1045  0.3842  0.2439
  120MOL   O17940877   1.603   3.014   4.519 -0.1308 -0.0534  0.3744
  120MOL   H18040878   1.259   3.121   4.500 -1.5847  1.8650 -0.1783
  120MOL   H18140879   1.160   3.148   4.646 -0.9078 -2.7432  0.2398
  120MOL   H18240880   1.299   2.993   4.758  3.0969 -1.1931  0.8112
  120MOL   H18340881   1.282   2.770   4.669 -0.5461  1.9242  0.8267
  120MOL   H18440882   1.214   2.845   4.529  1.4881  1.7540 -0.1740
  120MOL   H18540883   1.342   2.713   4.398 -1.3628 -0.6313  0.3525
  120MOL   H18640884   1.385   2.622   4.537  1.6598  0.1285  0.1759
  120MOL   H18740885   1.609   2.727   4.551 -0.7157  0.4336  0.6368
  120MOL   H18840886   1.582   2.769   4.396  1.5552 -0.7401  0.6789
  120MOL   C18940887   1.481   3.118   4.761  1.0701  0.1840  0.4440
  120MOL   C19040888   1.572   3.040   4.858 -0.0248  0.3692 -0.0329
  120MOL   N19140889   1.683   3.120   4.910  0.0305  0.0385  0.5818
  120MOL   C19240890   1.819   3.079   4.882  0.1811 -0.3142 -0.7834
  120MOL   C19340891   1.909   3.171   4.959 -0.3997  0.1708  0.1132
  120MOL   C19440892   1.814   3.271   5.014  0.4379 -0.1346 -0.0845
  120MOL   C19540893   1.675   3.234   4.970  0.1717  0.7841  0.5682
  120MOL   O19640894   1.576   3.309   4.983  0.1434 -0.1112 -0.0995
  120MOL   H19740895   1.434   3.199   4.818  2.0214 -0.3080  1.9534
  120MOL   H19840896   1.547   3.167   4.689  1.2110 -1.2230 -0.3991
  120MOL   H19940897   1.620   2.953   4.813  2.2071 -0.0293  2.9623
  120MOL   H20040898   1.847   2.974   4.892  1.2757  0.0163 -0.2879
  120MOL   H20140899   1.835   3.104   4.777 -0.7707  3.2675 -0.1458
  120MOL   H20240900   1.983   3.126   5.026 -0.6597  2.8935  2.2919
  120MOL   H20340901   1.967   3.227   4.886  1.0823 -1.4934 -0.0397
  120MOL   H20440902   1.826   3.260   5.122  1.3277  2.7168  0.1504
  120MOL   H20540903   1.851   3.365   4.973 -1.7260  0.2011 -1.2925
  120MOL   C20640904   1.487   2.975   4.970  0.0949  0.7095  0.4931
  120MOL   C20740905   1.555   2.915   5.093  0.7087 -0.7649 -0.4751
  120MOL   N20840906   1.464   2.892   5.208  0.3009  0.6122  0.0339
  120MOL   C20940907   1.357   2.791   5.194 -0.3175  0.6424 -0.2115
  120MOL   C21040908   1.263   2.808   5.318  0.2070 -0.3294 -0.0399
  120MOL   C21140909   1.326   2.913   5.403  0.0212 -1.1448  0.0814
  120MOL   C21240910   1.455   2.951   5.325 -0.5903  0.4969  0.4630
  120MOL   O21340911   1.538   3.028   5.375 -0.5425  0.5551  0.3362
  120MOL   H21440912   1.437   2.889   4.926 -0.7094  0.6402  1.5192
  120MOL   H21540913   1.406   3.041   5.001  0.3172  0.0898  2.4837
  120MOL   H21640914   1.613   3.002   5.123  0.9619 -1.0266 -0.1937
  120MOL   H21740915   1.316   2.805   5.094 -0.5455 -2.7249 -0.6662
  120MOL   H21840916   1.401   2.691   5.198  1.0348  1.1740 -1.4036
  120MOL   H21940917   1.161   2.824   5.283  0.7865  2.0520 -0.7406
  120MOL   H22040918   1.266   2.715   5.375 -1.1866 -0.0623  0.4848
  120MOL   H22140919   1.264   3.003   5.396  2.3724  0.5949  0.8967
  120MOL   H22240920   1.330   2.884   5.508 -0.3586  0.1505  0.4723
  120MOL   C22340921   1.663   2.808   5.060 -0.0383 -0.1865 -0.2365
  120MOL   C22440922   1.744   2.784   5.191  0.3914 -0.4042 -0.2926
  120MOL   N22540923   1.789   2.645   5.200  0.6481 -0.1491  0.0930
  120MOL   C22640924   1.710   2.541   5.264 -0.5174 -0.8093 -0.1540
  120MOL   C22740925   1.785   2.414   5.254 -0.1037 -0.4338  0.4298
  120MOL   C22840926   1.919   2.444   5.185 -0.5622 -0.0219  0.7337
  120MOL   C22940927   1.901   2.591   5.149 -0.5464 -0.3988  0.8291
  120MOL   O23040928   1.992   2.656   5.090  0.0786  0.3056  0.0585
  120MOL   H23140929   1.717   2.846   4.974  1.5542 -1.1954  0.3066
  120MOL   H23240930   1.629   2.708   5.032 -1.2695 -0.0574  0.7369
  120MOL   H23340931   1.680   2.794   5.279 -0.4126 -2.9375 -0.5586
  120MOL   H23440932   1.699   2.571   5.369  0.2592 -0.1287 -0.2620
  120MOL   H23540933   1.609   2.527   5.225 -0.5559  0.7151 -0.6285
  120MOL   H23640934   1.807   2.371   5.352 -1.1130 -2.8981 -0.3821
  120MOL   H23740935   1.730   2.343   5.192 -0.6478  1.6661 -1.5528
  120MOL   H23840936   2.008   2.448   5.247  1.3499 -0.5280 -1.8978
  120MOL   H23940937   1.940   2.389   5.094 -2.3390 -2.1813  1.5987
  120MOL   C24040938   1.856   2.887   5.205 -0.7009  0.4142  0.2140
  120MOL   C24140939   1.961   2.871   5.325  0.2603 -0.2326  0.4114
  120MOL   N24240940   2.080   2.956   5.300 -0.0256 -0.0250  0.6787
  120MOL   C24340941   2.203   2.888   5.267 -0.5052  0.2115  0.1778
  120MOL   C24440942   2.291   3.006   5.232 -0.7742  0.0774  1.2420
  120MOL   C24540943   2.215   3.136   5.258  0.5947 -0.2963  0.8649
  120MOL   C24640944   2.078   3.092   5.295 -0.3727 -0.4125 -0.3594
  120MOL   O24740945   1.985   3.172   5.322  0.0317  0.2337  0.0228
  120MOL   H24840946   1.821   2.988   5.223  0.9059  0.9955  0.1492
  120MOL   H24940947   1.916   2.901   5.115  2.0266 -0.7480  1.7554
  120MOL   H25040948   1.994   2.768   5.330  0.9041 -0.0849 -0.8142
  120MOL   H25140949   2.247   2.835   5.351  2.3752  1.3585 -0.5278
  120MOL   H25240950   2.184   2.818   5.186 -0.4466  0.3663  0.0300
  120MOL   H25340951   2.390   3.006   5.277  0.2351  1.4281 -0.9248
  120MOL   H25440952   2.308   2.995   5.125  0.0191 -0.9338  1.4612
  120MOL   H25540953   2.265   3.197   5.333  0.9075  0.5858 -0.0429
  120MOL   H25640954   2.206   3.199   5.169 -0.7949  1.0757  1.9631
  120MOL   C25740955   1.886   2.904   5.461 -0.2238  0.0138  0.9007
  120MOL   C25840956   1.827   2.783   5.533 -0.1512  0.4336 -0.1605
  120MOL   N25940957   1.943   2.703   5.577  0.2721  0.2876  0.8440
  120MOL   C26040958   1.956   2.563   5.537 -0.3936  0.1141  0.0249
  120MOL   C26140959   2.083   2.515   5.614 -0.8871  0.1531 -0.1461
  120MOL   C26240960   2.151   2.633   5.677  0.3530 -0.6533  0.0066
  120MOL   C26340961   2.047   2.748   5.652 -0.1341  0.6650 -0.4689
  120MOL   O26440962   2.067   2.864   5.690  0.2211  0.4389  0.1666
  120MOL   H26540963   1.811   2.976   5.428 -0.4174 -0.2989  0.6578
  120MOL   H26640964   1.954   2.965   5.521  0.6944  0.1804 -0.2774
  120MOL   H26740965   1.754   2.735   5.469  0.6079 -1.1267  0.1237
  120MOL   H26840966   1.859   2.522   5.565 -0.3953  0.5517  0.6895
  120MOL   H26940967   1.989   2.561   5.433 -1.8790  0.9598 -0.4853
  120MOL   H27040968   2.058   2.446   5.695  2.1387  0.0062  0.7276
  120MOL   H27140969   2.150   2.454   5.552  0.2771 -1.6569  2.8003
  120MOL   H27240970   2.180   2.622   5.782  0.1329  0.5309  0.1937
  120MOL   H27340971   2.242   2.649   5.620 -0.1441  2.0220 -0.0892
  120MOL   C27440972   1.744   2.836   5.653  0.1063 -0.3341  0.8004
  120MOL   C27540973   1.677   2.728   5.746  0.5972  0.1540  0.6268
  120MOL   N27640974   1.645   2.788   5.875  0.2171 -0.6314  0.4314
  120MOL   C27740975   1.559   2.906   5.883 -0.2298 -0.5944 -1.4083
  120MOL   C27840976   1.534   2.937   6.038 -0.0579  0.2067 -0.9448
  120MOL   C27940977   1.620   2.828   6.108 -0.3197  0.4543  0.6396
  120MOL   C28040978   1.675   2.736   5.994 -0.1036  0.5833  0.4566
  120MOL   O28140979   1.740   2.633   6.014 -0.2256 -0.3375 -1.0216
  120MOL   H28240980   1.666   2.908   5.628 -0.5035 -0.9451  0.9458
  120MOL   H28340981   1.810   2.888   5.723  2.5001 -0.8678 -1.0165
  120MOL   H28440982   1.749   2.649   5.770  1.1098  0.3008 -0.3873
  120MOL   H28540983   1.580   3.005   5.841 -2.5443 -0.5387 -2.5194
  120MOL   H28640984   1.461   2.881   5.842 -0.8049 -0.6777  0.0018
  120MOL   H28740985   1.567   3.040   6.052 -1.4528  0.6573 -0.9798
  120MOL   H28840986   1.427   2.927   6.053  0.3876 -2.3251  0.8727
  120MOL   H28940987   1.701   2.871   6.166  0.5612 -1.5449  0.9511
  120MOL   H29040988   1.562   2.765   6.175  2.2589 -2.7173  0.0772
  120MOL   C29140989   1.558   2.663   5.680 -0.2775  0.4950 -0.1694
  120MOL   C29240990   1.488   2.554   5.760  0.7577  0.7691  0.3407
  120MOL   N29340991   1.368   2.604   5.832  0.0327 -0.3658  0.1764
  120MOL   C29440992   1.338   2.559   5.965 -0.1182 -0.5941  0.0964
  120MOL   C29540993   1.183   2.578   5.983  0.0979  0.4062  0.3108
  120MOL   C29640994   1.138   2.663   5.870  0.2988  0.6315  0.5893
  120MOL   C29740995   1.256   2.666   5.778  0.0317 -0.5846 -0.5519
  120MOL   O29840996   1.237   2.716   5.666  0.0964  0.4645  0.4891
  120MOL   H29940997   1.598   2.622   5.587  0.4878 -0.0985  0.4167
  120MOL   H30040998   1.492   2.736   5.633 -0.3060  0.6128  0.0589
  120MOL   H30140999   1.557   2.518   5.836 -0.4056  0.7414  1.3843
  120MOL   H30241000   1.353   2.451   5.968 -0.8750 -0.6723  1.7017
  120MOL   H30341001   1.410   2.608   6.030  0.7738  0.1658 -1.4410
  120MOL   H30441002   1.127   2.484   5.981  0.6114  0.1130 -1.4614
  120MOL   H30541003   1.162   2.617   6.083 -1.2406 -2.6358  1.2798
  120MOL   H30641004   1.047   2.624   5.824  0.4835 -2.8590  2.9801
  120MOL   H30741005   1.121   2.764   5.907  4.0443  0.2635  3.5054
  120MOL   C30841006   1.438   2.442   5.662  0.2871 -0.3227  0.3418
  120MOL   C30941007   1.544   2.356   5.600  0.0921  0.1138  0.1646
  120MOL   N31041008   1.620   2.295   5.708  0.0132 -0.1718  0.6256
  120MOL   C31141009   1.763   2.308   5.713  0.1436  0.1223  0.2675
  120MOL   C31241010   1.813   2.212   5.820 -0.3111 -0.3274 -0.4407
  120MOL   C31341011   1.683   2.173   5.895 -0.1164  0.1386 -1.1427
  120MOL   C31441012   1.572   2.208   5.801 -0.3929 -0.1499 -0.1938
  120MOL   O31541013   1.459   2.166   5.810  0.6726  0.1107  0.6328
  120MOL   H31641014   1.384   2.492   5.581 -2.8293 -1.6192  1.5232
  120MOL   H31741015   1.359   2.387   5.712 -1.0136  2.7481  1.7922
  120MOL   H31841016   1.606   2.428   5.546  2.5480  0.5494  3.4027
  120MOL   H31941017   1.809   2.278   5.618  1.0166 -0.0214  0.7280
  120MOL   H32041018   1.794   2.411   5.732 -1.7577  0.2688  2.7101
  120MOL   H32141019   1.872   2.133   5.772  0.8971 -0.7497  1.6669
  120MOL   H32241020   1.873   2.272   5.888  0.5021  0.3393 -1.7401
  120MOL   H32341021   1.690   2.066   5.910  0.4445  0.4108  0.6700
  120MOL   H32441022   1.687   2.223   5.992 -0.1820  1.0951 -1.6200
  120MOL   C32541023   1.484   2.246   5.512  0.1331  0.1115 -0.6823
  120MOL   C32641024   1.403   2.302   5.383  0.5676 -0.3639  0.4505
  120MOL   N32741025   1.374   2.193   5.295  0.1327 -0.2238 -0.0632
  120MOL   C32841026   1.260   2.102   5.317 -0.2623 -0.4698 -0.8988
  120MOL   C32941027   1.266   1.999   5.209 -0.1175  0.1086  0.5579
  120MOL   C33041028   1.396   2.034   5.132  0.4898 -0.9554  0.5671
  120MOL   C33141029   1.442   2.163   5.192  0.4827  0.0019 -0.3316
  120MOL   O33241030   1.529   2.230   5.137  0.0801  0.4182  0.4867
  120MOL   H33341031   1.418   2.192   5.580  0.4927  1.2333  0.5777
  120MOL   H33441032   1.565   2.189   5.466 -0.2608 -0.2060 -0.9830
  120MOL   H33541033   1.464   2.381   5.338 -0.3667  0.3480  0.3846
  120MOL   H33641034   1.263   2.046   5.411 -2.3044 -3.0065 -2.2747
  120MOL   H33741035   1.168   2.157   5.304 -1.1118 -1.3739  1.0682
  120MOL   H33841036   1.267   1.895   5.243 -0.0134 -0.3417 -0.7846
  120MOL   H33941037   1.181   2.008   5.141  0.1434 -0.0188  0.2163
  120MOL   H34041038   1.468   1.953   5.145  0.9357 -0.4383  1.3868
  120MOL   H34141039   1.376   2.050   5.026  3.7050 -3.9526 -0.5904
  120MOL   H34241040   1.307   2.353   5.398 -0.4223 -2.1563  0.3896
  121MOL     C141041   7.056   1.174   3.348  0.0056 -0.5558 -0.3095
  121MOL     C241042   7.142   1.188   3.219 -0.0971 -0.5686  0.0127
  121MOL     N341043   7.290   1.201   3.243 -0.2082 -0.1950  0.1240
  121MOL     C441044   7.362   1.316   3.199 -0.1083 -0.2322  0.7639
  121MOL     C541045   7.504   1.304   3.243  0.1849  0.2238  0.0984
  121MOL     C641046   7.517   1.156   3.289  0.4759  0.8713 -0.4433
  121MOL     C741047   7.374   1.113   3.299 -0.2779  0.2696 -0.0711
  121MOL     O841048   7.338   1.002   3.351  0.0877 -0.3455 -0.2478
  121MOL     H941049   6.948   1.174   3.332 -0.1108 -1.6482  0.4394
  121MOL    H1041050   7.073   1.077   3.393  0.6295  0.0090  0.7062
  121MOL    H1141051   7.116   1.277   3.161  2.3709 -1.6425 -2.8949
  121MOL    H1241052   7.347   1.332   3.092 -1.9646 -2.0246  0.7203
  121MOL    H1341053   7.309   1.406   3.232  0.5331  0.1279  0.8191
  121MOL    H1441054   7.579   1.314   3.165 -1.8225 -1.0603 -2.0598
  121MOL    H1541055   7.532   1.363   3.331  0.4546 -1.5469  1.2421
  121MOL    H1641056   7.558   1.091   3.212 -1.7338  1.0121 -1.7924
  121MOL    H1741057   7.578   1.155   3.379  0.1407  2.4288 -0.1850
  121MOL    H1841058   7.086   1.253   3.417  3.1113 -0.9654 -1.1114
  121MOL    C1941059   7.109   1.065   3.127 -0.2853 -0.4901 -0.0472
  121MOL    C2041060   6.974   1.076   3.054  0.4802  0.6345  0.0851
  121MOL    N2141061   6.964   1.199   2.969 -0.3913  0.3019  0.0758
  121MOL    C2241062   6.865   1.303   2.996  0.3735  0.0281 -0.3263
  121MOL    C2341063   6.882   1.408   2.886 -0.2316 -0.5351  0.2183
  121MOL    C2441064   6.996   1.360   2.798 -0.2939 -0.9439  0.1457
  121MOL    C2541065   7.044   1.235   2.866  0.3880  0.6234 -0.4822
  121MOL    O2641066   7.156   1.187   2.839 -0.3612  0.4542  0.1544
  121MOL    H2741067   7.120   0.972   3.184  0.3930 -0.8240 -0.7233
  121MOL    H2841068   7.185   1.056   3.050 -0.3616 -0.9546 -0.0697
  121MOL    H2941069   6.895   1.093   3.127 -0.4665  0.4762 -0.8733
  121MOL    H3041070   6.767   1.257   2.984 -1.1312  2.3113  2.3087
  121MOL    H3141071   6.876   1.327   3.102 -0.7904 -0.6534 -0.0335
  121MOL    H3241072   6.790   1.425   2.830 -0.4093 -0.3638  0.5623
  121MOL    H3341073   6.907   1.504   2.931  0.5219 -0.6521  0.0540
  121MOL    H3441074   6.947   1.336   2.703  1.5004  3.8801 -2.1092
  121MOL    H3541075   7.069   1.432   2.762 -1.0569 -1.2285 -2.1008
  121MOL    C3641076   6.934   0.957   2.962 -0.3697  0.0027 -0.4198
  121MOL    C3741077   6.901   0.822   3.041 -0.2261 -0.1154 -0.5723
  121MOL    N3841078   6.764   0.826   3.103 -0.0220 -0.2996 -0.1695
  121MOL    C3941079   6.748   0.814   3.247 -0.2032  0.9773  0.3634
  121MOL    C4041080   6.597   0.802   3.273 -0.1479  0.3382 -0.1097
  121MOL    C4141081   6.528   0.812   3.137  0.3632 -0.3417  0.0303
  121MOL    C4241082   6.648   0.832   3.041 -0.0002  0.0931 -0.1647
  121MOL    O4341083   6.636   0.853   2.927 -0.1583 -0.2213 -0.5260
  121MOL    H4441084   7.027   0.949   2.907 -0.0318  1.4799 -0.0704
  121MOL    H4541085   6.864   0.986   2.885 -2.3112  0.2006  1.3652
  121MOL    H4641086   6.973   0.812   3.122 -0.1551  1.9724 -0.3612
  121MOL    H4741087   6.798   0.727   3.288 -1.2947  0.3999  0.4967
  121MOL    H4841088   6.786   0.906   3.291  0.4923  1.6013 -1.4856
  121MOL    H4941089   6.580   0.707   3.323 -2.9469  1.7141  1.6488
  121MOL    H5041090   6.557   0.873   3.345  2.1059  0.8720  0.6639
  121MOL    H5141091   6.471   0.722   3.116  0.6709  0.2049 -3.4267
  121MOL    H5241092   6.466   0.900   3.124  1.4160  0.0692 -2.5969
  121MOL    C5341093   6.928   0.697   2.949  0.2713 -0.2367 -0.6672
  121MOL    C5441094   7.081   0.689   2.908  0.4909  0.1199 -0.5114
  121MOL    N5541095   7.169   0.661   3.024 -0.4348 -0.0247  0.9153
  121MOL    C5641096   7.301   0.727   3.032 -0.0225 -0.0807 -0.2654
  121MOL    C5741097   7.357   0.687   3.166 -0.0081  0.0930 -0.0769
  121MOL    C5841098   7.275   0.567   3.214 -0.2773 -0.5655  0.2551
  121MOL    C5941099   7.153   0.575   3.125  0.6829  0.2437  0.0045
  121MOL    O6041100   7.047   0.514   3.150  0.4444 -0.5192  0.3486
  121MOL    H6141101   6.872   0.699   2.856 -1.5159 -3.2405  0.2710
  121MOL    H6241102   6.903   0.611   3.012 -1.2199  2.7512  2.9617
  121MOL    H6341103   7.122   0.775   2.855  1.0326  0.2895  0.1752
  121MOL    H6441104   7.354   0.685   2.947 -2.4658  0.4617 -2.1168
  121MOL    H6541105   7.300   0.836   3.031  0.8475 -0.0453  0.9992
  121MOL    H6641106   7.465   0.669   3.163 -0.0423 -0.0620 -0.4474
  121MOL    H6741107   7.359   0.762   3.244  2.2111  1.3347 -1.2533
  121MOL    H6841108   7.338   0.480   3.195 -0.2863 -0.3005 -1.0259
  121MOL    H6941109   7.255   0.568   3.321  1.7991 -0.5775  0.6553
  121MOL    C7041110   7.103   0.573   2.804 -0.5506 -0.1926  0.3897
  121MOL    C7141111   7.011   0.578   2.675  0.0223  0.8288  0.4114
  121MOL    N7241112   6.980   0.712   2.635  0.5123  0.4548  0.0866
  121MOL    C7341113   6.843   0.744   2.586  0.0342  0.5152 -0.4952
  121MOL    C7441114   6.819   0.894   2.595 -0.2151 -0.0425  0.2000
  121MOL    C7541115   6.967   0.947   2.595  0.0729 -0.3846  0.2445
  121MOL    C7641116   7.054   0.825   2.614  0.4156  0.4598 -0.3321
  121MOL    O7741117   7.182   0.824   2.617 -0.0562 -0.0374 -0.5036
  121MOL    H7841118   7.085   0.479   2.857 -1.2762  1.0786  2.4355
  121MOL    H7941119   7.204   0.563   2.762 -1.1455  0.3802 -1.2304
  121MOL    H8041120   6.921   0.525   2.703 -1.8977  1.5733 -3.9452
  121MOL    H8141121   6.843   0.709   2.482 -1.4961 -1.7107  0.2164
  121MOL    H8241122   6.759   0.697   2.638  0.9347  2.8040  3.1312
  121MOL    H8341123   6.773   0.931   2.504  0.7935 -2.5005 -1.3815
  121MOL    H8441124   6.756   0.923   2.679  0.4702 -1.3415  1.1890
  121MOL    H8541125   6.991   0.995   2.500 -1.2880  0.4985  0.3409
  121MOL    H8641126   6.988   1.024   2.669 -0.8725  0.2224 -0.1150
  121MOL    C8741127   7.071   0.492   2.559 -0.5816  1.2301 -0.5350
  121MOL    C8841128   7.092   0.340   2.587 -0.4521  0.4435  0.3384
  121MOL    N8941129   6.984   0.266   2.526  0.5251 -0.0947 -0.8640
  121MOL    C9041130   6.866   0.243   2.610 -0.3871  0.3320 -0.6450
  121MOL    C9141131   6.763   0.182   2.515 -0.6105  0.0759  0.9097
  121MOL    C9241132   6.824   0.175   2.374  0.4439  0.0475 -0.2393
  121MOL    C9341133   6.961   0.237   2.396 -0.8657 -0.5022  0.1619
  121MOL    O9441134   7.039   0.271   2.303  0.4118  0.2431  0.2089
  121MOL    H9541135   7.158   0.544   2.518  0.9180 -1.3142 -0.6501
  121MOL    H9641136   6.997   0.492   2.478 -2.2834  0.7040  0.9814
  121MOL    H9741137   7.083   0.321   2.694 -1.3198  1.6889  0.4922
  121MOL    H9841138   6.881   0.175   2.694  2.2972 -0.8465 -2.0378
  121MOL    H9941139   6.823   0.335   2.651 -1.0109  1.2040 -3.1302
  121MOL   H10041140   6.717   0.091   2.554 -0.4141 -1.2279 -1.7824
  121MOL   H10141141   6.670   0.240   2.515  0.0768  1.1868  0.9224
  121MOL   H10241142   6.845   0.073   2.341 -2.1170 -0.1560 -1.4065
  121MOL   H10341143   6.774   0.236   2.299  0.8407  0.1361 -0.4297
  121MOL   C10441144   7.237   0.296   2.533 -0.1377  0.8017  0.2174
  121MOL   C10541145   7.275   0.148   2.556  0.2342  0.0874 -0.4183
  121MOL   N10641146   7.385   0.108   2.471 -0.8849 -0.0275  0.1781
  121MOL   C10741147   7.393   7.889   2.400 -0.1836 -0.5829  0.9893
  121MOL   C10841148   7.537   7.885   2.338  0.1138 -0.1424 -0.0856
  121MOL   C10941149   7.611   0.097   2.399  0.7065  0.0380 -0.4822
  121MOL   C11041150   7.508   0.167   2.480 -0.3825 -0.8987  0.6487
  121MOL   O11141151   7.542   0.269   2.541  0.2133  0.1725 -0.4238
  121MOL   H11241152   7.310   0.366   2.576  0.7173 -0.6353  1.1581
  121MOL   H11341153   7.239   0.334   2.431 -1.1544  0.5658  0.1034
  121MOL   H11441154   7.193   0.079   2.537  0.4584 -1.0519  2.5449
  121MOL   H11541155   7.373   7.808   2.469 -1.6940 -1.0882 -0.0126
  121MOL   H11641156   7.316   7.879   2.323  0.4281  1.1354  0.1172
  121MOL   H11741157   7.591   7.795   2.365  0.0933 -0.3885 -0.8692
  121MOL   H11841158   7.537   7.891   2.229  3.6091 -1.0113 -0.1937
  121MOL   H11941159   7.654   0.176   2.336  0.0425  1.4931  0.8558
  121MOL   H12041160   7.691   0.051   2.456 -0.4769 -1.2124  0.2002
  121MOL   C12141161   7.305   0.119   2.705  0.1262 -0.0613 -0.5458
  121MOL   C12241162   7.176   0.073   2.785  0.6507 -0.2521  0.0714
  121MOL   N12341163   7.178   7.831   2.778 -0.3061 -0.1779 -0.1550
  121MOL   C12441164   7.061   7.768   2.711 -0.1911 -0.1583  0.6955
  121MOL   C12541165   7.078   7.620   2.752 -0.3587 -0.0657 -0.1056
  121MOL   C12641166   7.207   7.609   2.836  0.1292 -0.1907  0.1808
  121MOL   C12741167   7.256   7.748   2.848  0.4874  0.8082  0.3197
  121MOL   O12841168   7.354   7.776   2.917 -0.1991 -0.9075 -0.6121
  121MOL   H12941169   7.346   0.204   2.760 -3.3211  2.2252 -1.3259
  121MOL   H13041170   7.382   0.043   2.722 -1.4947 -1.1054  2.5797
  121MOL   H13141171   7.084   0.101   2.735 -0.8553 -0.3264  2.7217
  121MOL   H13241172   7.074   7.761   2.603  0.0198  0.0634  0.7065
  121MOL   H13341173   6.968   7.817   2.740  0.6488  1.4747  0.7213
  121MOL   H13441174   7.000   7.571   2.810  0.6029 -3.0198 -1.2074
  121MOL   H13541175   7.099   7.569   2.658  0.3495  0.2622 -0.1324
  121MOL   H13641176   7.179   7.579   2.937  2.9682  2.8014  1.9648
  121MOL   H13741177   7.267   7.523   2.808 -0.7297 -0.7661  0.1025
  121MOL   C13841178   7.177   0.130   2.929 -0.3390  0.0864  0.2549
  121MOL   C13941179   7.053   0.078   3.017 -0.1415 -0.0780  0.1619
  121MOL   N14041180   7.094   0.033   3.148  0.6875 -0.1776 -0.3300
  121MOL   C14141181   7.035   7.827   3.212 -0.9011  0.4179  0.2843
  121MOL   C14241182   7.091   7.806   3.355  0.2033 -0.0370  0.1207
  121MOL   C14341183   7.188   0.017   3.369 -0.1620 -0.6182 -0.9507
  121MOL   C14441184   7.159   0.103   3.242 -0.0516  0.1456 -0.0346
  121MOL   O14541185   7.199   0.218   3.233 -0.5664 -0.1893 -0.0277
  121MOL   H14641186   7.178   0.239   2.937 -3.6879  0.2798 -1.3252
  121MOL   H14741187   7.262   0.098   2.989 -0.0544 -0.2100 -0.3072
  121MOL   H14841188   7.016   7.891   2.974  0.2226 -0.0438 -0.2311
  121MOL   H14941189   6.928   7.834   3.231 -0.8031  0.8662  0.6702
  121MOL   H15041190   7.039   7.729   3.164  0.2194 -1.0666  3.2428
  121MOL   H15141191   7.019   7.820   3.436 -0.7661 -2.2818 -0.3154
  121MOL   H15241192   7.136   7.709   3.373  1.6184  0.6440  0.2934
  121MOL   H15341193   7.294   7.899   3.360  0.3417  0.9720  0.4741
  121MOL   H15441194   7.184   0.083   3.456 -0.1562 -2.6785  0.6412
  121MOL   C15541195   6.941   0.183   3.017  0.5944  0.7777 -0.2267
  121MOL   C15641196   6.797   0.129   3.054 -0.0786 -0.3145 -0.0792
  121MOL   N15741197   6.705   0.244   3.062  0.2371  0.1417  0.1802
  121MOL   C15841198   6.697   0.312   3.190 -0.2362 -0.1256  0.0958
  121MOL   C15941199   6.632   0.444   3.166  0.3719  0.6937  0.6283
  121MOL   C16041200   6.568   0.434   3.027 -1.0728  0.1148  0.2283
  121MOL   C16141201   6.633   0.310   2.968  0.3888  0.2347  0.0301
  121MOL   O16241202   6.621   0.282   2.847  0.0934 -0.2997  0.2862
  121MOL   H16341203   6.918   0.227   2.920 -0.6717 -1.0347 -0.7913
  121MOL   H16441204   6.963   0.270   3.078 -0.9606  1.1034 -0.1100
  121MOL   H16541205   6.803   0.090   3.155  0.1829  2.9130  1.2237
  121MOL   H16641206   6.640   0.252   3.260  1.1726 -2.2041 -0.4891
  121MOL   H16741207   6.793   0.324   3.241 -0.3704 -0.7944  0.5098
  121MOL   H16841208   6.564   0.480   3.244 -1.4558 -0.1325 -0.5733
  121MOL   H16941209   6.710   0.521   3.165  0.9788  0.1146  1.8021
  121MOL   H17041210   6.459   0.428   3.020 -1.1004  0.8415  0.0038
  121MOL   H17141211   6.605   0.515   2.964 -0.2176  0.3929  1.0834
  121MOL   C17241212   6.746   0.020   2.957  0.8332  0.5691 -0.1788
  121MOL   C17341213   6.618   7.864   3.002 -0.0532 -0.0276 -0.6511
  121MOL   N17441214   6.547   7.825   2.878  0.4065 -1.1632 -0.5067
  121MOL   C17541215   6.419   7.883   2.834 -0.2737 -0.4503  0.1001
  121MOL   C17641216   6.368   7.809   2.702  0.3587  0.1883  0.4895
  121MOL   C17741217   6.497   7.732   2.665  0.2553  0.7821  0.7002
  121MOL   C17841218   6.596   7.744   2.778 -0.0178  0.1823 -0.6674
  121MOL   O17941219   6.700   7.682   2.783 -0.0757 -0.0474  0.3050
  121MOL   H18041220   6.818   7.846   2.942  1.2751  0.8551  0.4076
  121MOL   H18141221   6.732   0.067   2.859 -0.3925  1.7540  0.5407
  121MOL   H18241222   6.561   0.040   3.045  0.7532  1.0563 -1.6095
  121MOL   H18341223   6.342   7.889   2.911  0.1435 -0.6146  0.5351
  121MOL   H18441224   6.433   0.081   2.802  0.1208 -0.0172  1.6202
  121MOL   H18541225   6.333   7.885   2.631 -2.0689  0.8205  2.2794
  121MOL   H18641226   6.287   7.739   2.725  0.0728  0.6349  0.8545
  121MOL   H18741227   6.467   7.628   2.650  0.3313  0.5835  1.8704
  121MOL   H18841228   6.544   7.771   2.575 -0.0247  0.0856  0.2459
  121MOL   C18941229   6.639   7.753   3.112 -0.8027  0.5783  0.3673
  121MOL   C19041230   6.521   7.668   3.144  0.1271  0.2764 -0.2545
  121MOL   N19141231   6.561   7.561   3.238  0.1908  0.0490 -0.1687
  121MOL   C19241232   6.566   7.422   3.191  0.3115 -0.1896  0.0839
  121MOL   C19341233   6.596   7.331   3.319  0.7219 -0.0828 -0.5213
  121MOL   C19441234   6.586   7.427   3.438 -0.4420  0.4448 -0.5583
  121MOL   C19541235   6.583   7.569   3.371  0.1209  0.3116 -1.1472
  121MOL   O19641236   6.601   7.678   3.424 -0.1408 -0.1084  0.1350
  121MOL   H19741237   6.676   7.810   3.197  0.9761  0.9303 -0.6361
  121MOL   H19841238   6.722   7.689   3.083  1.7638  2.6336  2.9367
  121MOL   H19941239   6.495   7.613   3.054  0.8627 -1.5552  0.6351
  121MOL   H20041240   6.473   7.392   3.143 -1.4299  2.9142  1.3928
  121MOL   H20141241   6.645   7.420   3.116 -0.2493  3.0005 -0.6841
  121MOL   H20241242   6.530   7.244   3.317 -1.8025  1.8029 -1.4020
  121MOL   H20341243   6.699   7.300   3.298  1.1132 -0.2735  1.5981
  121MOL   H20441244   6.493   7.414   3.493  1.0953  1.4843  2.3783
  121MOL   H20541245   6.672   7.421   3.505  0.6775 -0.3162 -2.0339
  121MOL   C20641246   6.388   7.736   3.184 -0.0456  0.4527  0.2077
  121MOL   C20741247   6.266   7.648   3.194  0.1810 -0.1537 -0.1458
  121MOL   N20841248   6.147   7.718   3.253  0.0703 -0.2043  0.6399
  121MOL   C20941249   6.108   7.686   3.391 -0.6496  0.0408 -0.6993
  121MOL   C21041250   5.973   7.756   3.411  0.2193  0.0719  0.0122
  121MOL   C21141251   5.959   7.849   3.294 -0.2924  0.5834  0.1372
  121MOL   C21241252   6.067   7.811   3.202  0.2719  0.8033 -0.3023
  121MOL   O21341253   6.073   7.853   3.082 -0.2017 -0.4736  0.2321
  121MOL   H21441254   6.368   7.814   3.110 -1.3129 -0.5817 -0.5524
  121MOL   H21541255   6.396   7.788   3.280  1.9466 -0.1248  0.3582
  121MOL   H21641256   6.309   7.582   3.269 -2.4050 -1.2747  0.4257
  121MOL   H21741257   6.088   7.580   3.404  1.2488 -0.2768 -0.3291
  121MOL   H21841258   6.184   7.717   3.463 -0.8606  0.0577 -0.4806
  121MOL   H21941259   5.888   7.688   3.402  1.9845 -1.8907 -2.9254
  121MOL   H22041260   5.978   7.815   3.502  0.6669 -1.3413  0.9182
  121MOL   H22141261   5.856   7.848   3.256 -0.8919  0.7957  1.6894
  121MOL   H22241262   5.983   0.047   3.314  1.8992  0.1819 -0.3130
  121MOL   C22341263   6.230   7.569   3.069 -0.0028  0.0333  0.6564
  121MOL   C22441264   6.095   7.486   3.064 -0.4771 -0.1174 -0.1981
  121MOL   N22541265   6.087   7.440   2.925 -0.3487 -0.3466  0.1591
  121MOL   C22641266   5.984   7.485   2.835 -0.0406  0.5752  0.1491
  121MOL   C22741267   6.007   7.416   2.703  0.0657  0.8331  0.2399
  121MOL   C22841268   6.134   7.338   2.716  0.3519  0.0339 -0.1191
  121MOL   C22941269   6.160   7.348   2.863  0.2511 -0.2450  0.2192
  121MOL   O23041270   6.252   7.276   2.909  0.3955  0.3027  0.3651
  121MOL   H23141271   6.305   7.505   3.022 -1.1635  0.7732 -2.3586
  121MOL   H23241272   6.221   7.646   2.992 -2.5614  0.6247  1.5102
  121MOL   H23341273   6.017   7.553   3.099 -0.5836 -0.3183 -0.0473
  121MOL   H23441274   5.882   7.481   2.873 -0.8059 -0.7350 -1.9329
  121MOL   H23541275   6.001   7.591   2.818  0.1308  0.6459  0.7655
  121MOL   H23641276   5.920   7.356   2.676  0.4600  0.7928 -0.9620
  121MOL   H23741277   6.009   7.490   2.623 -1.2343  1.2082  0.5382
  121MOL   H23841278   6.125   7.238   2.674 -0.9754 -0.4127  1.2244
  121MOL   H23941279   6.219   7.375   2.658  0.7360 -0.3152  0.2238
  121MOL   C24041280   6.076   7.376   3.170  0.0186 -0.3729 -0.4314
  121MOL   C24141281   5.933   7.319   3.176 -1.0663 -0.6226  0.0690
  121MOL   N24241282   5.937   7.190   3.251 -0.2672 -0.3282  0.8861
  121MOL   C24341283   5.907   7.071   3.180 -0.7864 -0.3388 -0.6336
  121MOL   C24441284   5.887   6.965   3.289 -0.0634  0.4317  0.2119
  121MOL   C24541285   5.933   7.030   3.421  0.3767 -0.3108 -0.4655
  121MOL   C24641286   5.967   7.168   3.377 -0.1853  0.1351 -0.6096
  121MOL   O24741287   6.004   7.260   3.454  0.0727 -0.6467  0.1840
  121MOL   H24841288   6.110   7.416   3.266  0.0229 -1.3680 -0.0134
  121MOL   H24941289   6.143   7.293   3.149 -0.2817 -0.0542 -2.7554
  121MOL   H25041290   5.909   7.295   3.072 -0.8886 -2.4557  0.4313
  121MOL   H25141291   5.819   7.081   3.118 -1.4599 -0.3241  0.3096
  121MOL   H25241292   5.991   7.034   3.122  0.8418  0.6210  1.0243
  121MOL   H25341293   5.781   6.944   3.307 -0.2988  0.1902 -1.3835
  121MOL   H25441294   5.936   6.876   3.251  0.6388  1.3961 -1.1861
  121MOL   H25541295   5.847   7.032   3.488  0.0677 -0.4668 -0.8579
  121MOL   H25641296   6.019   6.979   3.464  1.0945  2.4003  1.4295
  121MOL   C25741297   5.832   7.419   3.237 -0.4085  0.3505 -1.0894
  121MOL   C25841298   5.689   7.359   3.260 -0.1880 -0.3354  0.4477
  121MOL   N25941299   5.611   7.425   3.376 -0.1053 -0.6250 -0.0530
  121MOL   C26041300   5.569   7.355   3.496 -0.2125 -0.5832  0.1197
  121MOL   C26141301   5.522   7.467   3.592  0.0519  0.6481 -0.2999
  121MOL   C26241302   5.502   7.590   3.507 -0.4461  0.2999 -0.3013
  121MOL   C26341303   5.587   7.555   3.389  0.5376  0.3614  0.2991
  121MOL   O26441304   5.614   7.639   3.306  0.3605 -0.2780  0.1536
  121MOL   H26541305   5.819   7.505   3.171 -0.5967 -0.5568 -2.2504
  121MOL   H26641306   5.872   7.469   3.325 -1.4902 -0.9728  0.2037
  121MOL   H26741307   5.700   7.254   3.287  0.2602 -0.8990 -1.7951
  121MOL   H26841308   5.486   7.286   3.480  0.0988 -0.7950 -0.5808
  121MOL   H26941309   5.646   7.304   3.555 -0.0009  0.8046  1.0592
  121MOL   H27041310   5.435   7.438   3.651 -1.9994 -0.2891 -3.6752
  121MOL   H27141311   5.602   7.492   3.661 -0.6918  0.8514  0.4982
  121MOL   H27241312   5.401   7.600   3.465  0.5963  0.7363 -2.7911
  121MOL   H27341313   5.531   7.677   3.566 -0.6549  0.3880 -0.3258
  121MOL   C27441314   5.602   7.343   3.134  0.9455 -0.0151  0.5563
  121MOL   C27541315   5.486   7.243   3.147  0.0154 -0.0849 -0.9536
  121MOL   N27641316   5.371   7.274   3.062 -0.2830  0.0955  0.6202
  121MOL   C27741317   5.258   7.342   3.121 -0.4518  0.0254  0.9205
  121MOL   C27841318   5.171   7.400   3.007  0.4495 -0.2553  0.5393
  121MOL   C27941319   5.225   7.341   2.881  0.5797 -0.1661 -0.1458
  121MOL   C28041320   5.360   7.267   2.930  0.1990 -0.4959  0.3998
  121MOL   O28141321   5.441   7.218   2.852 -0.5263 -0.6267 -0.4281
  121MOL   H28241322   5.666   7.313   3.051  0.1385 -1.3676  0.4078
  121MOL   H28341323   5.582   7.447   3.110 -1.5989 -0.4068  0.8741
  121MOL   H28441324   5.445   7.252   3.247  1.3708 -1.2893 -0.2626
  121MOL   H28541325   5.204   7.274   3.186 -1.7720 -1.5780 -1.7469
  121MOL   H28641326   5.301   7.416   3.189  0.4889  0.4372 -0.0949
  121MOL   H28741327   5.070   7.361   3.015  0.1792  0.4066  0.4025
  121MOL   H28841328   5.167   7.509   3.005  2.1116 -0.1878  0.2874
  121MOL   H28941329   5.153   7.272   2.837  0.8923 -0.1472 -0.6839
  121MOL   H29041330   5.234   7.408   2.796 -4.1254 -0.2359 -0.8457
  121MOL   C29141331   5.528   7.098   3.129 -0.0028  0.0084 -0.0211
  121MOL   C29241332   5.420   6.981   3.143  0.8846 -0.2988  0.1894
  121MOL   N29341333   5.449   6.863   3.055  0.1238 -0.3272 -0.9024
  121MOL   C29441334   5.367   6.825   2.940  0.0533  1.0467  0.0320
  121MOL   C29541335   5.434   6.703   2.877  0.4296  0.3864  0.5444
  121MOL   C29641336   5.567   6.683   2.948  0.3625  0.4513 -0.2860
  121MOL   C29741337   5.560   6.789   3.056 -0.2108 -0.5503 -0.6744
  121MOL   O29841338   5.656   6.823   3.123 -0.2920  0.6928  0.0367
  121MOL   H29941339   5.606   7.075   3.202 -0.5586 -0.8966  0.3028
  121MOL   H30041340   5.565   7.088   3.027  0.0850  0.0908  0.0025
  121MOL   H30141341   5.322   7.013   3.106  2.4147  0.2466 -3.7369
  121MOL   H30241342   5.267   6.798   2.973  1.1406 -1.1306  1.7023
  121MOL   H30341343   5.368   6.909   2.871  0.2830  0.4120 -0.7518
  121MOL   H30441344   5.373   6.613   2.890  1.5310 -0.4925 -0.2189
  121MOL   H30541345   5.458   6.714   2.771  3.1154  0.6671  1.1564
  121MOL   H30641346   5.583   6.581   2.981 -1.0412  0.9311  1.9455
  121MOL   H30741347   5.655   6.709   2.888  0.7658  1.4579  0.7217
  121MOL   C30841348   5.410   6.952   3.290  0.1069  0.2707  0.6116
  121MOL   C30941349   5.282   6.882   3.343 -0.8558 -0.1598  0.1100
  121MOL   N31041350   5.292   6.842   3.483  0.3272 -0.3345  0.3927
  121MOL   C31141351   5.278   6.703   3.516  0.2126  0.2276 -0.1919
  121MOL   C31241352   5.290   6.698   3.675  0.0099 -0.1358  0.7252
  121MOL   C31341353   5.295   6.842   3.720  0.5821 -0.9599 -0.1910
  121MOL   C31441354   5.307   6.924   3.593  0.4023  0.4396  0.6010
  121MOL   O31541355   5.320   7.046   3.584  0.3228  0.8348 -0.1225
  121MOL   H31641356   5.413   7.042   3.353  0.4422  0.2246  0.6652
  121MOL   H31741357   5.493   6.891   3.327 -1.2976 -1.5034  0.9236
  121MOL   H31841358   5.275   6.787   3.289 -1.1815  0.1997 -0.4849
  121MOL   H31941359   5.181   6.672   3.476  0.3569 -2.3558  1.3271
  121MOL   H32041360   5.357   6.647   3.466 -0.0521 -1.5588  1.3060
  121MOL   H32141361   5.201   6.643   3.707  2.1238 -4.9446 -1.2178
  121MOL   H32241362   5.376   6.641   3.709 -1.4874 -1.6890  2.0168
  121MOL   H32341363   5.217   6.877   3.788  1.3798 -0.1998  0.3522
  121MOL   H32441364   5.381   6.859   3.786  1.3537  0.6289 -1.5536
  121MOL   C32541365   5.151   6.957   3.323  0.3285 -0.0298  0.4875
  121MOL   C32641366   5.061   6.893   3.212 -0.1635 -0.2488 -0.0465
  121MOL   N32741367   4.959   6.978   3.166  0.0516  0.1093  0.3407
  121MOL   C32841368   4.836   6.991   3.251 -0.6704 -0.2329 -0.1842
  121MOL   C32941369   4.742   7.092   3.177 -0.1122 -0.6178  0.3015
  121MOL   C33041370   4.832   7.139   3.059 -0.4236  0.1348 -0.0761
  121MOL   C33141371   4.964   7.056   3.065  0.4907  0.0936  0.2125
  121MOL   O33241372   5.051   7.060   2.979  0.0748  0.1797 -0.5479
  121MOL   H33341373   5.177   7.059   3.293 -0.7485  0.3432  0.7788
  121MOL   H33441374   5.102   6.963   3.421 -0.8095 -1.0463 -0.0094
  121MOL   H33541375   5.001   6.812   3.254 -1.7709  1.2574  0.6217
  121MOL   H33641376   4.793   6.903   3.298 -0.3384 -1.5190 -2.2076
  121MOL   H33741377   4.867   7.057   3.331  2.5378 -0.1816 -1.4023
  121MOL   H33841378   4.661   7.031   3.137 -0.8688  0.5385  0.0210
  121MOL   H33941379   4.710   7.176   3.239  0.7867 -1.1524  1.4813
  121MOL   H34041380   4.780   7.117   2.966  0.9261 -0.9678 -0.5920
  121MOL   H34141381   4.856   7.244   3.075 -1.7161  0.3806  0.2931
  121MOL   H34241382   5.123   6.859   3.129 -0.4457 -1.4938  0.2362
  122MOL     C141383   1.473   5.124   4.769 -0.3190  0.4538 -0.0529
  122MOL     C241384   1.589   5.218   4.802 -0.2249  0.6400  0.1795
  122MOL     N341385   1.537   5.355   4.817  0.6572 -0.1515  0.2191
  122MOL     C441386   1.600   5.467   4.747  0.2486  0.9433 -0.2236
  122MOL     C541387   1.536   5.590   4.799 -0.0724  0.9258 -0.5449
  122MOL     C641388   1.416   5.546   4.890  0.0614  0.3946 -1.2946
  122MOL     C741389   1.445   5.399   4.903  0.3844 -0.2707 -0.4103
  122MOL     O841390   1.387   5.331   4.991  0.0333  0.3922  0.3993
  122MOL     H941391   1.405   5.172   4.698 -0.9876  1.1420  1.0295
  122MOL    H1041392   1.498   5.027   4.727  0.5013  1.0156 -0.8805
  122MOL    H1141393   1.658   5.221   4.718 -3.3479 -2.9131 -2.7091
  122MOL    H1241394   1.708   5.472   4.763  0.6133 -0.1499 -2.1027
  122MOL    H1341395   1.579   5.453   4.641 -2.8247  2.0105  0.2036
  122MOL    H1441396   1.611   5.634   4.865  0.8584 -1.2582 -0.1095
  122MOL    H1541397   1.514   5.667   4.725 -2.6677  0.0356 -0.7780
  122MOL    H1641398   1.417   5.594   4.988  0.2808  1.2867 -1.7279
  122MOL    H1741399   1.322   5.564   4.839  1.6633  0.8822 -4.1997
  122MOL    H1841400   1.418   5.101   4.860  0.6086  0.1469  0.4348
  122MOL    C1941401   1.663   5.167   4.931 -0.2296 -0.0818 -0.2305
  122MOL    C2041402   1.732   5.028   4.920  0.2902 -0.6784  0.1821
  122MOL    N2141403   1.852   5.019   4.839  0.0533 -0.1226  0.0891
  122MOL    C2241404   1.842   4.993   4.695 -0.4476 -0.9530 -0.3149
  122MOL    C2341405   1.986   5.016   4.633  0.1560 -0.2158 -0.6623
  122MOL    C2441406   2.069   5.076   4.748 -0.5814  0.0311 -0.4202
  122MOL    C2541407   1.969   5.074   4.870  0.3505 -0.4130  0.2765
  122MOL    O2641408   2.001   5.116   4.979  0.7029 -0.5243  0.2243
  122MOL    H2741409   1.592   5.159   5.013  2.4794 -2.3233  1.9960
  122MOL    H2841410   1.736   5.243   4.956  0.9624 -1.1356 -0.4769
  122MOL    H2941411   1.660   4.961   4.874 -0.6148  0.4245 -0.0246
  122MOL    H3041412   1.793   4.897   4.685 -0.5149 -0.7623 -1.9014
  122MOL    H3141413   1.777   5.070   4.653 -0.3568 -0.3375  0.6580
  122MOL    H3241414   2.011   4.913   4.607 -0.3049 -0.4366 -0.2512
  122MOL    H3341415   1.982   5.074   4.541 -0.9524 -0.5640 -0.8419
  122MOL    H3441416   2.155   5.018   4.781 -1.5548 -0.5082  1.2304
  122MOL    H3541417   2.108   5.174   4.718 -1.7377  1.1625  1.6440
  122MOL    C3641418   1.744   4.972   5.061  0.0531  0.6115 -0.6058
  122MOL    C3741419   1.614   4.915   5.120 -0.1647 -0.1012 -0.2857
  122MOL    N3841420   1.566   4.782   5.071 -0.2929  0.0812 -0.0637
  122MOL    C3941421   1.437   4.777   4.999 -0.1839  0.0951 -0.2945
  122MOL    C4041422   1.399   4.630   5.003 -0.4004 -0.5109 -0.1884
  122MOL    C4141423   1.530   4.554   5.031  0.3468  0.1883 -0.0452
  122MOL    C4241424   1.618   4.656   5.092 -0.4683  0.0692 -0.2333
  122MOL    O4341425   1.709   4.630   5.171 -0.5157 -0.3663  0.4116
  122MOL    H4441426   1.795   5.042   5.127  0.7896  0.5461 -1.0915
  122MOL    H4541427   1.815   4.890   5.047  3.7836  3.3821  1.2966
  122MOL    H4641428   1.532   4.983   5.095 -0.2651 -0.7416 -1.8020
  122MOL    H4741429   1.354   4.835   5.041  0.5338  0.3767  0.7659
  122MOL    H4841430   1.451   4.812   4.897  3.2624  0.1720  0.1509
  122MOL    H4941431   1.324   4.616   5.081 -1.0794 -0.0446 -0.7490
  122MOL    H5041432   1.344   4.597   4.914 -1.6808 -2.8079  1.4021
  122MOL    H5141433   1.509   4.480   5.109 -0.9673  1.0746  0.4642
  122MOL    H5241434   1.577   4.508   4.944 -3.2833  0.2062 -2.1367
  122MOL    C5341435   1.625   4.912   5.278 -0.1131 -0.4405  0.1590
  122MOL    C5441436   1.602   5.045   5.357 -0.4774  0.4590 -0.3691
  122MOL    N5541437   1.471   5.106   5.341 -0.2043 -0.2341 -0.4080
  122MOL    C5641438   1.463   5.242   5.298  0.5568 -0.2747 -0.6529
  122MOL    C5741439   1.313   5.277   5.302  0.5334  0.0872 -0.1695
  122MOL    C5841440   1.241   5.151   5.332  0.7515  0.8798  0.3308
  122MOL    C5941441   1.354   5.052   5.363  0.1323 -0.1780 -0.0114
  122MOL    O6041442   1.323   4.941   5.400 -0.0475 -0.0205 -0.1056
  122MOL    H6141443   1.726   4.879   5.302  0.3154  0.5038 -0.3238
  122MOL    H6241444   1.561   4.837   5.324 -0.5673 -0.7825 -1.0111
  122MOL    H6341445   1.677   5.116   5.322 -1.1239  2.3718  1.9515
  122MOL    H6441446   1.509   5.315   5.365 -2.4778  2.4042 -1.3332
  122MOL    H6541447   1.491   5.247   5.193 -0.4611  0.3885 -0.9044
  122MOL    H6641448   1.295   5.344   5.386  0.5490 -3.7357  3.0440
  122MOL    H6741449   1.280   5.330   5.213 -0.6717  0.1992  0.3328
  122MOL    H6841450   1.179   5.161   5.421  1.1611  2.7505  0.4213
  122MOL    H6941451   1.179   5.134   5.243 -2.6883  2.0873  2.3783
  122MOL    C7041452   1.637   5.017   5.506  0.6207  0.1057  0.1171
  122MOL    C7141453   1.788   4.978   5.535  0.6335  0.0027  0.7509
  122MOL    N7241454   1.884   5.075   5.481 -0.1320 -0.0338  0.0079
  122MOL    C7341455   2.000   5.039   5.403 -0.4057 -0.0319  0.0999
  122MOL    C7441456   2.057   5.162   5.343 -0.2987 -0.0322  0.0369
  122MOL    C7541457   1.973   5.281   5.394  0.6728  0.1729  0.5325
  122MOL    C7641458   1.872   5.205   5.480  0.9022 -0.6897 -0.1640
  122MOL    O7741459   1.798   5.282   5.545 -0.2158 -0.2166  0.2473
  122MOL    H7841460   1.573   4.936   5.539  1.7093  0.4386  3.1990
  122MOL    H7941461   1.610   5.103   5.568 -0.5381  1.3152 -2.0054
  122MOL    H8041462   1.804   4.885   5.481 -2.9397 -0.4352  0.3375
  122MOL    H8141463   2.082   4.995   5.460  1.8027  0.8720 -2.3115
  122MOL    H8241464   1.974   4.974   5.320 -0.6818 -0.5034  0.5553
  122MOL    H8341465   2.159   5.162   5.380 -0.0512 -1.0387 -0.6302
  122MOL    H8441466   2.053   5.157   5.235  0.3984 -0.6565  0.0387
  122MOL    H8541467   2.035   5.359   5.439  1.0329  0.2034 -0.0081
  122MOL    H8641468   1.928   5.323   5.304  0.5117  1.8650  1.3831
  122MOL    C8741469   1.812   4.961   5.682  0.2444  0.3407 -0.4708
  122MOL    C8841470   1.766   4.815   5.731  0.2952 -0.1494  0.0278
  122MOL    N8941471   1.869   4.722   5.673 -0.0230  0.1486  0.3090
  122MOL    C9041472   1.828   4.616   5.578 -0.5318 -0.0691  0.4534
  122MOL    C9141473   1.950   4.523   5.567 -0.8507 -0.2467 -0.5421
  122MOL    C9241474   2.070   4.594   5.634 -0.2486 -0.4529 -0.9024
  122MOL    C9341475   1.999   4.710   5.699 -1.0219 -0.0714  0.2109
  122MOL    O9441476   2.062   4.783   5.781  0.1967 -0.0522  0.4856
  122MOL    H9541477   1.750   5.032   5.737  0.9070  1.5829 -1.3265
  122MOL    H9641478   1.918   4.974   5.704  0.1055 -0.5496  0.8093
  122MOL    H9741479   1.666   4.800   5.690 -0.5699  1.2764  1.5673
  122MOL    H9841480   1.736   4.558   5.591 -0.2550 -0.9753 -1.4823
  122MOL    H9941481   1.818   4.665   5.481 -0.7798  3.2909  2.1076
  122MOL   H10041482   1.924   4.426   5.611 -2.3670 -0.4751 -1.9113
  122MOL   H10141483   1.976   4.492   5.466 -1.6345 -0.9398 -0.5374
  122MOL   H10241484   2.126   4.528   5.700 -0.1157  0.8449  0.3119
  122MOL   H10341485   2.144   4.614   5.556  0.7163 -0.9238 -0.1193
  122MOL   C10441486   1.754   4.808   5.881  0.0223 -0.3730 -0.0609
  122MOL   C10541487   1.671   4.914   5.951 -0.3076  0.1108  0.3587
  122MOL   N10641488   1.534   4.938   5.891 -0.4531 -0.0234  0.1165
  122MOL   C10741489   1.486   5.075   5.870 -0.1370  0.3769 -0.1327
  122MOL   C10841490   1.339   5.063   5.817 -0.4251  0.3470  1.1414
  122MOL   C10941491   1.322   4.910   5.799  0.4475  0.2781  0.2678
  122MOL   C11041492   1.452   4.851   5.845  0.2085 -0.1210 -0.6826
  122MOL   O11141493   1.464   4.728   5.843  0.4845  0.0795  0.0312
  122MOL   H11241494   1.857   4.811   5.915  0.1179 -3.1664  0.0309
  122MOL   H11341495   1.724   4.704   5.895  1.4811 -0.6283  1.3267
  122MOL   H11441496   1.711   5.014   5.934 -0.2002 -0.3425 -2.3569
  122MOL   H11541497   1.490   5.129   5.964  1.8083 -0.6198  0.3835
  122MOL   H11641498   1.551   5.126   5.798  1.5895 -0.4008  0.8551
  122MOL   H11741499   1.268   5.111   5.884  1.5909  0.6558  3.1250
  122MOL   H11841500   1.344   5.121   5.725 -0.3068  1.2563  1.7080
  122MOL   H11941501   1.309   4.901   5.692  0.3914  1.0732  0.2052
  122MOL   H12041502   1.239   4.864   5.853 -1.4590  3.3109  0.0385
  122MOL   C12141503   1.663   4.883   6.102  0.2370  0.1360  0.3084
  122MOL   C12241504   1.799   4.897   6.174 -0.4880 -0.0718 -0.6368
  122MOL   N12341505   1.851   5.036   6.164  0.5230 -0.7425  0.3223
  122MOL   C12441506   1.974   5.061   6.092  0.3278  0.2363 -0.1697
  122MOL   C12541507   2.032   5.191   6.146  0.1805 -0.1546  0.7977
  122MOL   C12641508   1.909   5.261   6.206 -0.2246  0.4028 -0.4505
  122MOL   C12741509   1.812   5.142   6.234 -0.2895 -0.1717 -0.0540
  122MOL   O12841510   1.714   5.148   6.312  0.3464  0.1785 -0.2130
  122MOL   H12941511   1.625   4.782   6.119  1.1216 -0.1235  0.8033
  122MOL   H13041512   1.581   4.943   6.142  0.5203 -0.0299  1.1527
  122MOL   H13141513   1.867   4.828   6.124  1.5853  0.0508  1.9319
  122MOL   H13241514   1.934   5.086   5.994  0.3480 -2.9280 -1.0375
  122MOL   H13341515   2.034   4.971   6.085  2.4849  1.7359 -1.4137
  122MOL   H13441516   2.104   5.166   6.223  0.2082 -1.7719  0.2447
  122MOL   H13541517   2.085   5.250   6.071 -1.0258  0.4114  0.3766
  122MOL   H13641518   1.926   5.308   6.303 -1.7969 -0.1988  0.1279
  122MOL   H13741519   1.869   5.333   6.135  1.8332  0.3651 -1.6974
  122MOL   C13841520   1.793   4.828   6.310 -0.0472 -0.2044 -0.4531
  122MOL   C13941521   1.798   4.673   6.309  0.0440 -0.5580 -0.1242
  122MOL   N14041522   1.916   4.615   6.229  0.0289  0.3483 -0.0593
  122MOL   C14141523   1.883   4.526   6.118  0.3801  0.1215 -0.4237
  122MOL   C14241524   2.021   4.491   6.049 -0.1096 -0.3710 -0.2604
  122MOL   C14341525   2.122   4.590   6.107  0.1676  0.1345  0.3694
  122MOL   C14441526   2.043   4.650   6.226 -0.0319 -0.3366 -0.2230
  122MOL   O14541527   2.100   4.721   6.312  0.2802 -0.5447 -0.4708
  122MOL   H14641528   1.708   4.872   6.362  0.6705  2.9485 -1.8226
  122MOL   H14741529   1.886   4.863   6.353  0.0874  0.3454 -1.1619
  122MOL   H14841530   1.702   4.643   6.265 -0.1486  1.7907 -1.3913
  122MOL   H14941531   1.841   4.435   6.161  1.7818  0.1801  1.1302
  122MOL   H15041532   1.809   4.575   6.056 -1.0160 -1.1469  0.2030
  122MOL   H15141533   2.044   4.392   6.087  1.1008 -0.2021 -0.5220
  122MOL   H15241534   2.004   4.502   5.942 -0.5290  2.3017  0.0455
  122MOL   H15341535   2.146   4.666   6.033  0.4686 -0.4945 -0.1861
  122MOL   H15441536   2.218   4.544   6.130  0.9667  1.8303  0.5017
  122MOL   C15541537   1.772   4.626   6.458 -1.1014 -0.2012 -0.0808
  122MOL   C15641538   1.634   4.659   6.521  0.2490  0.2292  0.1394
  122MOL   N15741539   1.535   4.587   6.441  0.1419 -0.2714 -0.0160
  122MOL   C15841540   1.442   4.664   6.351  0.1793 -0.1432  0.4754
  122MOL   C15941541   1.367   4.559   6.266 -0.1170  1.1938  0.0360
  122MOL   C16041542   1.434   4.423   6.298 -0.4110 -0.1939 -0.2418
  122MOL   C16141543   1.517   4.454   6.419  0.5231 -0.2405 -0.3515
  122MOL   O16241544   1.568   4.361   6.481  0.1612 -0.7718 -0.4367
  122MOL   H16341545   1.854   4.647   6.527 -0.7951 -0.5335 -0.3365
  122MOL   H16441546   1.791   4.518   6.464 -0.9793 -0.2589 -1.3142
  122MOL   H16541547   1.613   4.766   6.518  0.0827  0.1703 -1.2353
  122MOL   H16641548   1.375   4.717   6.419  1.6496  4.2325 -1.3040
  122MOL   H16741549   1.499   4.734   6.290 -0.6163  0.9365  0.9520
  122MOL   H16841550   1.262   4.560   6.297  0.1295 -0.9298  1.0000
  122MOL   H16941551   1.362   4.585   6.161 -0.7895 -1.8601 -0.7418
  122MOL   H17041552   1.355   4.354   6.329  0.2818 -0.7902  0.2174
  122MOL   H17141553   1.486   4.371   6.217 -1.8866  0.1047 -1.3998
  122MOL   C17241554   1.630   4.618   6.671 -0.3260  0.0918  0.0283
  122MOL   C17341555   1.708   4.709   6.771  0.7391 -0.1039  0.2213
  122MOL   N17441556   1.693   4.856   6.744  0.5114  0.3598  0.3571
  122MOL   C17541557   1.804   4.939   6.701 -0.3655  0.6479 -0.2805
  122MOL   C17641558   1.735   5.068   6.654 -0.2265  0.2642 -0.0754
  122MOL   C17741559   1.595   5.068   6.709  0.1474  0.8441  0.3355
  122MOL   C17841560   1.573   4.925   6.752  0.5235  0.1462 -0.5680
  122MOL   O17941561   1.459   4.884   6.788  0.1814  0.0262 -0.2542
  122MOL   H18041562   1.663   4.514   6.675  0.8955  0.3914 -1.6079
  122MOL   H18141563   1.527   4.618   6.706  0.3630  0.3361  2.1671
  122MOL   H18241564   1.813   4.681   6.768  0.7270 -0.2379  0.8230
  122MOL   H18341565   1.880   4.955   6.778 -0.0446  1.2104 -0.7105
  122MOL   H18441566   1.861   4.873   6.635 -0.8585  0.8065 -0.8719
  122MOL   H18541567   1.721   5.067   6.546  0.5040  1.8180 -0.1866
  122MOL   H18641568   1.779   5.159   6.693 -3.7385  3.2703 -2.7501
  122MOL   H18741569   1.564   5.137   6.788  3.3955  4.0830 -1.0929
  122MOL   H18841570   1.530   5.102   6.629  0.2036 -1.1831 -0.6084
  122MOL   C18941571   1.666   4.678   6.920  0.2851 -0.1572 -0.0454
  122MOL   C19041572   1.753   4.725   7.036  0.3157  0.4717  0.2723
  122MOL   N19141573   1.681   4.811   7.136  0.0779 -0.4658 -0.2487
  122MOL   C19241574   1.689   4.956   7.114 -0.5671 -0.1408  0.4740
  122MOL   C19341575   1.624   5.020   7.235 -0.0560  0.1295 -0.1574
  122MOL   C19441576   1.580   4.903   7.325 -0.6650  0.5992 -0.2615
  122MOL   C19541577   1.604   4.780   7.243 -0.0615 -0.3492 -0.5714
  122MOL   O19641578   1.559   4.668   7.272 -0.3142  0.1421 -0.3816
  122MOL   H19741579   1.669   4.570   6.917  1.0351 -0.1435  0.1266
  122MOL   H19841580   1.564   4.716   6.924 -0.0951 -1.2771  0.8311
  122MOL   H19941581   1.828   4.789   6.989  0.1696  0.0303 -0.5715
  122MOL   H20041582   1.796   4.977   7.114 -0.8378  1.3624 -0.5677
  122MOL   H20141583   1.644   4.987   7.020  0.1173  1.9207  0.8104
  122MOL   H20241584   1.690   5.081   7.297 -1.4449 -1.8046  3.3718
  122MOL   H20341585   1.543   5.091   7.221  1.7520  2.0453 -1.3003
  122MOL   H20441586   1.628   4.890   7.422 -0.3326  1.9510 -0.2257
  122MOL   H20541587   1.472   4.907   7.345 -0.7461 -1.6583 -0.1275
  122MOL   C20641588   1.824   4.608   7.107  0.2580 -0.3505 -0.0046
  122MOL   C20741589   1.943   4.533   7.041  0.0285 -0.1639 -0.2709
  122MOL   N20841590   2.043   4.636   7.007  0.3138  0.4727 -0.0833
  122MOL   C20941591   2.083   4.649   6.870 -0.0238  0.4964  0.5206
  122MOL   C21041592   2.159   4.784   6.875  0.0997 -0.0084 -0.2602
  122MOL   C21141593   2.215   4.796   7.018  0.3204  0.3790 -0.5732
  122MOL   C21241594   2.128   4.698   7.091  0.5670  0.1069  0.1444
  122MOL   O21341595   2.140   4.680   7.213  0.0678  0.5746 -0.4740
  122MOL   H21441596   1.752   4.532   7.139 -0.0667 -0.2481 -0.4968
  122MOL   H21541597   1.862   4.641   7.204  1.0463  1.2908 -0.8552
  122MOL   H21641598   1.906   4.493   6.946 -0.1937  1.6265 -0.9505
  122MOL   H21741599   2.149   4.565   6.848  0.2598  0.7665  0.3407
  122MOL   H21841600   2.006   4.640   6.792 -0.4667  0.4422  0.9638
  122MOL   H21941601   2.252   4.770   6.820 -0.8164 -2.8676 -1.1789
  122MOL   H22041602   2.102   4.870   6.841  3.1960  2.6943  1.1434
  122MOL   H22141603   2.320   4.769   7.028  0.8310  2.1514 -0.9898
  122MOL   H22241604   2.194   4.895   7.057 -1.0980 -0.2103  0.2396
  122MOL   C22341605   1.996   4.416   7.120  0.3848  0.4026  0.3123
  122MOL   C22441606   1.891   4.302   7.127 -0.2473  0.5446 -0.5805
  122MOL   N22541607   1.856   4.243   6.993 -0.2924 -0.4604 -0.5232
  122MOL   C22641608   1.720   4.225   6.954  0.3844 -0.7930 -0.2526
  122MOL   C22741609   1.719   4.144   6.823 -0.5365 -0.2709  0.5552
  122MOL   C22841610   1.864   4.092   6.815  0.5662  0.2439  0.0672
  122MOL   C22941611   1.942   4.188   6.897 -0.0164  0.0599  0.1851
  122MOL   O23041612   2.067   4.199   6.901  0.5446 -0.0209  0.8102
  122MOL   H23141613   2.024   4.445   7.221 -0.9865  2.1588  0.2239
  122MOL   H23241614   2.091   4.376   7.085 -0.1766 -0.1596 -0.5717
  122MOL   H23341615   1.797   4.333   7.173  0.2530  2.0264 -0.5293
  122MOL   H23441616   1.674   4.163   7.030 -0.7802 -0.8600 -0.9988
  122MOL   H23541617   1.655   4.312   6.943  1.1970 -0.0424  0.7752
  122MOL   H23641618   1.640   4.070   6.816 -0.9462 -0.2319  3.9858
  122MOL   H23741619   1.698   4.209   6.738  0.4168 -0.4375  0.1938
  122MOL   H23841620   1.874   3.994   6.862 -0.5802 -0.5583 -1.3228
  122MOL   H23941621   1.896   4.075   6.712 -2.7194  2.2578 -1.3760
  122MOL   C24041622   1.943   4.184   7.213  0.5629  0.2599  0.2757
  122MOL   C24141623   1.938   4.204   7.371 -0.3358 -0.2770  0.0142
  122MOL   N24241624   1.799   4.208   7.414  0.1194  0.2764  0.5224
  122MOL   C24341625   1.756   4.324   7.490  0.9912 -0.1969 -0.1641
  122MOL   C24441626   1.621   4.293   7.551  0.0977 -0.2586 -0.7280
  122MOL   C24541627   1.585   4.154   7.502 -0.2365 -0.5255 -0.6185
  122MOL   C24641628   1.709   4.116   7.424  0.1274  0.0795 -0.2422
  122MOL   O24741629   1.723   4.005   7.363  0.3104  1.1085 -0.3245
  122MOL   H24841630   2.040   4.159   7.171  0.6685  1.6789 -0.3766
  122MOL   H24941631   1.873   4.102   7.195  2.4145 -1.3168  0.2075
  122MOL   H25041632   1.993   4.297   7.385 -1.3519  0.2744  0.4212
  122MOL   H25141633   1.833   4.353   7.562 -2.0001  2.5493  2.1090
  122MOL   H25241634   1.749   4.407   7.420 -1.6031  0.2602  0.5746
  122MOL   H25341635   1.618   4.299   7.660 -3.9026 -3.0762 -0.5375
  122MOL   H25441636   1.539   4.358   7.520 -1.1246 -0.3585  2.0813
  122MOL   H25541637   1.559   4.090   7.586 -1.4649  1.6420  0.7116
  122MOL   H25641638   1.506   4.133   7.429 -3.0934 -1.4935  2.6322
  122MOL   C25741639   2.008   4.096   7.447  0.2485 -0.4638 -0.1278
  122MOL   C25841640   2.163   4.095   7.442 -0.1091 -0.0668  0.1959
  122MOL   N25941641   2.233   4.218   7.485 -0.1143  0.3681  0.1426
  122MOL   C26041642   2.278   4.311   7.390 -1.1582 -0.9150 -0.1778
  122MOL   C26141643   2.344   4.427   7.467 -0.0463 -0.6193 -0.2224
  122MOL   C26241644   2.363   4.370   7.609  0.1863 -0.2866  0.4871
  122MOL   C26341645   2.256   4.259   7.610 -0.1156 -0.6243  0.3423
  122MOL   O26441646   2.208   4.217   7.712  0.6762 -0.1005 -1.2238
  122MOL   H26541647   1.974   4.005   7.397  0.5695 -1.3257  1.1832
  122MOL   H26641648   1.972   4.088   7.550  1.0664 -1.0306  0.1171
  122MOL   H26741649   2.204   4.062   7.347  0.6749 -0.6043  0.7087
  122MOL   H26841650   2.363   4.261   7.342 -0.0268  1.3058 -0.5729
  122MOL   H26941651   2.209   4.351   7.315  0.4862 -1.2602 -1.9288
  122MOL   H27041652   2.436   4.456   7.416  0.2448 -1.0095  0.0814
  122MOL   H27141653   2.287   4.519   7.478 -0.4138 -1.1139  2.3997
  122MOL   H27241654   2.454   4.314   7.632  1.6591  0.9596 -2.0814
  122MOL   H27341655   2.332   4.443   7.684 -1.5267  0.2927 -0.7557
  122MOL   C27441656   2.204   3.969   7.530  0.8706 -0.0454  0.5137
  122MOL   C27541657   2.162   3.834   7.470 -1.0033  0.6968  0.1328
  122MOL   N27641658   2.214   3.807   7.336 -0.0460  0.0222  0.2462
  122MOL   C27741659   2.125   3.787   7.225 -0.1033 -0.0564 -0.1599
  122MOL   C27841660   2.205   3.823   7.098 -0.2696 -0.1791  0.3720
  122MOL   C27941661   2.347   3.821   7.152  0.0979  0.1665  0.3606
  122MOL   C28041662   2.346   3.815   7.300  0.4213 -0.3630 -0.4369
  122MOL   O28141663   2.439   3.824   7.373 -0.1511  0.2845 -0.5124
  122MOL   H28241664   2.165   3.987   7.630 -2.0348  1.4559 -0.8110
  122MOL   H28341665   2.312   3.969   7.544  0.9198 -1.7304  0.2081
  122MOL   H28441666   2.054   3.829   7.476 -0.9433  1.6840  2.1235
  122MOL   H28541667   2.093   3.683   7.229  1.1306 -0.4310  0.1677
  122MOL   H28641668   2.032   3.842   7.234 -0.3640 -0.3523 -1.0331
  122MOL   H28741669   2.186   3.759   7.011 -1.4394  0.2659  0.2919
  122MOL   H28841670   2.188   3.926   7.067 -2.0712 -0.6758 -0.3365
  122MOL   H28941671   2.381   3.722   7.123  1.4553  0.3215  1.3464
  122MOL   H29041672   2.404   3.904   7.109 -1.6675  0.9946 -0.4135
  122MOL   C29141673   2.188   3.718   7.575 -0.2950 -0.1851  0.2483
  122MOL   C29241674   2.120   3.741   7.715  0.0071  0.3689 -0.1482
  122MOL   N29341675   1.968   3.767   7.703  0.0748 -0.5296  0.5589
  122MOL   C29441676   1.913   3.869   7.790  0.6750  0.3125 -0.2920
  122MOL   C29541677   1.762   3.876   7.747  0.5269 -0.3286  0.0890
  122MOL   C29641678   1.729   3.758   7.658  0.7396 -0.4642  0.5705
  122MOL   C29741679   1.873   3.700   7.632 -0.1432 -0.0742  0.4578
  122MOL   O29841680   1.902   3.603   7.562  0.4271 -0.9453 -0.4340
  122MOL   H29941681   2.296   3.706   7.576 -0.1515  1.0382 -0.2834
  122MOL   H30041682   2.153   3.621   7.538  0.0138 -0.0894 -0.2994
  122MOL   H30141683   2.165   3.829   7.760 -1.7859 -0.5630  3.6785
  122MOL   H30241684   1.934   3.831   7.890 -1.2790 -0.8284 -0.2798
  122MOL   H30341685   1.957   3.968   7.775  1.2222  0.1789  0.4243
  122MOL   H30441686   1.710   3.879   7.843 -2.5263 -0.6502 -1.4997
  122MOL   H30541687   1.738   3.974   7.705  4.2787  0.6131 -0.0645
  122MOL   H30641688   1.683   3.683   7.721  2.8555 -1.2143  1.2549
  122MOL   H30741689   1.675   3.784   7.566  1.6665 -1.0074 -0.1356
  122MOL   C30841690   2.157   3.633   7.816  0.4742 -0.8265 -0.5513
  122MOL   C30941691   2.315   3.614   7.835  0.0784  0.3802 -0.6618
  122MOL   N31041692   2.386   3.739   7.873 -0.0341 -0.6556 -0.8354
  122MOL   C31141693   2.493   3.800   7.800  0.5679  0.2565 -0.7511
  122MOL   C31241694   2.491   3.948   7.832 -0.2218  0.1899 -0.0455
  122MOL   C31341695   2.423   3.959   0.066 -0.6531 -0.1423 -0.6548
  122MOL   C31441696   2.342   3.828   0.064  0.2612  0.0429 -0.3504
  122MOL   O31541697   2.249   3.802   0.143  0.0112  0.5903 -0.0971
  122MOL   H31641698   2.116   3.539   7.780  0.8704 -0.2486 -2.6003
  122MOL   H31741699   2.108   3.650   0.006  0.7518  1.4190 -0.7751
  122MOL   H31841700   2.354   3.586   7.737 -1.1359 -0.5399 -0.8942
  122MOL   H31941701   2.585   3.746   7.824 -0.3816 -1.4089 -0.7621
  122MOL   H32041702   2.473   3.784   7.694  0.7432 -1.0391 -0.6037
  122MOL   H32141703   2.594   3.984   7.826  0.3486 -1.0325  1.8466
  122MOL   H32241704   2.429   3.998   7.759  1.6223  1.4892 -0.7502
  122MOL   H32341705   2.503   3.950   0.140 -1.0633  0.1418 -0.1701
  122MOL   H32441706   2.363   4.050   0.075 -0.9427 -0.4699  0.9122
  122MOL   C32541707   2.349   3.496   0.026  0.7386  0.6464 -0.3767
  122MOL   C32641708   2.271   3.367   7.901  0.3347  1.0313  0.7176
  122MOL   N32741709   2.321   3.243   0.054  0.8098  0.7420 -0.6849
  122MOL   C32841710   2.388   3.142   7.882 -0.7661 -0.0035 -0.2308
  122MOL   C32941711   2.415   3.022   0.072  0.6589  0.6232  0.7483
  122MOL   C33041712   2.373   3.072   0.208  0.0051  0.2885 -0.1077
  122MOL   C33141713   2.322   3.213   0.186  0.1488 -0.0842 -0.3055
  122MOL   O33241714   2.277   3.282   0.279 -0.2326  0.3302 -0.2928
  122MOL   H33341715   2.325   3.525   0.128  0.4911 -0.1879 -0.1974
  122MOL   H33441716   2.452   3.462   0.030  0.1157 -1.2436  0.1502
  122MOL   H33541717   2.283   3.345   7.795  2.0001 -3.7465  1.7807
  122MOL   H33641718   2.341   3.100   7.793  0.6439 -1.9211 -0.1052
  122MOL   H33741719   2.486   3.175   7.849 -0.3043 -1.4873 -0.4043
  122MOL   H33841720   2.346   2.944   0.041 -0.5320  0.1387  4.3902
  122MOL   H33941721   2.515   2.980   0.080  0.3385 -0.5502 -1.1677
  122MOL   H34041722   2.287   3.021   0.252 -1.3803  0.7779 -2.1450
  122MOL   H34141723   2.447   3.068   0.288  0.5805 -1.6084 -0.7095
  122MOL   H34241724   2.164   3.375   0.017 -0.6750  1.8869 -4.0085
  123MOL     C141725   0.673   0.556   3.812 -0.2097 -0.0373  0.9049
  123MOL     C241726   0.815   0.618   3.832 -0.1149 -0.1082 -0.0955
  123MOL     N341727   0.839   0.711   3.721  0.5380 -0.1530  0.5083
  123MOL     C441728   0.936   0.684   3.617  0.1004 -0.2707  0.3667
  123MOL     C541729   0.915   0.799   3.518  0.5886  0.2028 -0.0197
  123MOL     C641730   0.817   0.898   3.578  0.2495 -0.7167  0.1183
  123MOL     C741731   0.789   0.835   3.714 -0.0131  0.3386  0.0884
  123MOL     O841732   0.714   0.895   3.794 -0.6855  0.4436 -0.1307
  123MOL     H941733   0.587   0.619   3.836 -0.0123  0.6518 -0.1745
  123MOL    H1041734   0.657   0.525   3.709  0.9511  2.3049 -0.0038
  123MOL    H1141735   0.892   0.546   3.803  1.9067  1.1317  2.0325
  123MOL    H1241736   1.036   0.698   3.658 -0.1258  3.5456 -0.2107
  123MOL    H1341737   0.922   0.589   3.566  1.1018 -0.0344 -0.3556
  123MOL    H1441738   1.015   0.832   3.487  1.1204 -0.2285  1.2067
  123MOL    H1541739   0.877   0.756   3.425 -0.0273 -0.5926  0.6002
  123MOL    H1641740   0.876   0.987   3.601  0.3816 -0.7892  0.0614
  123MOL    H1741741   0.718   0.912   3.534 -0.3595 -0.3418  1.5541
  123MOL    H1841742   0.661   0.470   3.878  0.6165  0.4087  1.6378
  123MOL    C1941743   0.847   0.674   3.977  0.2694 -0.3037 -0.0464
  123MOL    C2041744   0.826   0.572   4.091 -0.4854 -0.2128 -0.1894
  123MOL    N2141745   0.894   0.442   4.076 -0.3285  0.4700 -0.2479
  123MOL    C2241746   0.814   0.323   4.089  0.2497 -0.3410  0.2948
  123MOL    C2341747   0.912   0.206   4.071 -0.4789 -0.3295 -0.2569
  123MOL    C2441748   1.047   0.271   4.049 -0.9075  0.5303  0.0562
  123MOL    C2541749   1.024   0.421   4.072  0.7412 -0.1191  0.3236
  123MOL    O2641750   1.113   0.504   4.070 -0.1996  0.0563  0.2548
  123MOL    H2741751   0.798   0.768   3.998  0.9509 -0.2585  1.3759
  123MOL    H2841752   0.944   0.724   3.972  0.1990  0.0626  1.9241
  123MOL    H2941753   0.718   0.562   4.099 -0.7242  1.7185 -0.6717
  123MOL    H3041754   0.769   0.322   4.188  2.4256 -2.2099  1.3084
  123MOL    H3141755   0.729   0.326   4.021 -1.0989 -0.6625  1.9470
  123MOL    H3241756   0.904   0.138   4.155  3.2708  0.1904  0.6213
  123MOL    H3341757   0.886   0.139   3.989  1.5059 -2.1968  0.6086
  123MOL    H3441758   1.103   0.228   4.132 -0.4254  0.9647 -0.0385
  123MOL    H3541759   1.098   0.251   3.954  0.0503 -0.3307  0.7388
  123MOL    C3641760   0.857   0.638   4.230 -0.9091  0.1246 -0.6336
  123MOL    C3741761   0.734   0.718   4.288  0.2404  0.2741 -0.5087
  123MOL    N3841762   0.628   0.634   4.341 -0.4358 -0.0530 -0.2942
  123MOL    C3941763   0.495   0.655   4.286 -0.2312  0.5654 -0.0245
  123MOL    C4041764   0.407   0.546   4.352  0.5233 -0.6657  0.4860
  123MOL    C4141765   0.493   0.486   4.461 -0.0452  1.1240 -0.7949
  123MOL    C4241766   0.632   0.547   4.436 -0.2141  0.1984 -0.2098
  123MOL    O4341767   0.737   0.509   4.495  0.0412  0.2274  0.3112
  123MOL    H4441768   0.939   0.708   4.219 -1.6877  1.0272 -0.6878
  123MOL    H4541769   0.889   0.566   4.306 -0.3889  0.6167 -0.3795
  123MOL    H4641770   0.684   0.773   4.208 -0.7705 -0.3592 -0.3270
  123MOL    H4741771   0.468   0.759   4.304  1.8140  1.1462 -0.2354
  123MOL    H4841772   0.488   0.644   4.178  2.3510 -0.6842 -0.0931
  123MOL    H4941773   0.313   0.590   4.384 -0.0687 -1.6585  0.1076
  123MOL    H5041774   0.374   0.473   4.279 -2.2404 -0.7496  1.7520
  123MOL    H5141775   0.462   0.492   4.566 -0.5883  0.9822 -0.9463
  123MOL    H5241776   0.500   0.381   4.432 -1.1266  0.3869  1.4388
  123MOL    C5341777   0.773   0.813   4.410  0.1839 -0.1868  0.4221
  123MOL    C5441778   0.830   0.956   4.372  0.4423  0.0298 -0.1795
  123MOL    N5541779   0.753   1.029   4.266 -0.0862  0.3007  0.0130
  123MOL    C5641780   0.810   1.112   4.163 -0.9756 -0.2619  0.0204
  123MOL    C5741781   0.694   1.163   4.086 -0.2924 -0.0014 -0.2411
  123MOL    C5841782   0.576   1.133   4.170  1.0262 -0.5943 -0.0332
  123MOL    C5941783   0.621   1.040   4.270 -0.6614 -0.4404 -0.1217
  123MOL    O6041784   0.543   0.996   4.349 -0.4106  0.2192 -0.2236
  123MOL    H6141785   0.846   0.762   4.473  0.5105 -0.7133 -0.3719
  123MOL    H6241786   0.684   0.825   4.472  1.0943 -0.6619  1.8485
  123MOL    H6341787   0.930   0.955   4.327  0.9494  1.0585  0.9058
  123MOL    H6441788   0.869   1.192   4.207 -1.4190  0.4131 -0.6036
  123MOL    H6541789   0.881   1.065   4.096 -1.4382  0.5365 -1.0413
  123MOL    H6641790   0.700   1.272   4.087 -2.5974  0.2368 -3.3768
  123MOL    H6741791   0.682   1.118   3.987 -0.5893  0.4586 -0.4187
  123MOL    H6841792   0.526   1.223   4.205 -0.3656 -0.9872 -1.0048
  123MOL    H6941793   0.509   1.067   4.116 -0.1210 -0.0808  0.7560
  123MOL    C7041794   0.836   1.042   4.501  0.3278 -0.2018 -0.1110
  123MOL    C7141795   0.948   1.013   4.596 -0.1662  0.3986  0.2899
  123MOL    N7241796   1.078   1.041   4.536 -0.0165  0.3929 -0.5794
  123MOL    C7341797   1.123   1.180   4.498 -0.1207  0.5159 -0.3282
  123MOL    C7441798   1.257   1.162   4.430  0.0128 -0.3872  0.2095
  123MOL    C7541799   1.307   1.024   4.478  1.3578 -0.2990  0.1293
  123MOL    C7641800   1.175   0.955   4.506 -0.4064  0.3955  0.0640
  123MOL    O7741801   1.167   0.837   4.524  0.2332 -0.6751  0.3069
  123MOL    H7841802   0.738   1.034   4.549  0.9680  4.8658  2.2769
  123MOL    H7941803   0.846   1.145   4.467  1.8374  0.0647  1.1165
  123MOL    H8041804   0.934   0.909   4.624 -0.9759 -0.5276 -3.2440
  123MOL    H8141805   1.051   1.227   4.430 -1.6366  0.7640  1.4220
  123MOL    H8241806   1.142   1.246   4.582  1.4630 -0.4109  0.0655
  123MOL    H8341807   1.250   1.151   4.322 -2.0225  0.4794  0.2260
  123MOL    H8441808   1.327   1.242   4.452 -4.3087  3.1206  2.0633
  123MOL    H8541809   1.356   0.962   4.403 -0.4591 -0.3286 -1.0734
  123MOL    H8641810   1.351   1.023   4.578  0.6921  1.4108  0.4529
  123MOL    C8741811   0.929   1.106   4.714 -0.4103  0.2511 -0.1405
  123MOL    C8841812   1.012   1.069   4.836  0.3982  0.7618  0.0820
  123MOL    N8941813   1.047   1.193   4.906  0.1360 -0.4281  0.3777
  123MOL    C9041814   1.186   1.213   4.939 -0.3594  0.5337  0.4305
  123MOL    C9141815   1.186   1.325   5.050 -0.7358  0.4507  0.7485
  123MOL    C9241816   1.054   1.391   5.032  0.8638 -0.1076 -0.2658
  123MOL    C9341817   0.978   1.302   4.939 -0.4299  0.2938 -0.4065
  123MOL    O9441818   0.866   1.339   4.904  0.2934 -0.6077 -0.3729
  123MOL    H9541819   0.827   1.107   4.752 -0.5881  0.4798 -0.6211
  123MOL    H9641820   0.956   1.208   4.687 -2.3295  1.1054  1.0705
  123MOL    H9741821   1.102   1.012   4.814  0.3913  0.4272  0.8773
  123MOL    H9841822   1.239   1.127   4.979 -0.2588  1.5726  2.6530
  123MOL    H9941823   1.240   1.240   4.848  0.9701  1.9396  1.5922
  123MOL   H10041824   1.189   1.278   5.148  1.4975  0.4960  0.7351
  123MOL   H10141825   1.276   1.386   5.042 -1.7557  2.1621  2.1290
  123MOL   H10241826   0.989   1.396   5.119  1.3528  0.0013  0.0908
  123MOL   H10341827   1.073   1.486   4.982  2.9232 -0.0061  0.6712
  123MOL   C10441828   0.923   0.986   4.933 -0.5156  0.4060 -1.1464
  123MOL   C10541829   0.870   0.852   4.881 -0.4490  0.0137 -0.2999
  123MOL   N10641830   0.980   0.759   4.852  0.8826  0.2221  0.2343
  123MOL   C10741831   0.958   0.663   4.735 -0.4152  0.6507 -0.4928
  123MOL   C10841832   1.054   0.546   4.749  0.0882  0.2437 -0.6331
  123MOL   C10941833   1.158   0.605   4.842 -0.3849 -0.1029 -0.6292
  123MOL   C11041834   1.087   0.714   4.917  0.0100 -0.3610  0.2093
  123MOL   O11141835   1.129   0.769   5.020 -0.1531 -0.0816 -0.2251
  123MOL   H11241836   0.830   1.034   4.964 -0.4703  1.1452 -2.1087
  123MOL   H11341837   0.966   0.974   5.032 -0.7187  1.0931 -0.9723
  123MOL   H11441838   0.813   0.859   4.789  2.2039  0.7860 -1.9444
  123MOL   H11541839   0.855   0.628   4.734  0.5970 -2.7354  2.3782
  123MOL   H11641840   0.984   0.722   4.647 -0.9680 -0.3187 -1.3136
  123MOL   H11741841   1.005   0.465   4.803 -0.8482  1.3933  0.2643
  123MOL   H11841842   1.078   0.508   4.649  1.1481  0.3867 -0.4430
  123MOL   H11941843   1.242   0.652   4.790 -0.0049 -0.2469 -0.1494
  123MOL   H12041844   1.211   0.535   4.907  0.2997  0.1173 -0.9436
  123MOL   C12141845   0.777   0.780   4.980  0.1893 -0.2766  0.3955
  123MOL   C12241846   0.635   0.834   5.015 -0.5460 -0.2950 -0.1867
  123MOL   N12341847   0.554   0.837   4.896 -0.4517 -0.5014  0.0127
  123MOL   C12441848   0.496   0.712   4.840  0.1359 -0.0110 -0.4773
  123MOL   C12541849   0.440   0.749   4.702 -0.0753 -0.3068  0.1460
  123MOL   C12641850   0.468   0.899   4.685  0.5629 -0.6612  0.0609
  123MOL   C12741851   0.520   0.942   4.822  0.2928 -0.5494  0.5717
  123MOL   O12841852   0.541   1.060   4.846  0.4723  0.2276 -0.1138
  123MOL   H12941853   0.821   0.758   5.077  0.2042  1.0516  0.7039
  123MOL   H13041854   0.763   0.681   4.937 -1.8805 -0.1613  0.7368
  123MOL   H13141855   0.644   0.939   5.044  2.5121 -0.5270 -0.1354
  123MOL   H13241856   0.426   0.671   4.913  1.0089 -1.0519 -0.2130
  123MOL   H13341857   0.578   0.642   4.823 -0.6493 -0.8820 -0.7535
  123MOL   H13441858   0.499   0.683   4.639 -1.2636  1.4683 -2.9436
  123MOL   H13541859   0.336   0.717   4.696 -0.7446  1.8673 -0.3029
  123MOL   H13641860   0.551   0.911   4.616 -0.8985 -0.5222 -1.7304
  123MOL   H13741861   0.384   0.955   4.644  0.0238 -0.2395  1.6975
  123MOL   C13841862   0.558   0.766   5.126 -0.6488 -0.1123 -0.5618
  123MOL   C13941863   0.616   0.786   5.268  0.2922  0.2614 -0.5586
  123MOL   N14041864   0.602   0.932   5.304  0.2781 -0.6688  0.5715
  123MOL   C14141865   0.725   1.014   5.312 -0.0720 -0.0846  0.0567
  123MOL   C14241866   0.670   1.155   5.278 -0.1840 -0.5027 -0.2784
  123MOL   C14341867   0.520   1.159   5.321 -0.4658 -0.3536  0.1854
  123MOL   C14441868   0.488   1.008   5.304 -0.8752 -0.2136  0.0640
  123MOL   O14541869   0.373   0.965   5.288  0.0845  0.3545 -0.1776
  123MOL   H14641870   0.569   0.662   5.094 -0.1609 -0.0857 -0.4968
  123MOL   H14741871   0.451   0.782   5.122 -0.4806  1.1010 -0.1995
  123MOL   H14841872   0.722   0.764   5.264  0.4197  0.6742  0.3482
  123MOL   H14941873   0.768   1.004   5.412  2.3720  0.1356 -0.9403
  123MOL   H15041874   0.796   0.972   5.241 -0.0046 -0.2361  0.2132
  123MOL   H15141875   0.730   1.235   5.322 -0.1324 -0.3309 -0.6613
  123MOL   H15241876   0.675   1.172   5.171 -2.3793  0.8967 -0.1881
  123MOL   H15341877   0.454   1.220   5.260 -1.2314 -0.5797  0.7794
  123MOL   H15441878   0.505   1.181   5.427 -0.1076 -1.2320  0.4276
  123MOL   C15541879   0.542   0.690   5.374  0.0420 -0.1506  0.0571
  123MOL   C15641880   0.565   0.534   5.350  0.4880 -0.2699 -0.2047
  123MOL   N15741881   0.711   0.507   5.333  0.2592  0.5595  0.2472
  123MOL   C15841882   0.746   0.443   5.210 -0.6729 -0.4041 -0.1339
  123MOL   C15941883   0.902   0.431   5.224  0.1017  0.9896  0.1047
  123MOL   C16041884   0.942   0.483   5.366 -0.1929 -0.0693 -0.0538
  123MOL   C16141885   0.810   0.518   5.428 -0.3448 -0.1800  0.0416
  123MOL   O16241886   0.798   0.559   5.543 -0.0122  0.3062  0.2654
  123MOL   H16341887   0.439   0.725   5.379 -0.3171 -1.1112 -0.5364
  123MOL   H16441888   0.579   0.710   5.475  1.6321 -1.7183 -0.2048
  123MOL   H16541889   0.520   0.503   5.256 -0.7245 -0.2748  0.3635
  123MOL   H16641890   0.712   0.339   5.200 -0.2031 -0.6468  0.7415
  123MOL   H16741891   0.729   0.511   5.127 -0.3590 -1.1835 -0.8455
  123MOL   H16841892   0.932   0.326   5.221 -1.4730  0.5577 -0.9123
  123MOL   H16941893   0.954   0.489   5.147  1.5039  0.5179  0.6794
  123MOL   H17041894   0.991   0.410   5.429  0.0953 -0.0670 -0.2710
  123MOL   H17141895   1.008   0.569   5.354  2.6832 -1.8020  2.6523
  123MOL   C17241896   0.496   0.451   5.456  0.3736  0.3356 -0.4694
  123MOL   C17341897   0.347   0.416   5.426  0.0525  0.0801 -0.7561
  123MOL   N17441898   0.269   0.538   5.406  0.3142  0.3713 -0.3135
  123MOL   C17541899   0.248   0.616   5.521 -0.7320 -0.4118 -0.1611
  123MOL   C17641900   0.152   0.722   5.476  0.4533 -0.1498 -0.1530
  123MOL   C17741901   0.125   0.708   5.330  0.3560  0.5274  0.1145
  123MOL   C17841902   0.199   0.578   5.300  0.1448  0.4907 -0.1376
  123MOL   O17941903   0.190   0.515   5.192 -0.6455  0.3319  0.1382
  123MOL   H18041904   0.502   0.510   5.548 -1.1630 -1.4797  0.8405
  123MOL   H18141905   0.549   0.363   5.492 -0.9631 -1.1860 -2.0902
  123MOL   H18241906   0.304   0.362   5.511  2.3018 -1.7308 -0.7183
  123MOL   H18341907   0.206   0.561   5.605 -1.3992  1.2200  0.5948
  123MOL   H18441908   0.348   0.650   5.550 -0.1471 -1.8320 -0.5028
  123MOL   H18541909   0.194   0.818   5.506  0.1241 -0.1605  0.3491
  123MOL   H18641910   0.059   0.707   5.531  0.6274 -1.4918 -0.2247
  123MOL   H18741911   0.020   0.688   5.310  0.8735 -2.6270  0.2929
  123MOL   H18841912   0.157   0.791   5.267 -0.9857  0.6689 -0.3990
  123MOL   C18941913   0.337   0.302   5.312  0.0831  0.1079  0.4834
  123MOL   C19041914   0.409   0.163   5.330 -0.4914 -0.8269  0.2104
  123MOL   N19141915   0.380   0.086   5.451  0.5377  0.2752  0.5721
  123MOL   C19241916   0.490   0.049   5.541  0.8191  0.5881  0.8613
  123MOL   C19341917   0.420   7.861   5.641 -0.3410  0.3071 -0.1747
  123MOL   C19441918   0.276   7.905   5.638 -0.3561 -0.3133  0.3915
  123MOL   C19541919   0.259   0.065   5.505 -0.2740 -0.5739 -0.4727
  123MOL   O19641920   0.147   0.092   5.460  0.1353 -0.1759 -0.0890
  123MOL   H19741921   0.367   0.348   5.218  0.1791 -0.6169  0.1545
  123MOL   H19841922   0.233   0.280   5.287 -0.4291  1.8422  1.0540
  123MOL   H19941923   0.514   0.194   5.328 -1.0814  1.1449 -1.2561
  123MOL   H20041924   0.569   0.002   5.482  0.6596  0.2516  0.9123
  123MOL   H20141925   0.539   0.135   5.586  1.8903 -0.2128  1.2482
  123MOL   H20241926   0.434   7.756   5.616 -0.3291 -0.6787  3.6128
  123MOL   H20341927   0.462   7.873   5.741 -1.5832  0.9302  0.2900
  123MOL   H20441928   0.205   7.827   5.667 -1.2524  0.3700  0.0704
  123MOL   H20541929   0.261   0.067   5.723  0.8891  0.8470 -0.2985
  123MOL   C20641930   0.391   0.074   5.207  0.9384 -0.1876 -0.0840
  123MOL   C20741931   0.519   0.066   5.123 -0.8738  0.0879  0.0770
  123MOL   N20841932   0.618   7.892   5.200 -0.6098 -0.0718 -0.4159
  123MOL   C20941933   0.751   0.052   5.218  0.1536 -0.0390 -0.1006
  123MOL   C21041934   0.844   7.843   5.259  0.5611 -0.4488 -0.2894
  123MOL   C21141935   0.753   7.726   5.298 -0.6954 -0.6262 -0.3904
  123MOL   C21241936   0.615   7.769   5.239 -0.1971 -0.2893 -0.2301
  123MOL   O21341937   0.530   7.682   5.212 -0.0345  0.4837 -0.0888
  123MOL   H21441938   0.318   0.116   5.138  1.1457  0.3836  0.0384
  123MOL   H21541939   0.357   7.880   5.233  0.3642  0.2748  0.9792
  123MOL   H21641940   0.561   0.166   5.122 -2.1976  0.6553 -0.9054
  123MOL   H21741941   0.791   0.100   5.128  0.7426  1.4140  0.9205
  123MOL   H21841942   0.734   0.113   5.306 -0.7011 -0.1845 -0.1587
  123MOL   H21941943   0.898   7.798   5.175 -0.5058  0.9004 -1.7325
  123MOL   H22041944   0.916   7.873   5.336 -0.1081  0.3249  0.0391
  123MOL   H22141945   0.793   7.627   5.276  1.5204  0.0224  0.5879
  123MOL   H22241946   0.736   7.732   5.405  2.5355  0.5693  0.1312
  123MOL   C22341947   0.497   0.017   4.979 -0.5784 -0.1892  0.0402
  123MOL   C22441948   0.435   0.121   4.882  0.0171  0.1294  0.3291
  123MOL   N22541949   0.546   0.200   4.837  0.5477  0.7631 -0.1419
  123MOL   C22641950   0.652   0.143   4.756 -0.4620  0.5507  0.2263
  123MOL   C22741951   0.739   0.264   4.704 -0.2186  0.3014  0.4290
  123MOL   C22841952   0.687   0.389   4.786 -0.2738 -0.2187  0.5081
  123MOL   C22941953   0.572   0.331   4.867 -0.6699  0.3366 -0.3471
  123MOL   O23041954   0.515   0.404   4.947  0.1313  0.6923  0.0465
  123MOL   H23141955   0.418   7.848   4.986 -0.2338 -0.5802 -0.1920
  123MOL   H23241956   0.586   7.869   4.945 -1.2112  0.2592 -2.3896
  123MOL   H23341957   0.374   0.195   4.934 -0.2690  1.4536 -1.8165
  123MOL   H23441958   0.720   0.090   4.822 -1.6249 -1.7606 -0.3832
  123MOL   H23541959   0.631   0.070   4.678  2.6850 -1.2241  0.9644
  123MOL   H23641960   0.848   0.256   4.707 -0.3462 -1.9661 -0.0862
  123MOL   H23741961   0.707   0.269   4.600  0.5503  0.2103  0.1888
  123MOL   H23841962   0.766   0.418   4.856  0.1425  0.4062 -0.2057
  123MOL   H23941963   0.664   0.479   4.729  3.3680  0.3757 -0.1488
  123MOL   C24041964   0.343   0.057   4.774 -0.6766  0.1580  0.2057
  123MOL   C24141965   0.191   0.068   4.794  0.3508  0.2894 -0.7448
  123MOL   N24241966   0.148   0.203   4.802  0.1574 -0.6511  0.4234
  123MOL   C24341967   0.083   0.256   4.917  0.3274  0.3728  0.1669
  123MOL   C24441968   0.024   0.394   4.882 -0.9296 -0.2141  0.1380
  123MOL   C24541969   0.097   0.429   4.757 -0.7259  1.0875  0.9175
  123MOL   C24641970   0.155   0.293   4.706  0.5977  0.8577  0.0507
  123MOL   O24741971   0.190   0.276   4.592  0.4016 -0.2951 -0.3592
  123MOL   H24841972   0.376   7.860   4.759  0.9658  0.9740 -2.1201
  123MOL   H24941973   0.365   0.101   4.677  2.4585 -0.8637  0.3879
  123MOL   H25041974   0.172   0.043   4.899 -0.3600 -1.5074 -1.2705
  123MOL   H25141975   7.905   0.192   4.942  0.1688  0.8554  0.9052
  123MOL   H25241976   0.144   0.249   5.007  0.7410 -0.5980 -0.1755
  123MOL   H25341977   7.822   0.411   4.871 -0.5719  1.5979 -0.7942
  123MOL   H25441978   0.063   0.452   4.965 -0.9704 -2.4080  1.7398
  123MOL   H25541979   0.022   0.479   4.695 -0.2810 -1.7160 -1.9890
  123MOL   H25641980   0.180   0.497   4.777 -1.1957  1.7629  0.5890
  123MOL   C25741981   0.101   7.878   4.703  0.3219 -0.6426 -0.7307
  123MOL   C25841982   0.107   7.724   4.731 -0.1482 -0.2045  0.6143
  123MOL   N25941983   0.113   7.698   4.870 -0.1394 -0.5529 -0.1954
  123MOL   C26041984   0.226   7.618   4.914 -0.3664  0.0568  0.1486
  123MOL   C26141985   0.223   7.617   5.067 -0.4353  0.0120 -0.1676
  123MOL   C26241986   0.082   7.664   5.103  0.4694  0.4589  0.2877
  123MOL   C26341987   0.025   7.713   4.966  0.1527  0.4248  0.0448
  123MOL   O26441988   7.816   7.752   4.955  0.2507  0.4896 -0.6988
  123MOL   H26541989   0.125   7.903   4.600  0.3036 -1.8619 -1.0382
  123MOL   H26641990   7.903   0.001   4.722  0.9214  0.3874  0.9809
  123MOL   H26741991   0.202   7.698   4.683 -0.4493  2.6821 -1.6687
  123MOL   H26841992   0.225   7.524   4.859  1.6368  0.6572 -0.9419
  123MOL   H26941993   0.321   7.658   4.879  0.2143 -1.0982  0.3732
  123MOL   H27041994   0.258   7.515   5.083  0.5022  0.5867  1.5516
  123MOL   H27141995   0.305   7.674   5.110  1.1053  0.4472 -3.5652
  123MOL   H27241996   0.014   7.586   5.136 -1.9871  2.2935 -0.2928
  123MOL   H27341997   0.078   7.742   5.180  1.4358  0.5315  0.2734
  123MOL   C27441998   7.890   7.656   4.654 -0.5408 -0.2506 -0.2043
  123MOL   C27541999   0.008   7.497   4.622 -0.0560 -0.1517 -0.2267
  123MOL   N27642000   7.793   7.412   4.636 -0.3192  0.3157 -0.1417
  123MOL   C27742001   7.665   7.472   4.610  0.4137 -0.0261 -0.1392
  123MOL   C27842002   7.566   7.358   4.621  0.0637  0.7929 -0.3367
  123MOL   C27942003   7.643   7.230   4.643  0.2614  0.1888 -0.4703
  123MOL   C28042004   7.787   7.281   4.658 -0.5678  0.4485  0.1469
  123MOL   O28142005   7.884   7.211   4.690  0.0870  0.3434 -0.4744
  123MOL   H28242006   7.856   7.700   4.560 -1.3383 -2.0163 -0.7519
  123MOL   H28342007   7.806   7.672   4.721 -0.1876  2.2261 -0.2989
  123MOL   H28442008   0.071   7.455   4.700 -2.5196  0.3652  2.1159
  123MOL   H28542009   7.648   7.551   4.683  1.1581  0.2169 -0.2252
  123MOL   H28642010   7.661   7.523   4.514 -1.5827  1.9204  0.9336
  123MOL   H28742011   7.495   7.376   4.702  0.9464  1.0701  0.3832
  123MOL   H28842012   7.502   7.346   4.533 -0.5614 -1.3920  0.3901
  123MOL   H28942013   7.608   7.171   4.727 -2.5314  0.2103 -1.5657
  123MOL   H29042014   7.630   7.164   4.557 -0.3810 -0.2845 -0.0179
  123MOL   C29142015   0.059   7.482   4.477  0.2974 -0.5462 -0.7290
  123MOL   C29242016   0.206   7.528   4.454  0.6338 -0.3718 -0.3986
  123MOL   N29342017   0.307   7.462   4.545 -0.0502  0.2304  0.1037
  123MOL   C29442018   0.307   7.320   4.568 -0.5111  0.2273  0.1680
  123MOL   C29542019   0.441   7.297   4.641 -0.4426 -0.1349  0.1496
  123MOL   C29642020   0.514   7.430   4.653  0.2683  0.3305  0.1512
  123MOL   C29742021   0.415   7.525   4.590  0.6122  0.2172  0.1276
  123MOL   O29842022   0.425   7.647   4.596 -0.6710 -0.5191  0.0834
  123MOL   H29942023   7.903   7.545   4.413  1.1798 -1.3221 -2.3785
  123MOL   H30042024   0.037   7.385   4.433 -1.6905 -1.5841  2.3512
  123MOL   H30142025   0.210   7.632   4.487  1.0479  0.1820 -2.1526
  123MOL   H30242026   0.227   7.286   4.634 -1.0147  0.1629 -0.4743
  123MOL   H30342027   0.296   7.271   4.471  1.8468  0.4439 -0.2338
  123MOL   H30442028   0.425   7.258   4.742 -1.8841  0.6085  0.2208
  123MOL   H30542029   0.507   7.223   4.596  0.0528  0.5847 -0.3179
  123MOL   H30642030   0.548   7.469   4.749 -2.3680 -0.2125  1.3525
  123MOL   H30742031   0.603   7.409   4.593  0.1820  0.7952 -0.1426
  123MOL   C30842032   0.246   7.501   4.308  0.3765 -0.1706  0.4599
  123MOL   C30942033   0.168   7.594   4.213 -0.6009  0.0817  0.0098
  123MOL   N31042034   0.172   7.735   4.239  0.0845 -0.1563 -0.1406
  123MOL   C31142035   0.297   7.811   4.244  0.1850  0.1930  0.2856
  123MOL   C31242036   0.263   0.043   4.296 -0.4262 -0.0610  0.2487
  123MOL   C31342037   0.112   0.056   4.291 -0.0081 -0.3955  0.6824
  123MOL   C31442038   0.068   7.813   4.276 -0.3342 -0.9075 -0.1522
  123MOL   O31542039   7.862   7.779   4.308 -0.0956  0.3465  0.0399
  123MOL   H31642040   0.223   7.399   4.277 -2.9325  0.5739  0.1823
  123MOL   H31742041   0.351   7.522   4.291 -0.0450  0.1697 -1.8131
  123MOL   H31842042   0.061   7.573   4.214 -0.5509 -0.1529  1.0580
  123MOL   H31942043   0.369   7.757   4.305  1.2126  1.5570  0.3004
  123MOL   H32042044   0.330   7.824   4.141 -1.0770 -0.0509 -0.1608
  123MOL   H32142045   0.289   0.062   4.401 -1.7215  5.2588 -0.2272
  123MOL   H32242046   0.315   0.127   4.250  0.7514  0.1015  1.7933
  123MOL   H32342047   0.077   0.104   4.382 -1.3852 -1.5086  0.7385
  123MOL   H32442048   0.078   0.117   4.207  1.9115 -2.7385 -1.9053
  123MOL   C32542049   0.201   7.567   4.068 -0.1567 -0.2663 -0.3173
  123MOL   C32642050   0.152   7.429   4.018 -0.1330  0.2899  0.5632
  123MOL   N32742051   0.151   7.414   3.870 -0.1851  0.1113  0.0469
  123MOL   C32842052   0.030   7.401   3.789  0.6015 -0.0925 -0.1976
  123MOL   C32942053   0.069   7.375   3.653 -0.5918 -0.0822  0.1666
  123MOL   C33042054   0.220   7.388   3.649  0.0610  0.1711 -0.2906
  123MOL   C33142055   0.261   7.394   3.798 -0.8621 -0.7685 -0.1313
  123MOL   O33242056   0.377   7.378   3.842  0.2077 -0.1941 -0.1921
  123MOL   H33342057   0.308   7.557   4.051 -0.4221 -1.0694 -1.5329
  123MOL   H33442058   0.170   7.646   3.999  0.4760  0.4189  0.1694
  123MOL   H33542059   0.056   7.405   4.065 -0.8954  1.7703 -0.2119
  123MOL   H33642060   7.872   7.323   3.830  1.2710  0.4534  1.9216
  123MOL   H33742061   7.879   7.493   3.802 -0.7386 -0.9577  0.1694
  123MOL   H33842062   0.046   7.273   3.622 -1.8580  0.0153  0.7551
  123MOL   H33942063   0.022   7.440   3.579  1.3121  2.3654  1.0340
  123MOL   H34042064   0.267   7.311   3.588  1.7039  0.6208  0.3838
  123MOL   H34142065   0.250   7.484   3.606  2.0908 -0.7740 -1.0033
  123MOL   H34242066   0.218   7.345   4.039  0.0046 -0.2374 -1.8884
  124MOL     C142067   7.328   1.796   7.737 -0.0820 -0.5328  0.1426
  124MOL     C242068   7.300   1.683   7.841 -0.0547 -0.0184  0.6374
  124MOL     N342069   7.364   1.723   0.062 -0.4068  0.8045 -0.2068
  124MOL     C442070   7.488   1.665   0.110 -0.5020  0.6653  0.5146
  124MOL     C542071   7.521   1.739   0.244  0.3282  0.1809  0.6130
  124MOL     C642072   7.404   1.846   0.263 -0.5298  0.7190 -0.0254
  124MOL     C742073   7.321   1.821   0.144  0.6541 -0.1000 -0.4564
  124MOL     O842074   7.221   1.888   0.133 -0.6416 -0.3779 -0.3773
  124MOL     H942075   7.335   1.748   7.639 -1.5087 -0.1757 -0.1536
  124MOL    H1042076   7.251   1.873   7.734  1.1419  0.6962 -0.3800
  124MOL    H1142077   7.353   1.594   7.808 -1.1382  0.8623 -3.8199
  124MOL    H1242078   7.469   1.559   0.126  0.7323  0.5685  1.4216
  124MOL    H1342079   7.568   1.674   0.036  0.3967  1.0953  1.5312
  124MOL    H1442080   7.527   1.666   0.324  0.0186  0.0261  0.4972
  124MOL    H1542081   7.611   1.797   0.224  0.1904 -0.1483 -1.0255
  124MOL    H1642082   7.348   1.836   0.356 -0.3994  0.6019  0.0414
  124MOL    H1742083   7.446   1.947   0.267  0.2373  0.3916  0.5543
  124MOL    H1842084   7.422   1.845   7.763 -0.9185  1.1062  0.1545
  124MOL    C1942085   7.153   1.643   7.862  0.6773 -0.0771  0.3191
  124MOL    C2042086   7.084   1.557   7.753 -1.1862  0.0685  0.0376
  124MOL    N2142087   7.155   1.426   7.735  0.4858  0.0228 -0.5355
  124MOL    C2242088   7.142   1.310   7.830  0.2050  0.2708 -0.1041
  124MOL    C2342089   7.233   1.193   7.774  0.1273  0.4717 -0.9293
  124MOL    C2442090   7.293   1.254   7.646 -0.6113  0.0776  0.4327
  124MOL    C2542091   7.243   1.400   7.635  0.3558 -0.7840  0.2147
  124MOL    O2642092   7.274   1.466   7.538  0.3087 -0.0002  0.3003
  124MOL    H2742093   7.090   1.733   7.865  0.2896 -0.3700  0.9880
  124MOL    H2842094   7.138   1.589   0.049  0.3132  0.6556  0.6904
  124MOL    H2942095   7.104   1.616   7.664 -4.1607  4.3833  2.0319
  124MOL    H3042096   7.169   1.342   0.025  1.6981  3.7343 -1.4987
  124MOL    H3142097   7.040   1.274   7.840  0.0942  0.7934  0.7894
  124MOL    H3242098   7.307   1.177   7.853 -1.4568 -2.1622  0.0996
  124MOL    H3342099   7.187   1.096   7.755  0.3381  0.2033 -0.1040
  124MOL    H3442100   7.402   1.259   7.643 -0.6039  1.2407  1.7686
  124MOL    H3542101   7.264   1.195   7.559 -1.4206  0.7823  0.2173
  124MOL    C3642102   6.929   1.537   7.771  0.2374  0.8243  0.0913
  124MOL    C3742103   6.833   1.651   7.762  0.1326 -0.2142  0.6661
  124MOL    N3842104   6.852   1.736   7.648  0.3940  0.2571 -0.4887
  124MOL    C3942105   6.876   1.875   7.666 -0.6967  0.0328  0.1672
  124MOL    C4042106   6.913   1.936   7.529  0.8750 -0.4043 -0.1738
  124MOL    C4142107   6.864   1.834   7.435 -0.0181  0.4125 -0.2732
  124MOL    C4242108   6.854   1.706   7.518 -0.1135 -0.5028 -0.4434
  124MOL    O4342109   6.845   1.592   7.472  0.5424 -0.3883 -0.0019
  124MOL    H4442110   6.912   1.492   7.869 -0.8272  0.7963 -0.1005
  124MOL    H4542111   6.889   1.453   7.713 -2.6094  1.6536  0.7517
  124MOL    H4642112   6.851   1.704   7.856  1.0855 -0.3660  0.5714
  124MOL    H4742113   6.791   1.929   7.706 -1.7545 -1.0338 -0.6145
  124MOL    H4842114   6.963   1.885   7.731  1.3710 -0.5049 -2.4468
  124MOL    H4942115   6.867   2.034   7.524  1.7561  0.0233  0.1122
  124MOL    H5042116   7.022   1.941   7.529  0.8435  0.4979 -1.6293
  124MOL    H5142117   6.760   1.853   7.407 -0.9363 -1.3070  1.7919
  124MOL    H5242118   6.921   1.816   7.345  0.1991 -0.6605  0.0794
  124MOL    C5342119   6.685   1.602   7.762 -0.3347 -0.0087 -0.4322
  124MOL    C5442120   6.651   1.520   7.899  0.3749  0.0858  0.3781
  124MOL    N5542121   6.654   1.612   0.111 -0.2652 -0.0750 -0.5192
  124MOL    C5642122   6.759   1.594   0.218  0.3707  0.2088 -0.0356
  124MOL    C5742123   6.774   1.727   0.289  0.5806 -0.4089  0.2449
  124MOL    C5842124   6.692   1.827   0.210  0.1354  0.0678  0.3567
  124MOL    C5942125   6.613   1.740   0.117 -0.6432 -1.1470 -0.4150
  124MOL    O6042126   6.520   1.789   0.055 -0.2294 -0.2500  0.4186
  124MOL    H6142127   6.661   1.538   7.677 -0.5826  1.8110 -1.7656
  124MOL    H6242128   6.617   1.687   7.757  0.0014  0.2646 -0.3543
  124MOL    H6342129   6.717   1.440   0.028 -0.6945 -1.7577 -1.6331
  124MOL    H6442130   6.719   1.508   0.271 -0.2307  0.1909 -0.5070
  124MOL    H6542131   6.850   1.570   0.163 -0.0121 -1.8116  0.1547
  124MOL    H6642132   6.725   1.720   0.386 -1.6831 -2.4325 -0.9902
  124MOL    H6742133   6.880   1.750   0.273 -0.1724  1.5122 -2.2645
  124MOL    H6842134   6.616   1.874   0.272  0.0826 -0.0664  0.3953
  124MOL    H6942135   6.754   1.902   0.161  0.4015  0.1483  0.8188
  124MOL    C7042136   6.510   1.458   7.886  0.4155  0.3901  0.4859
  124MOL    C7142137   6.492   1.343   7.784  0.6172 -0.1649  0.7100
  124MOL    N7242138   6.573   1.220   7.827  0.2422 -0.6941 -0.8543
  124MOL    C7342139   6.706   1.197   7.774  0.5188 -0.3749  0.5317
  124MOL    C7442140   6.753   1.089   7.870 -0.7675 -0.4247 -0.3813
  124MOL    C7542141   6.647   1.032   0.045 -0.6275 -0.0164 -0.2475
  124MOL    C7642142   6.533   1.123   0.004 -0.2497 -0.7438  0.0592
  124MOL    O7742143   6.420   1.101   0.049 -0.1066 -0.0488  0.7780
  124MOL    H7842144   6.440   1.541   7.871  1.3005  1.1344  0.4099
  124MOL    H7942145   6.484   1.409   0.074  2.8301 -3.4643 -0.7726
  124MOL    H8042146   6.534   1.366   7.686  0.0418  0.9637  0.7149
  124MOL    H8142147   6.717   1.162   7.671  1.2101 -2.0889  1.1637
  124MOL    H8242148   6.768   1.286   7.781 -2.4446  1.9405 -1.6007
  124MOL    H8342149   6.807   1.007   7.823 -0.6563 -0.5538 -0.0298
  124MOL    H8442150   6.820   1.136   0.037 -1.4273  2.0818 -1.3617
  124MOL    H8542151   6.626   0.928   0.021 -0.8264  0.2663 -1.3274
  124MOL    H8642152   6.667   1.031   0.152 -1.1249  1.3708 -0.1255
  124MOL    C8742153   6.343   1.308   7.767 -0.1100 -0.5126 -0.1973
  124MOL    C8842154   6.240   1.414   7.713  0.1997  0.4699 -0.3967
  124MOL    N8942155   6.294   1.461   7.585  0.1467 -0.5754  0.7171
  124MOL    C9042156   6.349   1.599   7.575  0.2511  0.3880 -0.3453
  124MOL    C9142157   6.381   1.617   7.426  0.8102 -0.8155 -0.0651
  124MOL    C9242158   6.360   1.489   7.357 -0.2900 -0.4016  0.2955
  124MOL    C9342159   6.312   1.397   7.467  0.1358 -0.8184  0.1308
  124MOL    O9442160   6.278   1.284   7.439  0.8224  0.4555  0.0964
  124MOL    H9542161   6.299   1.272   7.860 -0.9268 -0.5328 -0.5797
  124MOL    H9642162   6.340   1.227   7.694 -3.0821 -0.0985 -0.6191
  124MOL    H9742163   6.244   1.499   7.781 -1.3478 -0.7206  1.2158
  124MOL    H9842164   6.286   1.680   7.611  0.0382  1.1104 -2.3055
  124MOL    H9942165   6.448   1.591   7.621  2.2965  0.7248 -4.4284
  124MOL   H10042166   6.313   1.691   7.382  0.6107 -0.7057  0.4250
  124MOL   H10142167   6.479   1.663   7.412  0.3831  1.1454  2.9713
  124MOL   H10242168   6.277   1.500   7.287 -0.4641  1.3121  0.7349
  124MOL   H10342169   6.448   1.449   7.308 -1.1883 -1.9310 -0.1086
  124MOL   C10442170   6.092   1.365   7.702  0.5430  0.3719 -0.2300
  124MOL   C10542171   6.022   1.353   7.841 -0.1560  0.6570 -0.6675
  124MOL   N10642172   6.027   1.485   0.006  0.0673 -0.5240 -0.1385
  124MOL   C10742173   6.121   1.504   0.119 -0.6251  0.5353  0.0424
  124MOL   C10842174   6.087   1.643   0.168 -0.0608 -0.4315 -0.3682
  124MOL   C10942175   5.960   1.691   0.104  0.2995 -0.4007  0.1644
  124MOL   C11042176   5.951   1.595   7.890 -0.0005  0.2520 -0.0960
  124MOL   O11142177   5.873   1.618   7.799  0.1942  0.3424 -0.3038
  124MOL   H11242178   6.106   1.271   7.650 -1.3957 -0.2749  0.3639
  124MOL   H11342179   6.045   1.439   7.637 -0.1165  0.7225  0.6263
  124MOL   H11442180   6.071   1.283   0.003  0.3615 -0.0953 -1.7999
  124MOL   H11542181   6.103   1.430   0.197  0.5060 -0.2570 -0.4466
  124MOL   H11642182   6.224   1.501   0.085 -0.2679  1.3934  1.0182
  124MOL   H11742183   6.073   1.631   0.275  0.0165 -1.9719 -0.5269
  124MOL   H11842184   6.171   1.711   0.155 -0.9815  0.5889 -1.0488
  124MOL   H11942185   5.947   1.791   0.063 -4.3254 -0.5677  0.9225
  124MOL   H12042186   5.877   1.659   0.166 -1.3053  1.0199 -1.2065
  124MOL   C12142187   5.880   1.306   7.838  0.1838  0.5394  0.0238
  124MOL   C12242188   5.870   1.157   7.794 -0.4606 -0.1540 -0.4945
  124MOL   N12342189   5.939   1.068   7.887 -0.2293 -0.1022  0.0920
  124MOL   C12442190   6.060   1.003   7.845 -0.4714 -0.1125  0.2348
  124MOL   C12542191   6.087   0.889   0.036  0.0009 -0.0235  0.2263
  124MOL   C12642192   5.999   0.921   0.154 -0.2013  0.4025  0.0120
  124MOL   C12742193   5.913   1.041   0.105 -0.0031  0.1339  0.2022
  124MOL   O12842194   5.834   1.099   0.179 -0.0761  0.1272  0.7954
  124MOL   H12942195   5.818   1.363   7.770  0.2924  0.0627 -0.4771
  124MOL   H13042196   5.836   1.315   0.032  0.4900 -1.4367  0.3765
  124MOL   H13142197   5.903   1.147   7.691  0.8889 -2.1263  0.1102
  124MOL   H13242198   6.145   1.070   7.828  0.4448 -2.0224 -3.1878
  124MOL   H13342199   6.033   0.968   7.745  0.6184  0.1528 -0.1606
  124MOL   H13442200   6.066   0.789   7.904 -0.4843 -0.4539  1.5705
  124MOL   H13542201   6.191   0.895   0.070  0.2643 -3.0186  0.1000
  124MOL   H13642202   5.931   0.845   0.194  1.6976 -0.8724  0.9129
  124MOL   H13742203   6.053   0.955   0.243 -0.0822 -0.2498  0.1926
  124MOL   C13842204   5.717   1.107   7.793 -0.4352 -0.4624  0.1586
  124MOL   C13942205   5.642   1.140   7.658  0.3649 -0.6131 -0.7347
  124MOL   N14042206   5.684   1.053   7.541  0.7536 -0.3719 -0.2177
  124MOL   C14142207   5.775   1.096   7.438  0.4612 -0.6198 -0.1662
  124MOL   C14242208   5.810   0.977   7.349  0.4209 -0.1903  0.2135
  124MOL   C14342209   5.763   0.856   7.433 -0.0782 -0.1199 -0.1178
  124MOL   C14442210   5.683   0.920   7.550  0.0070 -0.5840 -0.6694
  124MOL   O14542211   5.623   0.845   7.632 -0.2549 -0.7693  0.1436
  124MOL   H14642212   5.655   1.155   7.868  0.5553  1.1598 -0.0494
  124MOL   H14742213   5.714   1.002   7.822  0.5661 -0.7455 -0.7237
  124MOL   H14842214   5.666   1.241   7.625 -1.3814 -0.5590 -1.9295
  124MOL   H14942215   5.744   1.187   7.386  2.5599  0.1890 -0.0152
  124MOL   H15042216   5.869   1.130   7.479  0.3128  0.7268 -0.9142
  124MOL   H15142217   5.753   0.978   7.256 -1.1227  1.2440  1.1416
  124MOL   H15242218   5.917   0.972   7.328  0.2817 -2.6108 -0.0040
  124MOL   H15342219   5.847   0.803   7.478  0.9467  0.4994 -1.2872
  124MOL   H15442220   5.707   0.787   7.370  1.0234 -0.3136 -0.8910
  124MOL   C15542221   5.487   1.153   7.685  0.0638 -0.6002  0.4292
  124MOL   C15642222   5.386   1.171   7.572 -0.4099  0.3635  0.1082
  124MOL   N15742223   5.252   1.127   7.611  0.5362 -0.4605  0.1022
  124MOL   C15842224   5.172   1.043   7.519 -0.2567 -0.0064  0.0806
  124MOL   C15942225   5.028   1.040   7.579  0.2527 -0.0327 -0.8628
  124MOL   C16042226   5.046   1.116   7.715  0.3887  0.2178  0.4816
  124MOL   C16142227   5.180   1.181   7.707 -0.0638 -0.1072 -0.4163
  124MOL   O16242228   5.222   1.267   7.786 -0.5350  0.6470 -0.0547
  124MOL   H16342229   5.473   1.229   7.763  0.5626  2.3515 -2.2407
  124MOL   H16442230   5.453   1.061   7.733 -2.1744  0.4509  0.9289
  124MOL   H16542231   5.413   1.100   7.494  1.1361  1.6058 -0.5078
  124MOL   H16642232   5.176   1.090   7.421 -2.7815  3.2164  1.4070
  124MOL   H16742233   5.209   0.941   7.513 -0.1012  0.1086 -0.9654
  124MOL   H16842234   4.956   1.093   7.516 -2.7605 -4.3900 -1.3215
  124MOL   H16942235   4.988   0.941   7.600 -0.4384  0.3034 -0.5673
  124MOL   H17042236   4.958   1.180   7.716 -1.6325 -2.4550  0.6337
  124MOL   H17142237   5.058   1.057   7.806  2.4671  1.0753  0.7832
  124MOL   C17242238   5.380   1.318   7.530  0.0363 -0.4154 -0.1064
  124MOL   C17342239   5.451   1.356   7.401 -0.2171  0.5859  0.1952
  124MOL   N17442240   5.402   1.279   7.280  0.1494 -0.7984 -0.5541
  124MOL   C17542241   5.488   1.212   7.180 -0.1282  0.1574  0.0736
  124MOL   C17642242   5.406   1.195   7.055  0.2135  0.0682 -0.0843
  124MOL   C17742243   5.261   1.228   7.096 -0.3968 -0.1268 -0.1704
  124MOL   C17842244   5.277   1.285   7.235  0.5351  0.6592  1.1152
  124MOL   O17942245   5.181   1.330   7.286  0.2277 -0.0615 -0.8681
  124MOL   H18042246   5.434   1.370   7.609 -1.4310  2.7983 -1.1211
  124MOL   H18142247   5.281   1.364   7.522 -0.3588 -0.7983  2.2520
  124MOL   H18242248   5.557   1.337   7.412  0.0402  0.9277 -1.6144
  124MOL   H18342249   5.577   1.270   7.158  0.6279 -1.3838 -1.0135
  124MOL   H18442250   5.515   1.116   7.225 -0.8430  0.6157  1.5106
  124MOL   H18542251   5.425   1.107   6.993  3.4649  0.8477 -0.2702
  124MOL   H18642252   5.439   1.277   6.990  1.5641  0.5864  1.2090
  124MOL   H18742253   5.207   1.297   7.031 -0.8803 -0.0944  0.2621
  124MOL   H18842254   5.200   1.137   7.101 -1.2640  0.4583  0.0190
  124MOL   C18942255   5.429   1.505   7.366 -0.1140  0.5014 -0.1168
  124MOL   C19042256   5.539   1.605   7.429  0.6603  0.0702  0.0164
  124MOL   N19142257   5.673   1.586   7.378  0.9621  0.1937  0.1705
  124MOL   C19242258   5.778   1.623   7.472 -0.2013  0.0481  0.0767
  124MOL   C19342259   5.906   1.631   7.389 -0.3851 -0.4908 -0.3327
  124MOL   C19442260   5.870   1.580   7.247 -0.8990 -0.0487  0.3888
  124MOL   C19542261   5.719   1.571   7.254  0.4617  0.5411  0.0572
  124MOL   O19642262   5.656   1.554   7.152  0.0719  0.4286 -0.1878
  124MOL   H19742263   5.327   1.531   7.396 -2.0165 -5.2337 -0.8656
  124MOL   H19842264   5.432   1.517   7.258  0.2812  1.2556 -0.0265
  124MOL   H19942265   5.539   1.572   7.533  1.6515  2.0339  0.6660
  124MOL   H20042266   5.752   1.718   7.520  0.1096  0.1665  0.0144
  124MOL   H20142267   5.785   1.550   7.552  1.1699 -0.0023 -0.0814
  124MOL   H20242268   5.952   1.730   7.391 -1.1247 -0.1618  1.9619
  124MOL   H20342269   5.988   1.566   7.422 -0.5813  0.5215  2.2191
  124MOL   H20442270   5.900   1.655   7.174  0.4846 -0.8728  0.0916
  124MOL   H20542271   5.922   1.488   7.222 -0.1277  0.3984  0.3407
  124MOL   C20642272   5.491   1.751   7.410 -0.3481  0.2722  0.2948
  124MOL   C20742273   5.357   1.786   7.490 -0.2625  0.2829  0.0402
  124MOL   N20842274   5.378   1.767   7.636  0.1343 -0.6591 -0.2829
  124MOL   C20942275   5.287   1.697   7.723  0.3456 -0.0833 -0.4473
  124MOL   C21042276   5.329   1.729   7.863  0.3603  0.3052 -0.8464
  124MOL   C21142277   5.440   1.832   7.856 -0.5584  0.7915 -0.0219
  124MOL   C21242278   5.472   1.832   7.713  0.4881 -0.1972  0.4328
  124MOL   O21342279   5.561   1.900   7.672 -0.1398 -0.2218  0.1450
  124MOL   H21442280   5.474   1.771   7.304 -0.1052 -1.6968 -0.1276
  124MOL   H21542281   5.574   1.816   7.435 -0.7874  0.7633  0.4937
  124MOL   H21642282   5.285   1.713   7.452 -0.3381 -1.0004  2.5912
  124MOL   H21742283   5.180   1.712   7.712  0.5928  1.4975 -0.8657
  124MOL   H21842284   5.310   1.591   7.707  0.5644 -0.6971  3.4523
  124MOL   H21942285   5.250   1.768   0.020  2.2291  1.8057  0.6401
  124MOL   H22042286   5.361   1.639   0.010  0.6677  0.0250 -1.4946
  124MOL   H22142287   5.421   1.930   7.898 -2.0811  1.5403 -2.3836
  124MOL   H22242288   5.524   1.785   0.001 -1.1476 -0.3511 -0.0697
  124MOL   C22342289   5.308   1.930   7.455 -0.7782  0.1014 -0.4082
  124MOL   C22442290   5.159   1.958   7.488  0.0011  0.8942  0.5940
  124MOL   N22542291   5.130   2.096   7.516  0.5200  0.7034 -0.2004
  124MOL   C22642292   5.103   2.137   7.652  0.4237  0.1244 -0.8553
  124MOL   C22742293   5.069   2.282   7.638 -0.5375 -0.3549  0.4651
  124MOL   C22842294   5.125   2.329   7.506 -0.3588 -0.2640  0.3904
  124MOL   C22942295   5.161   2.202   7.440 -0.0679  0.0887  0.0378
  124MOL   O23042296   5.204   2.198   7.325 -0.1513  0.3468  0.1782
  124MOL   H23142297   5.318   1.942   7.348 -1.0759  0.8596 -0.3560
  124MOL   H23242298   5.372   2.001   7.508 -0.8538  0.1770 -0.4163
  124MOL   H23342299   5.153   1.902   7.581 -1.2609 -0.4230 -0.2528
  124MOL   H23442300   5.028   2.082   7.709 -1.5554  2.6305 -1.0015
  124MOL   H23542301   5.199   2.116   7.701 -0.4630 -1.1810  0.3860
  124MOL   H23642302   4.961   2.282   7.651 -0.3049  2.2619  2.8183
  124MOL   H23742303   5.100   2.337   7.727 -2.2044 -0.4454  1.1103
  124MOL   H23842304   5.051   2.378   7.443 -0.0545  0.0514  0.2780
  124MOL   H23942305   5.217   2.388   7.510  1.2104 -2.4643 -1.5907
  124MOL   C24042306   5.067   1.902   7.368 -0.0993  0.0625 -0.6253
  124MOL   C24142307   4.926   1.862   7.397  0.3306 -0.2198  0.1489
  124MOL   N24242308   4.843   1.954   7.471  0.4367  0.2244  0.3966
  124MOL   C24342309   4.778   1.906   7.591  0.0382  0.1927  0.3141
  124MOL   C24442310   4.699   2.019   7.659  0.1843 -0.8230 -0.4885
  124MOL   C24542311   4.712   2.132   7.551  0.1504  0.6366 -0.9429
  124MOL   C24642312   4.807   2.082   7.449 -0.4935 -0.1902  0.7002
  124MOL   O24742313   4.840   2.147   7.352  0.1899 -0.5326  0.4167
  124MOL   H24842314   5.114   1.811   7.331  1.3386  0.8191 -0.7019
  124MOL   H24942315   5.062   1.979   7.291  2.1389 -0.6999 -1.5875
  124MOL   H25042316   4.936   1.777   7.464  1.7642 -0.5743 -0.5015
  124MOL   H25142317   4.708   1.828   7.560 -0.6629  1.4440 -1.3547
  124MOL   H25242318   4.848   1.850   7.653  0.5136 -1.2004 -1.4213
  124MOL   H25342319   4.597   1.981   7.672 -0.3447  1.1130  1.2668
  124MOL   H25442320   4.740   2.037   7.758 -0.9232 -2.2800  0.2477
  124MOL   H25542321   4.617   2.158   7.505 -0.2305 -0.1806 -0.6175
  124MOL   H25642322   4.755   2.220   7.599  1.0251 -0.5149  0.4075
  124MOL   C25742323   4.851   1.824   7.265  0.3829 -0.0734 -0.4444
  124MOL   C25842324   4.895   1.684   7.211 -0.2578  0.6714  0.0968
  124MOL   N25942325   4.828   1.574   7.280 -0.1445  0.6175 -0.4432
  124MOL   C26042326   4.899   1.505   7.387  0.4953  0.1078 -0.3364
  124MOL   C26142327   4.788   1.435   7.462 -0.4724  0.2487 -0.1959
  124MOL   C26242328   4.663   1.447   7.379  0.5467 -0.3901 -0.1656
  124MOL   C26342329   4.693   1.554   7.278  0.6117  0.3005 -0.0940
  124MOL   O26442330   4.607   1.607   7.210 -0.2085 -0.6608 -0.0820
  124MOL   H26542331   4.861   1.903   7.191  1.3704 -0.3079 -0.5646
  124MOL   H26642332   4.746   1.820   7.294  0.3234 -1.0883 -0.7654
  124MOL   H26742333   4.999   1.654   7.222 -0.5717 -0.3679  0.3585
  124MOL   H26842334   4.967   1.431   7.344  1.6228  0.5850  0.6133
  124MOL   H26942335   4.962   1.572   7.446  0.5694  1.0844 -1.5138
  124MOL   H27042336   4.803   1.329   7.483 -2.0983  0.3709  1.7507
  124MOL   H27142337   4.769   1.493   7.553  0.7553 -1.5883  1.2799
  124MOL   H27242338   4.640   1.358   7.320 -0.9717  0.2289 -0.5262
  124MOL   H27342339   4.572   1.475   7.432 -0.0226  1.3319 -2.0133
  124MOL   C27442340   4.889   1.673   7.060 -0.3446  0.5126 -0.4094
  124MOL   C27542341   4.999   1.757   6.984  0.6480 -0.5174  0.0937
  124MOL   N27642342   5.131   1.708   7.013  0.0639  0.0742  0.6171
  124MOL   C27742343   5.236   1.795   7.060  0.1791  0.2537 -0.6520
  124MOL   C27842344   5.369   1.720   7.036 -0.4328 -0.3842 -0.3840
  124MOL   C27942345   5.331   1.584   6.984 -0.1482 -0.0784  0.0412
  124MOL   C28042346   5.181   1.592   6.980 -0.0997 -0.9130  1.3158
  124MOL   O28142347   5.114   1.505   6.930  0.0490  0.1231 -0.4920
  124MOL   H28242348   4.788   1.708   7.039 -1.1286 -2.2012 -1.3296
  124MOL   H28342349   4.889   1.567   7.035 -0.0086  0.1906  0.9069
  124MOL   H28442350   5.001   1.857   7.028  0.5332 -1.7617  3.0225
  124MOL   H28542351   5.236   1.890   7.007 -0.9215  1.2883  1.1478
  124MOL   H28642352   5.236   1.813   7.167  0.7659 -2.5621 -0.1308
  124MOL   H28742353   5.439   1.763   6.965 -0.9737  1.1950  0.0127
  124MOL   H28842354   5.426   1.695   7.125 -0.7041  0.6498  0.0928
  124MOL   H28942355   5.375   1.558   6.887 -0.6948 -0.9087  0.0039
  124MOL   H29042356   5.349   1.507   7.059  2.3515 -1.3450 -1.7790
  124MOL   C29142357   4.972   1.780   6.830  0.1976  0.3969  0.1186
  124MOL   C29242358   4.842   1.850   6.788 -0.1001  0.1489 -0.3162
  124MOL   N29342359   4.846   1.990   6.842 -0.4641  0.4835  0.2233
  124MOL   C29442360   4.721   2.045   6.888 -0.5542 -0.2002  0.2927
  124MOL   C29542361   4.753   2.182   6.956  0.4014 -0.5622  0.1259
  124MOL   C29642362   4.904   2.204   6.915 -0.4411  0.3049 -0.3522
  124MOL   C29742363   4.942   2.082   6.840 -0.5843  0.4740 -0.1012
  124MOL   O29842364   5.061   2.056   6.810  0.0913 -0.3286  0.2235
  124MOL   H29942365   4.974   1.679   6.790  1.3927  0.0695  0.9513
  124MOL   H30042366   5.057   1.823   6.776  2.3536 -2.3284  1.2140
  124MOL   H30142367   4.759   1.790   6.824  0.3344 -0.6725 -0.6578
  124MOL   H30242368   4.649   2.056   6.807 -1.5510  0.1203  1.1967
  124MOL   H30342369   4.664   1.980   6.955  1.1055 -3.5443 -1.4394
  124MOL   H30442370   4.687   2.263   6.925  0.4202  1.2354  4.5336
  124MOL   H30542371   4.747   2.183   7.064 -0.4058  0.3897  0.0740
  124MOL   H30642372   4.924   2.288   6.849  2.3985  1.8277  2.3068
  124MOL   H30742373   4.966   2.222   7.003 -1.7518  0.0237  0.6594
  124MOL   C30842374   4.830   1.865   6.638 -0.0343 -0.9170  0.6371
  124MOL   C30942375   4.814   1.734   6.562  0.3263 -0.5480  0.0941
  124MOL   N31042376   4.696   1.655   6.608  0.9061  0.1819  0.2508
  124MOL   C31142377   4.723   1.520   6.658  0.2181  0.1512  0.4362
  124MOL   C31242378   4.579   1.465   6.678 -0.0383 -0.0947 -0.2916
  124MOL   C31342379   4.482   1.583   6.667  0.0393  0.0350  0.0461
  124MOL   C31442380   4.561   1.685   6.593  0.7128  0.1924 -0.5966
  124MOL   O31542381   4.511   1.794   6.548 -0.1995  0.4388  0.1996
  124MOL   H31642382   4.920   1.915   6.603 -0.9825  0.3609  0.0117
  124MOL   H31742383   4.752   1.935   6.608  0.7386  0.6407  2.2477
  124MOL   H31842384   4.907   1.676   6.559  0.0520 -0.9812 -0.0414
  124MOL   H31942385   4.773   1.463   6.579 -0.2970  1.6978 -1.0414
  124MOL   H32042386   4.796   1.520   6.739  0.5547 -0.5001  0.1410
  124MOL   H32142387   4.558   1.380   6.614 -0.1739  0.6862 -1.2909
  124MOL   H32242388   4.564   1.416   6.775 -0.9957  0.6583 -0.0521
  124MOL   H32342389   4.388   1.557   6.617 -0.6645  0.6670  1.0149
  124MOL   H32442390   4.447   1.613   6.765 -0.7220 -1.7010  0.3323
  124MOL   C32542391   4.800   1.766   6.413  0.7788 -0.3683  0.1041
  124MOL   C32642392   4.835   1.650   6.316 -0.3627 -0.4772  0.6117
  124MOL   N32742393   4.803   1.684   6.175 -0.0410 -0.2219 -0.3231
  124MOL   C32842394   4.899   1.738   6.081 -0.0954  0.2519 -1.3446
  124MOL   C32942395   4.829   1.752   5.953  0.3767  0.6583  0.2353
  124MOL   C33042396   4.699   1.677   5.968  0.7813  0.7138 -0.3944
  124MOL   C33142397   4.688   1.656   6.121 -0.3478  0.2710  0.4389
  124MOL   O33242398   4.588   1.613   6.184 -0.0899  0.1263 -0.0546
  124MOL   H33342399   4.862   1.850   6.382  0.1736 -0.1017 -0.3709
  124MOL   H33442400   4.703   1.809   6.388  1.3677 -0.3004 -2.1410
  124MOL   H33542401   4.772   1.564   6.338 -2.1409  0.8753  1.0157
  124MOL   H33642402   4.944   1.832   6.115  1.2800 -0.6311 -0.6921
  124MOL   H33742403   4.984   1.674   6.059  1.9568  1.6339  2.2178
  124MOL   H33842404   4.805   1.856   5.933 -2.1243  0.0142 -0.2177
  124MOL   H33942405   4.882   1.719   5.863 -0.1603  1.4838 -0.3844
  124MOL   H34042406   4.610   1.730   5.935 -0.3650 -1.0287 -0.1634
  124MOL   H34142407   4.703   1.574   5.932  1.0000  0.2710  0.8879
  124MOL   H34242408   4.938   1.615   6.319 -0.3555 -0.7882 -1.8467
  125MOL     C142409   5.481   7.638   6.594 -0.5100  0.6214  0.6442
  125MOL     C242410   5.355   7.566   6.540  0.5794  0.4998 -0.0759
  125MOL     N342411   5.389   7.471   6.435  0.4244  0.7590  0.2037
  125MOL     C442412   5.383   7.514   6.299 -0.0836 -0.7211 -0.0961
  125MOL     C542413   5.413   7.395   6.215  0.6325  0.8950  0.1941
  125MOL     C642414   5.445   7.274   6.303  0.1452  0.3608  0.7559
  125MOL     C742415   5.411   7.340   6.437 -0.7220  0.3138 -0.3933
  125MOL     O842416   5.404   7.277   6.541  0.0286 -0.0149 -0.0331
  125MOL     H942417   5.551   7.664   6.515 -1.0512  1.4545  0.4299
  125MOL    H1042418   5.473   7.726   6.659  1.6772  2.7204 -1.8042
  125MOL    H1142419   5.289   7.639   6.493  0.7439  1.3577  0.9877
  125MOL    H1242420   5.293   7.566   6.266 -0.4640  0.1393  2.2301
  125MOL    H1342421   5.456   7.592   6.279 -1.3028  0.2004 -1.0375
  125MOL    H1442422   5.332   7.373   6.146  1.2245  1.7945 -0.7985
  125MOL    H1542423   5.505   7.418   6.161  0.7356 -0.4295 -0.1977
  125MOL    H1642424   5.383   7.185   6.297  0.2623  0.3118  0.2861
  125MOL    H1742425   5.548   7.239   6.294  0.9954  2.6438  1.1171
  125MOL    H1842426   5.539   7.569   6.655  1.2297  1.2877 -0.2372
  125MOL    C1942427   5.279   7.502   6.658  0.0972  0.1887 -0.3464
  125MOL    C2042428   5.193   7.592   6.748  0.2167 -0.1329 -0.0096
  125MOL    N2142429   5.103   7.678   6.664 -0.5026 -0.3378  0.2561
  125MOL    C2242430   5.020   7.617   6.555  0.1097  0.7637  0.2151
  125MOL    C2342431   4.993   7.740   6.465  0.7346  0.2688 -0.0996
  125MOL    C2442432   5.035   7.866   6.542  0.7799 -0.1371  0.0916
  125MOL    C2542433   5.119   7.812   6.660  0.1195  0.1080 -0.0812
  125MOL    O2642434   5.193   7.881   6.729 -0.2001 -0.0710  0.0283
  125MOL    H2742435   5.358   7.466   6.723 -0.9559  0.5984  1.1890
  125MOL    H2842436   5.213   7.432   6.606  0.4674  0.6134 -1.3992
  125MOL    H2942437   5.258   7.662   6.802 -3.4546  2.9032  0.6815
  125MOL    H3042438   5.066   7.536   6.499  0.9228  2.2633 -1.3715
  125MOL    H3142439   4.936   7.583   6.615  0.9964 -0.6106  0.6867
  125MOL    H3242440   5.070   7.725   6.389  1.2875 -0.5411  0.6182
  125MOL    H3342441   4.890   7.739   6.431  0.7276 -2.4323 -0.0451
  125MOL    H3442442   5.096   0.020   6.474  0.4179 -0.8207 -0.8392
  125MOL    H3542443   4.948   0.018   6.574  0.8454  0.6369 -1.1136
  125MOL    C3642444   5.126   7.527   6.863  0.1044  0.2729  0.3054
  125MOL    C3742445   5.234   7.455   6.963 -0.7985  0.1327 -0.2246
  125MOL    N3842446   5.332   7.553   7.018  0.6356 -0.2129  0.3432
  125MOL    C3942447   5.293   7.677   7.084  0.2522  0.1011 -0.2466
  125MOL    C4042448   5.416   7.769   7.082 -0.1560 -0.9748  0.1154
  125MOL    C4142449   5.534   7.676   7.041 -0.6763 -0.0614  0.1502
  125MOL    C4242450   5.462   7.553   6.995  0.2782 -0.2721 -0.0572
  125MOL    O4342451   5.518   7.463   6.933  0.7351  0.1407  0.3919
  125MOL    H4442452   5.047   7.465   6.822 -1.6379  3.7896 -1.8687
  125MOL    H4542453   5.073   7.610   6.911  3.5036  1.3937  2.3258
  125MOL    H4642454   5.286   7.375   6.910  0.8695  1.1206 -0.0970
  125MOL    H4742455   5.214   7.729   7.029  0.4842  1.5658  0.7625
  125MOL    H4842456   5.260   7.658   7.186 -0.8660 -2.5382 -1.0517
  125MOL    H4942457   5.405   7.847   7.007 -0.8075  0.3641  1.5831
  125MOL    H5042458   5.434   7.812   7.180 -0.3846 -3.1765  1.1578
  125MOL    H5142459   5.609   7.722   6.977 -0.5336 -1.1331 -0.4636
  125MOL    H5242460   5.581   7.638   7.132  1.3793 -1.1722 -1.3403
  125MOL    C5342461   5.162   7.384   7.092 -1.0973 -0.5409 -0.3493
  125MOL    C5442462   5.068   7.273   7.052  0.1990 -0.0153  0.1733
  125MOL    N5542463   5.141   7.155   7.000  0.0803 -0.3714 -0.1734
  125MOL    C5642464   5.118   7.103   6.862 -0.1430  0.6955  0.4089
  125MOL    C5742465   5.209   6.983   6.844 -0.5411  0.2117  0.3176
  125MOL    C5842466   5.259   6.949   6.985 -0.5909 -0.4788 -0.3590
  125MOL    C5942467   5.213   7.066   7.071  0.5331 -0.4902  0.0077
  125MOL    O6042468   5.260   7.080   7.188  0.0869 -0.0907 -0.0326
  125MOL    H6142469   5.105   7.458   7.148  1.2986  1.9293 -1.1272
  125MOL    H6242470   5.233   7.339   7.161 -0.6199 -0.2891 -0.6727
  125MOL    H6342471   5.012   7.303   6.963 -0.3894  0.0787  0.5741
  125MOL    H6442472   5.013   7.073   6.861  0.2209 -0.6245  0.6080
  125MOL    H6542473   5.129   7.171   6.778 -0.2591  2.0564  1.4766
  125MOL    H6642474   5.140   6.905   6.810  1.6995 -0.8028 -2.0958
  125MOL    H6742475   5.287   7.000   6.771 -1.9739  0.2464 -1.2472
  125MOL    H6842476   5.232   6.850   7.023  3.2406 -0.4357  2.7629
  125MOL    H6942477   5.365   6.924   6.983 -0.2253  1.0176 -0.1392
  125MOL    C7042478   4.963   7.233   7.163 -0.1551  0.1467  0.3877
  125MOL    C7142479   4.824   7.302   7.157 -0.2279 -0.3321 -0.5655
  125MOL    N7242480   4.765   7.268   7.024 -0.3896 -0.4969  0.1199
  125MOL    C7342481   4.708   7.142   6.993  0.0872  0.0453 -0.9248
  125MOL    C7442482   4.659   7.149   6.849  0.9630  0.1954  0.3782
  125MOL    C7542483   4.659   7.302   6.812 -0.2676  0.4326 -0.2348
  125MOL    C7642484   4.748   7.360   6.923  0.0643 -0.1779 -0.0884
  125MOL    O7742485   4.794   7.468   6.912  0.3817 -0.3291 -0.1524
  125MOL    H7842486   5.004   7.254   7.262  3.4167  1.0499 -1.1858
  125MOL    H7942487   4.948   7.126   7.154 -0.2092  0.0551  1.5469
  125MOL    H8042488   4.834   7.410   7.166 -0.2049 -0.4259  0.5561
  125MOL    H8142489   4.767   7.055   7.020 -1.6816 -1.1356 -0.7540
  125MOL    H8242490   4.619   7.127   7.055  0.2221  0.2247 -0.6864
  125MOL    H8342491   4.722   7.086   6.786 -1.1727 -1.5669 -0.0635
  125MOL    H8442492   4.564   7.099   6.830  0.6909  0.5117  0.8837
  125MOL    H8542493   4.704   7.310   6.713 -0.7800  1.0942 -0.4132
  125MOL    H8642494   4.560   7.345   6.802  0.0046  0.7176 -1.8502
  125MOL    C8742495   4.734   7.250   7.274  0.2143 -0.0805 -0.0961
  125MOL    C8842496   4.781   7.289   7.422 -0.0685  0.2923 -0.5193
  125MOL    N8942497   4.813   7.430   7.431  0.7205  0.3658 -0.9352
  125MOL    C9042498   4.949   7.483   7.452  0.2872 -0.4922 -0.1738
  125MOL    C9142499   4.939   7.637   7.430  0.5536 -0.5364 -0.3139
  125MOL    C9242500   4.792   7.665   7.393  0.2711  0.4138  0.4250
  125MOL    C9342501   4.725   7.530   7.412 -0.1721  0.5500  0.1289
  125MOL    O9442502   4.604   7.520   7.405 -0.2785 -0.1051  0.3472
  125MOL    H9542503   4.722   7.143   7.257 -1.2749  0.0584 -0.0123
  125MOL    H9642504   4.638   7.300   7.260  0.4673  0.4759  0.1662
  125MOL    H9742505   4.874   7.239   7.451  0.4882  1.7675  0.3210
  125MOL    H9842506   4.976   7.464   7.556  1.6652 -1.3020 -0.6638
  125MOL    H9942507   5.021   7.442   7.381 -0.0022  0.4419 -1.0115
  125MOL   H10042508   4.971   7.695   7.516 -0.6476  1.9214 -1.4462
  125MOL   H10142509   5.008   7.654   7.347 -1.0058  1.2591 -1.2987
  125MOL   H10242510   4.740   7.729   7.464  0.2258  1.1425 -0.2605
  125MOL   H10342511   4.776   7.706   7.293  2.2350  0.3199  0.0350
  125MOL   C10442512   4.675   7.251   7.532  1.0866  0.6644 -0.0721
  125MOL   C10542513   4.657   7.109   7.569 -0.1096 -0.3004  0.0496
  125MOL   N10642514   4.787   7.063   7.635 -0.1663  0.2067 -0.0810
  125MOL   C10742515   4.874   6.978   7.554 -0.2417  0.4439  0.1164
  125MOL   C10842516   4.978   6.926   7.648  0.4014  0.2728  1.1781
  125MOL   C10942517   4.963   7.018   7.772 -0.1437 -0.5144  0.3986
  125MOL   C11042518   4.829   7.086   7.757  0.0390  0.8113 -0.2398
  125MOL   O11142519   4.770   7.140   7.848  0.5405 -0.4195 -0.4320
  125MOL   H11242520   4.574   7.283   7.509  0.0932 -1.9400  0.5051
  125MOL   H11342521   4.704   7.308   7.621  2.6571 -1.8037  1.0402
  125MOL   H11442522   4.641   7.058   7.474  0.8771 -0.7939  0.1429
  125MOL   H11542523   4.798   6.907   7.523 -1.1501  2.0770 -1.4972
  125MOL   H11642524   4.921   7.023   7.467  0.7956 -4.1599 -1.8167
  125MOL   H11742525   4.974   6.818   7.662 -0.2172  0.2275  0.6451
  125MOL   H11842526   5.074   6.947   7.600  0.1219 -2.2845 -0.5771
  125MOL   H11942527   5.047   7.088   7.765 -0.0480 -0.8470 -2.5142
  125MOL   H12042528   4.958   6.954   7.861 -1.5288 -3.5632 -1.7886
  125MOL   C12142529   4.537   7.080   7.655  0.3143 -0.2626  0.4589
  125MOL   C12242530   4.512   6.933   7.691 -0.2561  0.4074 -0.3405
  125MOL   N12342531   4.438   6.921   7.817 -0.0013  0.5311  0.1015
  125MOL   C12442532   4.519   6.872   0.027 -0.1004  0.0070 -0.1465
  125MOL   C12542533   4.417   6.863   0.137 -0.0406  0.3964  0.3517
  125MOL   C12642534   4.279   6.888   0.074 -0.0506 -0.0841  0.2946
  125MOL   C12742535   4.310   6.932   7.841 -0.5428 -0.2219 -0.2912
  125MOL   O12842536   4.222   6.977   7.766  0.1828  0.4194 -0.4907
  125MOL   H12942537   4.445   7.114   7.608  0.3603  0.8052  1.1171
  125MOL   H13042538   4.547   7.136   7.749 -0.1038 -0.0186  0.3599
  125MOL   H13142539   4.608   6.885   7.714 -0.5604  0.7739  1.8079
  125MOL   H13242540   4.603   6.931   0.064 -1.3665  1.8579 -0.1677
  125MOL   H13342541   4.551   6.771   0.002 -1.0668  0.4706 -3.4904
  125MOL   H13442542   4.428   6.773   0.198 -0.1709  0.2031  0.0900
  125MOL   H13542543   4.443   6.947   0.201 -1.3745  1.2851 -0.2362
  125MOL   H13642544   4.223   6.795   0.076 -0.3502  0.0712 -0.9458
  125MOL   H13742545   4.217   6.960   0.129 -0.0133 -0.3450  0.6815
  125MOL   C13842546   4.445   6.846   7.581  0.1653  0.6117  0.2732
  125MOL   C13942547   4.415   6.695   7.609 -0.2154  0.0040  0.5596
  125MOL   N14042548   4.320   6.643   7.524  0.0192  0.2545 -0.2946
  125MOL   C14142549   4.205   6.585   7.588 -0.0978 -0.2027  0.1581
  125MOL   C14242550   4.125   6.504   7.482 -0.2640  0.3307  0.0570
  125MOL   C14342551   4.178   6.563   7.353  0.1247 -0.5969  0.7443
  125MOL   C14442552   4.312   6.624   7.393  0.2990  0.2692 -0.4084
  125MOL   O14542553   4.395   6.659   7.314  0.0608  0.0469 -0.0367
  125MOL   H14642554   4.501   6.852   7.487 -0.1790  0.2178  0.0407
  125MOL   H14742555   4.351   6.898   7.561  0.4479  1.4395  1.0820
  125MOL   H14842556   4.383   6.689   7.713 -2.6692 -1.2837 -0.2554
  125MOL   H14942557   4.257   6.526   7.664  1.1762 -1.0995 -1.3768
  125MOL   H15042558   4.141   6.663   7.627 -1.8770 -0.9630 -1.1717
  125MOL   H15142559   4.162   6.403   7.498 -1.1203 -0.0062 -0.0306
  125MOL   H15242560   4.017   6.516   7.492 -0.4821 -1.3401 -0.1993
  125MOL   H15342561   4.118   6.639   7.302  0.8069 -0.9169 -0.5589
  125MOL   H15442562   4.202   6.480   7.286 -0.4479 -0.7012  0.6625
  125MOL   C15542563   4.549   6.609   7.605  0.0802  0.2896 -0.2897
  125MOL   C15642564   4.543   6.461   7.660 -0.3514  0.3135 -0.1980
  125MOL   N15742565   4.663   6.384   7.626 -0.8455  0.6821  0.2810
  125MOL   C15842566   4.787   6.390   7.708  0.4781  0.0985  0.3517
  125MOL   C15942567   4.896   6.313   7.625  0.2349 -0.7209 -0.0948
  125MOL   C16042568   4.825   6.259   7.496  0.4950  0.2558  0.0216
  125MOL   C16142569   4.675   6.298   7.523 -0.7230  0.0123 -0.2141
  125MOL   O16242570   4.584   6.264   7.448 -0.3283  1.0204  0.1865
  125MOL   H16342571   4.627   6.661   7.661  0.4136  3.4099 -3.5265
  125MOL   H16442572   4.591   6.616   7.505  1.8324  0.1490  0.4113
  125MOL   H16542573   4.459   6.411   7.612  0.1610 -1.3302  0.6220
  125MOL   H16642574   4.815   6.492   7.736  0.1305  0.4695 -0.6406
  125MOL   H16742575   4.768   6.343   7.804  3.1408 -0.2699  0.7197
  125MOL   H16842576   4.982   6.366   7.585  0.7935 -1.2799  0.3587
  125MOL   H16942577   4.920   6.223   7.682  2.5992 -1.0396 -1.5171
  125MOL   H17042578   4.862   6.322   7.415  0.0187  0.5458  0.0245
  125MOL   H17142579   4.835   6.151   7.491  1.3023  0.2743  0.9611
  125MOL   C17242580   4.520   6.457   7.808 -0.2219  0.1143 -0.1304
  125MOL   C17342581   4.489   6.315   7.873  0.3762 -0.2280  0.1827
  125MOL   N17442582   4.517   6.321   0.114  0.1202 -0.1686 -0.0706
  125MOL   C17542583   4.628   6.243   0.174 -0.1624  1.0375 -0.6500
  125MOL   C17642584   4.651   6.306   0.312 -0.9722 -0.0421 -0.6212
  125MOL   C17742585   4.539   6.410   0.335  0.1302 -0.4935  0.9071
  125MOL   C17842586   4.466   6.415   0.199  1.2504 -0.2028 -0.3740
  125MOL   O17942587   4.384   6.503   0.174  0.0453  0.3580 -0.3050
  125MOL   H18042588   4.463   6.546   7.834 -0.1198 -0.0904  0.8209
  125MOL   H18142589   4.616   6.494   7.843  0.2139 -2.0743  1.1065
  125MOL   H18242590   4.561   6.242   7.838  1.7672  2.1813 -2.1787
  125MOL   H18342591   4.611   6.136   0.185  1.0357  0.9659  0.6617
  125MOL   H18442592   4.719   6.246   0.115 -1.2442  0.4376 -2.3633
  125MOL   H18542593   4.747   6.357   0.310 -1.3659  0.8457  1.9187
  125MOL   H18642594   4.641   6.239   0.397 -0.8201 -0.7306 -1.1371
  125MOL   H18742595   4.472   6.380   0.416 -1.3961  1.7500  0.5304
  125MOL   H18842596   4.581   6.509   0.356  2.0537 -1.2885  0.9013
  125MOL   C18942597   4.348   6.259   7.849  0.0226 -0.7247 -0.3395
  125MOL   C19042598   4.315   6.112   7.879 -1.0473 -0.1777  0.6039
  125MOL   N19142599   4.173   6.104   0.012  0.6460  0.0119 -0.7007
  125MOL   C19242600   4.143   6.074   0.145 -0.8182  0.2265 -0.4528
  125MOL   C19342601   3.991   6.086   0.164 -0.8079 -0.5566  0.4390
  125MOL   C19442602   3.936   6.112   0.021  0.2042 -0.0738  0.1113
  125MOL   C19542603   4.061   6.121   7.844  0.0318 -0.4084 -0.0643
  125MOL   O19642604   4.057   6.146   7.725  0.6164  0.7751 -0.0847
  125MOL   H19742605   4.303   6.287   7.754  2.3997 -1.2629 -1.6798
  125MOL   H19842606   4.284   6.311   0.015 -0.7661 -0.8786 -0.9268
  125MOL   H19942607   4.382   6.077   0.052  2.0747  2.6754 -0.6704
  125MOL   H20042608   4.174   5.971   0.164 -1.3525 -0.1920 -1.8226
  125MOL   H20142609   4.202   6.135   0.213  0.7203 -0.2240 -1.3452
  125MOL   H20242610   3.947   5.994   0.202  0.4985 -1.7864 -0.9876
  125MOL   H20342611   3.957   6.159   0.238 -0.5796 -0.9822  0.9744
  125MOL   H20442612   3.888   6.023   7.887  1.4471 -0.8613  0.3469
  125MOL   H20542613   3.876   6.203   0.014  2.5533  1.4030 -1.2385
  125MOL   C20642614   4.335   6.018   7.750 -0.3924  0.3994  0.7692
  125MOL   C20742615   4.470   5.953   7.711 -0.0310  0.0439  0.2367
  125MOL   N20842616   4.544   5.870   7.818  0.6629 -0.4572  0.3555
  125MOL   C20942617   4.670   5.917   7.880  0.1829  0.4194  0.5673
  125MOL   C21042618   4.709   5.802   0.073  0.6360  0.2322  0.4956
  125MOL   C21142619   4.578   5.739   0.111  0.5038  0.5041 -0.0755
  125MOL   C21242620   4.487   5.772   7.898  0.5816 -0.0684  0.3905
  125MOL   O21342621   4.378   5.712   7.879 -0.2743 -0.0607 -0.1788
  125MOL   H21442622   4.301   6.076   7.664 -0.1354  0.3285  0.6208
  125MOL   H21542623   4.269   5.931   7.757 -2.0820  1.3228 -2.6573
  125MOL   H21642624   4.540   6.035   7.691  0.0425  0.3693  1.7176
  125MOL   H21742625   4.745   5.945   7.806  0.4437 -0.4833  0.4859
  125MOL   H21842626   4.648   6.005   0.035  2.1580  0.4246  1.3154
  125MOL   H21942627   4.770   5.729   0.019 -0.2865  0.9857 -1.6278
  125MOL   H22042628   4.753   5.854   0.158 -2.1526  0.0564  2.1226
  125MOL   H22142629   4.584   5.631   0.123  0.0615  0.6526  1.6293
  125MOL   H22242630   4.530   5.773   0.203 -4.4110 -2.9744 -1.1527
  125MOL   C22342631   4.451   5.874   7.578  0.2631  0.6895 -0.6600
  125MOL   C22442632   4.560   5.857   7.472 -0.2551  0.5265 -0.2351
  125MOL   N22542633   4.689   5.791   7.530 -0.0071 -0.4912  0.5648
  125MOL   C22642634   4.818   5.858   7.525 -0.0257 -0.4757  0.1878
  125MOL   C22742635   4.924   5.768   7.592  0.7292  0.4057 -0.2739
  125MOL   C22842636   4.849   5.642   7.627  0.2707 -0.2458  0.1294
  125MOL   C22942637   4.706   5.666   7.574 -0.1196  0.0843 -0.3861
  125MOL   O23042638   4.625   5.578   7.572  0.0835 -0.5722 -0.4365
  125MOL   H23142639   4.361   5.906   7.524 -0.0949  1.7305  0.5365
  125MOL   H23242640   4.422   5.773   7.606  1.4024  0.6764  0.5136
  125MOL   H23342641   4.594   5.953   7.432  3.4753 -0.4960  0.3064
  125MOL   H23442642   4.839   5.899   7.426 -1.5758  1.8608  0.7962
  125MOL   H23542643   4.798   5.945   7.587 -0.0340  0.6199 -1.3406
  125MOL   H23642644   5.010   5.761   7.526  2.7453 -1.0511  2.3938
  125MOL   H23742645   4.962   5.816   7.682  2.0414  2.3809 -1.8338
  125MOL   H23842646   4.885   5.550   7.580 -1.6631 -0.9638  0.0064
  125MOL   H23942647   4.856   5.631   7.735  0.8754  1.8894  0.3318
  125MOL   C24042648   4.520   5.774   7.348 -0.4831 -0.6209  0.4034
  125MOL   C24142649   4.400   5.827   7.263 -0.4931 -0.5393 -0.3164
  125MOL   N24242650   4.413   5.966   7.216  0.0144 -1.1288 -0.7525
  125MOL   C24342651   4.315   6.066   7.263 -0.0950  0.3475  0.4601
  125MOL   C24442652   4.353   6.203   7.204 -0.1396 -0.3422  0.4580
  125MOL   C24542653   4.484   6.177   7.120  0.5611 -0.6588 -0.7370
  125MOL   C24642654   4.503   6.024   7.132  0.1531  0.4812 -0.0985
  125MOL   O24742655   4.594   5.959   7.075 -0.8438 -0.6043 -0.1627
  125MOL   H24842656   4.504   5.673   7.385  2.3036 -1.1180  0.3794
  125MOL   H24942657   4.607   5.755   7.285 -0.9598  1.2382 -0.8556
  125MOL   H25042658   4.317   5.834   7.333  0.1789  1.3160  0.3253
  125MOL   H25142659   4.218   6.034   7.227 -0.1995  0.4089  0.6869
  125MOL   H25242660   4.314   6.075   7.372 -1.7287  1.2869  0.3725
  125MOL   H25342661   4.270   6.242   7.145 -0.9875 -1.9154  0.5858
  125MOL   H25442662   4.375   6.271   7.286 -0.5684  0.8906 -0.4285
  125MOL   H25542663   4.469   6.209   7.017 -0.4294  0.0436 -0.3871
  125MOL   H25642664   4.571   6.229   7.160  1.0209 -0.6859 -1.6843
  125MOL   C25742665   4.365   5.731   7.149 -0.0696  0.0451 -0.0365
  125MOL   C25842666   4.301   5.598   7.194  0.1514  0.9346  0.0971
  125MOL   N25942667   4.184   5.616   7.276  0.4581 -0.0966  0.3915
  125MOL   C26042668   4.196   5.590   7.416  0.3754 -0.5964  0.0857
  125MOL   C26142669   4.060   5.633   7.478  0.2810  0.4450 -0.4585
  125MOL   C26242670   3.971   5.681   7.358 -0.4548  0.6370 -0.6567
  125MOL   C26342671   4.062   5.651   7.243 -0.2972  0.0744  0.1331
  125MOL   O26442672   4.027   5.674   7.131 -0.3746 -0.3808 -0.7513
  125MOL   H26542673   4.455   5.704   7.093 -0.4211 -0.6512 -0.2730
  125MOL   H26642674   4.300   5.782   7.078 -0.2675 -0.4364 -0.2020
  125MOL   H26742675   4.380   5.564   7.261  1.0772  0.1361 -1.3631
  125MOL   H26842676   4.237   5.494   7.447 -0.3790 -0.5656  1.2155
  125MOL   H26942677   4.276   5.660   7.442 -0.0847  0.8240 -2.1750
  125MOL   H27042678   4.019   5.540   7.518 -1.2103  0.6720 -1.4243
  125MOL   H27142679   4.071   5.710   7.554  0.0480  0.2135 -0.1908
  125MOL   H27242680   3.878   5.624   7.355  0.4531 -0.9380  0.3872
  125MOL   H27342681   3.943   5.786   7.363 -0.5250  0.6959 -2.1256
  125MOL   C27442682   4.277   5.497   7.078 -0.6524 -0.5004 -0.1037
  125MOL   C27542683   4.404   5.434   7.015  0.0719 -0.0059 -0.1362
  125MOL   N27642684   4.494   5.385   7.113  0.1524  0.0594 -0.1826
  125MOL   C27742685   4.630   5.449   7.118 -0.2466 -0.5552  0.4222
  125MOL   C27842686   4.695   5.401   7.248  0.3187  0.0179 -0.5447
  125MOL   C27942687   4.612   5.276   7.285 -0.0848 -0.1278 -0.3332
  125MOL   C28042688   4.494   5.278   7.196 -0.5264  0.3032  1.1298
  125MOL   O28142689   4.398   5.195   7.205 -0.0185 -0.4634 -0.0634
  125MOL   H28242690   4.213   5.541   7.001  0.9335 -0.7870 -1.6092
  125MOL   H28342691   4.208   5.423   7.121 -2.0999  1.0886  0.3596
  125MOL   H28442692   4.460   5.516   6.970  1.2214 -1.2439 -1.0270
  125MOL   H28542693   4.687   5.427   7.028 -0.3250  2.5688 -0.4574
  125MOL   H28642694   4.619   5.558   7.120  1.9349 -0.2527 -1.5117
  125MOL   H28742695   4.803   5.383   7.246  0.4782  0.7029  1.3824
  125MOL   H28842696   4.686   5.478   7.325  2.4877 -2.1540  1.9686
  125MOL   H28942697   4.669   5.185   7.266 -0.3287 -0.1416 -0.9928
  125MOL   H29042698   4.591   5.271   7.392  0.0979 -0.2435 -0.3019
  125MOL   C29142699   4.367   5.337   6.896  0.4071 -0.6140  0.5184
  125MOL   C29242700   4.303   5.400   6.769 -0.5489 -0.3451  0.3490
  125MOL   N29342701   4.380   5.516   6.722  0.0176  0.0880 -0.0932
  125MOL   C29442702   4.321   5.646   6.736  0.3774 -0.3968  0.6648
  125MOL   C29542703   4.441   5.744   6.710 -0.2833 -0.4771  0.0623
  125MOL   C29642704   4.541   5.653   6.637  0.0013 -0.5528  0.6985
  125MOL   C29742705   4.502   5.513   6.671 -0.1312 -0.7987 -0.0607
  125MOL   O29842706   4.574   5.416   6.663  0.9206  0.0589  0.0313
  125MOL   H29942707   4.295   5.263   6.933 -0.8048  0.1015 -0.3577
  125MOL   H30042708   4.455   5.276   6.878  1.0830  0.5314 -0.1079
  125MOL   H30142709   4.218   5.449   6.817  0.8061 -0.0153  2.4523
  125MOL   H30242710   4.235   5.668   6.672 -3.0462 -0.0523  5.0870
  125MOL   H30342711   4.292   5.654   6.841 -0.2022 -0.3745  0.5081
  125MOL   H30442712   4.415   5.834   6.653 -0.8982 -0.8605 -0.2653
  125MOL   H30542713   4.493   5.785   6.797 -0.7832  0.1264  0.0872
  125MOL   H30642714   4.529   5.673   6.531 -0.9092  0.3383  0.9651
  125MOL   H30742715   4.641   5.678   6.672  0.4803  3.0904 -2.8874
  125MOL   C30842716   4.267   5.298   6.657 -0.2964 -0.0775 -0.2120
  125MOL   C30942717   4.190   5.350   6.533  0.2336  0.3427 -0.2002
  125MOL   N31042718   4.186   5.250   6.429  0.3923 -0.0848  0.0921
  125MOL   C31142719   4.277   5.250   6.313  0.4930  0.5634 -0.3794
  125MOL   C31242720   4.274   5.110   6.250  0.6778 -0.3886  0.0086
  125MOL   C31342721   4.171   5.032   6.333 -1.0477 -0.1428  0.5325
  125MOL   C31442722   4.127   5.132   6.441 -1.0067 -0.2286  0.3989
  125MOL   O31542723   4.052   5.104   6.536 -0.2588 -0.3747  0.9043
  125MOL   H31642724   4.205   5.215   6.690  1.8877 -2.1038 -1.0928
  125MOL   H31742725   4.357   5.248   6.622  1.9231  2.6060  1.4788
  125MOL   H31842726   4.261   5.424   6.496  1.8906 -1.8825 -1.5892
  125MOL   H31942727   4.244   5.327   6.243  1.8643 -0.1415 -1.8287
  125MOL   H32042728   4.376   5.270   6.354  0.5333  1.6817 -0.9994
  125MOL   H32142729   4.240   5.107   6.146  0.2418  1.4433  0.0694
  125MOL   H32242730   4.374   5.069   6.238  0.8255  0.3672 -1.5102
  125MOL   H32342731   4.082   4.996   6.282 -0.4463  1.8856 -2.0520
  125MOL   H32442732   4.225   4.953   6.385  1.9707  1.6470  0.2538
  125MOL   C32542733   4.056   5.417   6.569 -0.9519 -0.2932  0.6900
  125MOL   C32642734   3.972   5.470   6.448 -0.0940  0.2628 -0.2837
  125MOL   N32742735   3.877   5.571   6.488  0.0596  0.2545  0.3731
  125MOL   C32842736   3.736   5.545   6.486 -0.3238  0.3400  0.0342
  125MOL   C32942737   3.668   5.679   6.524 -0.1602 -0.7265 -0.1263
  125MOL   C33042738   3.788   5.772   6.559 -0.7465 -0.6346  0.7470
  125MOL   C33142739   3.909   5.692   6.529 -0.1791 -0.7433 -0.0052
  125MOL   O33242740   4.021   5.737   6.546 -0.1936 -0.5602 -0.3887
  125MOL   H33342741   4.076   5.502   6.633 -1.2295 -0.8908  1.5747
  125MOL   H33442742   3.997   5.357   6.638 -2.0160  1.3701  1.2344
  125MOL   H33542743   3.919   5.391   6.396  0.9038 -0.2172 -0.5912
  125MOL   H33642744   3.703   5.523   6.384 -1.6981 -2.0506  0.9489
  125MOL   H33742745   3.712   5.460   6.550 -1.8821  1.4466  0.9509
  125MOL   H33842746   3.610   5.721   6.441 -3.5510 -3.2528  0.8406
  125MOL   H33942747   3.611   5.670   6.616 -1.1831 -2.2784 -0.8920
  125MOL   H34042748   3.778   5.857   6.491  0.8316 -2.0247 -1.2685
  125MOL   H34142749   3.798   5.805   6.663  0.8027 -0.2990  0.5058
  125MOL   H34242750   4.044   5.497   6.371  2.3587 -2.2149  1.0583
  126MOL     C142751   4.565   0.463   0.250 -0.2879  0.1214  0.4376
  126MOL     C242752   4.590   0.607   0.228  0.0717 -0.3149  0.7736
  126MOL     N342753   4.724   0.623   0.174 -0.2071  0.1770  0.0135
  126MOL     C442754   4.825   0.681   0.265  0.1057  0.4978 -0.3205
  126MOL     C542755   4.961   0.671   0.188 -0.2485  0.3845 -0.1538
  126MOL     C642756   4.929   0.587   0.060 -0.8100 -0.6003  0.0133
  126MOL     C742757   4.779   0.564   0.063  0.1210 -1.3424 -0.1265
  126MOL     O842758   4.725   0.505   7.878  0.1701 -0.7920 -0.3732
  126MOL     H942759   4.475   0.439   0.307 -1.0740 -2.3030 -1.7028
  126MOL    H1042760   4.564   0.409   0.156 -0.8717  1.3208 -0.2534
  126MOL    H1142761   4.593   0.647   0.329 -0.3711  0.6973  0.3923
  126MOL    H1242762   4.811   0.782   0.304  1.4560  1.6431 -2.7380
  126MOL    H1342763   4.843   0.622   0.355 -0.2514  0.0466 -0.5471
  126MOL    H1442764   5.008   0.767   0.171 -0.6327  0.6548  0.2944
  126MOL    H1542765   5.029   0.615   0.252  0.0833  1.3923  0.3704
  126MOL    H1642766   4.979   0.642   7.887 -0.6498 -0.3259  0.3032
  126MOL    H1742767   4.978   0.490   0.070  1.8292  0.6094 -0.6770
  126MOL    H1842768   4.649   0.433   0.314  0.3732 -1.1186 -0.9857
  126MOL    C1942769   4.484   0.655   0.129 -0.4413  0.1480  0.4374
  126MOL    C2042770   4.453   0.810   0.123  0.6643  0.0889 -0.0836
  126MOL    N2142771   4.574   0.889   0.089  0.0647 -0.0714 -0.1226
  126MOL    C2242772   4.627   0.987   0.185 -0.0473  0.3044  0.9365
  126MOL    C2342773   4.770   1.020   0.130  0.1971  0.0960  0.8670
  126MOL    C2442774   4.762   0.972   7.892  0.0111  0.6387  0.1776
  126MOL    C2542775   4.644   0.887   7.879 -0.1404  0.1177  0.6535
  126MOL    O2642776   4.606   0.824   7.775 -0.3522 -0.0345  0.0681
  126MOL    H2742777   4.392   0.597   0.140 -0.2720 -0.9439 -3.2324
  126MOL    H2842778   4.505   0.626   0.026 -2.1548  0.9796 -0.1663
  126MOL    H2942779   4.413   0.844   0.218  0.5043  1.3040 -0.5751
  126MOL    H3042780   4.560   1.072   0.172  1.7879  1.9019  1.7795
  126MOL    H3142781   4.619   0.951   0.287  0.5444  0.0976  0.9101
  126MOL    H3242782   4.807   1.123   0.136  1.9425 -0.3159 -2.0280
  126MOL    H3342783   4.841   0.962   0.188  0.9455  0.4168  0.2732
  126MOL    H3442784   4.732   1.051   7.822 -0.9642  0.2790  0.1813
  126MOL    H3542785   4.843   0.907   7.857  0.4597  2.2222 -1.8241
  126MOL    C3642786   4.338   0.834   0.019  0.1691  0.1469  0.2821
  126MOL    C3742787   4.199   0.821   0.082 -0.0051  0.1060 -0.2906
  126MOL    N3842788   4.180   0.939   0.166 -0.0672 -0.2057 -0.2559
  126MOL    C3942789   4.144   0.919   0.311 -0.3984  0.1563  0.0820
  126MOL    C4042790   4.156   1.053   0.375  0.1135 -0.3951  0.3975
  126MOL    C4142791   4.152   1.157   0.264 -0.1929  0.5115  0.5125
  126MOL    C4242792   4.178   1.072   0.143  0.4045 -0.1013  0.0786
  126MOL    O4342793   4.199   1.118   0.032 -0.0721  0.5188  0.2965
  126MOL    H4442794   4.347   0.759   7.846  2.4504 -0.6331  1.2280
  126MOL    H4542795   4.348   0.918   7.856 -0.4234 -0.8300 -1.0281
  126MOL    H4642796   4.177   0.734   0.143 -0.2808  0.2958 -0.1217
  126MOL    H4742797   4.045   0.876   0.302 -0.1577 -0.6495  1.2135
  126MOL    H4842798   4.205   0.845   0.363  0.9292  0.8342 -0.4678
  126MOL    H4942799   4.101   1.067   0.468 -0.6303  0.2083 -0.1317
  126MOL    H5042800   4.258   1.050   0.413 -0.4337 -0.8557  1.8830
  126MOL    H5142801   4.050   1.195   0.251 -0.2689  0.3052  0.4923
  126MOL    H5242802   4.224   1.238   0.277 -0.1830  0.5974 -0.0836
  126MOL    C5342803   4.084   0.817   7.887  0.0371  0.1022 -0.2665
  126MOL    C5442804   4.080   0.691   7.794  0.2870 -0.1318  0.2293
  126MOL    N5542805   4.057   0.559   7.851 -0.2365  0.6384 -0.2278
  126MOL    C5642806   4.127   0.444   7.798 -0.0417 -0.4887 -0.4510
  126MOL    C5742807   4.072   0.320   7.874 -0.4073  0.4675  0.3485
  126MOL    C5842808   3.948   0.374   0.040  0.4210  0.9435 -0.0330
  126MOL    C5942809   3.963   0.522   0.026  0.5294 -0.2948 -0.6148
  126MOL    O6042810   3.892   0.597   0.094 -0.7927 -0.4997  0.8771
  126MOL    H6142811   4.090   0.905   7.824 -3.3242  1.4220  1.1227
  126MOL    H6242812   3.986   0.825   0.028  1.5204 -0.6913  3.1410
  126MOL    H6342813   4.177   0.683   7.745  0.9213 -1.5397  1.6624
  126MOL    H6442814   4.110   0.434   7.691  1.4004 -2.9112 -0.4656
  126MOL    H6542815   4.232   0.462   7.818 -0.4674 -0.9391  2.4477
  126MOL    H6642816   4.053   0.246   7.797  0.6313  0.2773  0.2692
  126MOL    H6742817   4.154   0.280   0.027  1.0318  2.4715 -0.2726
  126MOL    H6842818   3.851   0.357   7.898  0.3807  0.4011  0.2437
  126MOL    H6942819   3.939   0.348   0.145  0.7645  0.5896 -0.0893
  126MOL    C7042820   3.984   0.710   7.674 -0.2082 -0.2983  0.2271
  126MOL    C7142821   4.023   0.827   7.568 -0.5116  0.1274  0.0148
  126MOL    N7242822   4.169   0.828   7.534  0.9951  0.1682 -0.1760
  126MOL    C7342823   4.241   0.950   7.561  0.2237 -0.6048 -0.2036
  126MOL    C7442824   4.391   0.923   7.513 -0.1451  0.4326 -0.3712
  126MOL    C7542825   4.390   0.778   7.460 -0.6108 -0.0939  0.4546
  126MOL    C7642826   4.239   0.737   7.473  0.2911 -0.1545 -0.2013
  126MOL    O7742827   4.192   0.634   7.431  0.3514 -0.2821 -0.2898
  126MOL    H7842828   3.888   0.735   7.718  0.3198 -0.0594  1.2473
  126MOL    H7942829   3.974   0.618   7.616 -1.5996  0.7547 -1.2315
  126MOL    H8042830   4.014   0.924   7.617  2.0672  0.9692 -1.0671
  126MOL    H8142831   4.184   1.023   7.504 -2.1377 -2.1053  0.1714
  126MOL    H8242832   4.233   0.972   7.668  0.6941  1.9574 -0.6790
  126MOL    H8342833   4.412   0.983   7.425  1.3096 -0.6083 -0.7441
  126MOL    H8442834   4.461   0.943   7.594 -1.5596 -1.6843  1.4560
  126MOL    H8542835   4.416   0.777   7.355  1.8623 -0.3882  1.0354
  126MOL    H8642836   4.446   0.705   7.519  1.7493  1.4187  0.1318
  126MOL    C8742837   3.936   0.823   7.442 -0.4149  0.1590  0.7004
  126MOL    C8842838   3.929   0.946   7.346 -0.0728  0.6307 -0.1715
  126MOL    N8942839   3.852   0.896   7.229  0.1426  1.1244 -0.5053
  126MOL    C9042840   3.925   0.882   7.102 -0.1012 -0.0387 -0.0349
  126MOL    C9142841   3.824   0.859   6.993  0.0647 -0.5514  0.0363
  126MOL    C9242842   3.692   0.831   7.066 -0.5640 -0.5417 -0.4890
  126MOL    C9342843   3.719   0.873   7.210 -0.6980 -0.4919  0.4554
  126MOL    O9442844   3.639   0.861   7.302 -0.4793 -0.0174 -0.0931
  126MOL    H9542845   3.838   0.811   7.487 -0.0022  0.3805  1.6815
  126MOL    H9642846   3.952   0.729   7.389 -1.4562  0.0848  0.5024
  126MOL    H9742847   4.032   0.965   7.318  0.1219 -1.5355 -0.9903
  126MOL    H9842848   3.992   0.965   7.077  0.7628 -1.1250 -1.3917
  126MOL    H9942849   3.993   0.797   7.103  0.2539  0.2341 -0.8065
  126MOL   H10042850   3.832   0.947   6.929 -0.1322  0.7381  1.7457
  126MOL   H10142851   3.855   0.778   6.927 -0.8907 -0.3239 -0.7000
  126MOL   H10242852   3.610   0.882   7.016  3.0035  2.2197 -3.8812
  126MOL   H10342853   3.669   0.725   7.074  0.3965 -0.7666 -0.5921
  126MOL   C10442854   3.876   1.077   7.411 -0.2014  0.2446 -0.1571
  126MOL   C10542855   3.886   1.205   7.321  0.4785  0.4335  0.4944
  126MOL   N10642856   3.798   1.311   7.373  0.6300  0.1804 -0.2186
  126MOL   C10742857   3.685   1.349   7.291 -0.7078 -0.6157 -0.6826
  126MOL   C10842858   3.606   1.452   7.367  0.5898 -0.0131  0.9236
  126MOL   C10942859   3.676   1.464   7.502  0.5578  0.3868  0.1922
  126MOL   C11042860   3.789   1.371   7.492  0.1603  1.0813  0.0153
  126MOL   O11142861   3.857   1.342   7.584 -0.4961 -0.1433 -0.0794
  126MOL   H11242862   3.935   1.098   7.501 -0.4244 -1.5144  0.4121
  126MOL   H11342863   3.774   1.059   7.447 -0.2481  1.3234  0.3056
  126MOL   H11442864   3.847   1.174   7.224  0.3357 -1.2749  1.0632
  126MOL   H11542865   3.719   1.388   7.195 -0.0422 -1.7690 -0.9242
  126MOL   H11642866   3.625   1.258   7.277  1.6097 -2.2158 -0.4775
  126MOL   H11742867   3.618   1.548   7.316  0.0272 -0.4237  0.0010
  126MOL   H11842868   3.502   1.432   7.391  1.3371 -2.6861  2.0998
  126MOL   H11942869   3.611   1.451   7.589  2.3672  0.6003  1.6221
  126MOL   H12042870   3.716   1.564   7.519  1.1992 -0.1391  1.9516
  126MOL   C12142871   4.034   1.251   7.304  0.0113 -0.2194  0.5417
  126MOL   C12242872   4.084   1.253   7.160  0.1155  0.3817  0.3818
  126MOL   N12342873   4.012   1.348   7.074  0.6014  0.0278 -0.0624
  126MOL   C12442874   4.002   1.484   7.116  0.3493 -0.1963  0.2810
  126MOL   C12542875   3.921   1.560   7.005  0.5065  0.3373 -0.3917
  126MOL   C12642876   3.857   1.442   6.919 -0.5415 -0.4720  0.6283
  126MOL   C12742877   3.935   1.317   6.969 -0.5125  0.3132 -0.1674
  126MOL   O12842878   3.916   1.208   6.921 -0.5644 -0.1174  0.4990
  126MOL   H12942879   4.100   1.176   7.347 -0.0681 -0.4644  0.2429
  126MOL   H13042880   4.063   1.340   7.359  1.1375 -0.2250 -0.0358
  126MOL   H13142881   4.067   1.151   7.125 -0.0386  0.9034 -1.1086
  126MOL   H13242882   4.098   1.535   7.120  0.2553  0.1048 -0.9570
  126MOL   H13342883   3.954   1.505   7.211 -0.3896  0.3841 -0.2119
  126MOL   H13442884   3.849   1.623   7.058  0.1698 -0.7541  0.4716
  126MOL   H13542885   3.991   1.621   6.948  0.3901  0.5819 -0.2764
  126MOL   H13642886   3.751   1.435   6.943 -0.3130  0.0705  1.8218
  126MOL   H13742887   3.867   1.464   6.813 -1.1987  0.7574  0.8176
  126MOL   C13842888   4.237   1.287   7.156  1.1425 -0.6124 -0.0668
  126MOL   C13942889   4.309   1.196   7.049  0.3607 -0.1007 -0.0728
  126MOL   N14042890   4.263   1.211   6.910  0.3992 -0.6969 -0.1621
  126MOL   C14142891   4.191   1.104   6.838 -1.1404 -0.2147  0.6750
  126MOL   C14242892   4.172   1.161   6.693  0.0690 -0.5521 -0.2130
  126MOL   C14342893   4.205   1.315   6.708  0.1648  0.4198  0.5449
  126MOL   C14442894   4.268   1.325   6.842  0.2135 -0.4706 -0.6823
  126MOL   O14542895   4.308   1.433   6.879 -0.3286  0.1346  0.3095
  126MOL   H14642896   4.279   1.245   7.247  1.1538 -2.3421 -0.8410
  126MOL   H14742897   4.258   1.393   7.156 -2.1399  0.0970  2.1534
  126MOL   H14842898   4.292   1.095   7.086 -2.5474  0.9440  1.6378
  126MOL   H14942899   4.247   1.013   6.816 -0.4808  0.1077  1.0350
  126MOL   H15042900   4.098   1.072   6.885  0.0329 -0.3464  2.9912
  126MOL   H15142901   4.253   1.109   6.642  1.6177  0.1630  1.4578
  126MOL   H15242902   4.069   1.139   6.664  0.2535 -1.8280  0.0694
  126MOL   H15342903   4.109   1.367   6.712 -0.3319 -0.4296 -0.0109
  126MOL   H15442904   4.261   1.355   6.624 -0.0312 -0.9296 -0.2480
  126MOL   C15542905   4.465   1.225   7.049 -0.4807 -0.0960 -0.4836
  126MOL   C15642906   4.551   1.119   6.975  0.1083  0.0516  0.2420
  126MOL   N15742907   4.688   1.137   7.023 -0.3952 -0.2147 -0.1923
  126MOL   C15842908   4.778   1.214   6.945  0.6090  0.0636 -0.0018
  126MOL   C15942909   4.915   1.216   7.015 -1.1228  0.1540  0.0433
  126MOL   C16042910   4.899   1.122   7.134  0.4678 -0.1657  0.0225
  126MOL   C16142911   4.757   1.092   7.131 -0.0027  0.1897 -0.8526
  126MOL   O16242912   4.697   1.040   7.226  0.0002  0.2476  0.0706
  126MOL   H16342913   4.499   1.218   7.152  0.2939  3.6844 -0.4149
  126MOL   H16442914   4.494   1.329   7.037 -1.7859  0.5163  1.3389
  126MOL   H16542915   4.553   1.153   6.871  1.5495 -1.0414 -0.1028
  126MOL   H16642916   4.784   1.192   6.839  1.0775  2.6397 -0.5462
  126MOL   H16742917   4.736   1.314   6.960  1.2854  0.4647 -0.7838
  126MOL   H16842918   4.983   1.183   6.937 -0.7424  1.5618 -0.2516
  126MOL   H16942919   4.944   1.319   7.037 -1.7811  0.1954  0.7576
  126MOL   H17042920   4.957   1.030   7.128  0.8200 -0.1247  2.3049
  126MOL   H17142921   4.910   1.178   7.227 -1.5086 -1.7259  1.2295
  126MOL   C17242922   4.508   0.972   6.989  0.1906 -0.5092  0.7037
  126MOL   C17342923   4.594   0.868   6.919  0.1007  0.4256 -0.2380
  126MOL   N17442924   4.520   0.738   6.946 -0.8157  0.1792 -0.3120
  126MOL   C17542925   4.549   0.660   7.066  0.3153 -0.2176  0.0708
  126MOL   C17642926   4.450   0.537   7.058  0.6674  0.9894  0.2628
  126MOL   C17742927   4.362   0.565   6.944  0.1117  0.5585  0.4853
  126MOL   C17842928   4.422   0.686   6.875 -0.2208 -0.1336 -0.3401
  126MOL   O17942929   4.378   0.721   6.766 -0.7593  0.7868  0.0457
  126MOL   H18042930   4.404   0.962   6.957  0.8311 -1.5136 -1.1238
  126MOL   H18142931   4.518   0.939   7.092  1.6064 -0.5864  0.5523
  126MOL   H18242932   4.688   0.861   6.973  0.6439  2.6751 -0.8120
  126MOL   H18342933   4.651   0.624   7.048  0.0665  0.4703 -3.0034
  126MOL   H18442934   4.542   0.705   7.164 -1.2654 -0.8557  0.2588
  126MOL   H18542935   4.382   0.536   7.143 -1.2407 -1.2050 -1.2301
  126MOL   H18642936   4.507   0.445   7.047 -1.4660 -0.2983 -0.3449
  126MOL   H18742937   4.357   0.484   6.870 -1.1425  0.3517  0.7899
  126MOL   H18842938   4.255   0.581   6.959 -0.3318 -0.5885 -1.2296
  126MOL   C18942939   4.633   0.903   6.773 -0.1396  0.1315  0.1342
  126MOL   C19042940   4.748   0.812   6.721  0.2605 -0.1073  0.4244
  126MOL   N19142941   4.750   0.816   6.577  0.0033 -0.4542 -0.2572
  126MOL   C19242942   4.688   0.716   6.505  0.5205  0.6968  0.9155
  126MOL   C19342943   4.731   0.735   6.359  0.7115  0.6657  0.8325
  126MOL   C19442944   4.757   0.880   6.348  0.0095  0.1875 -0.2927
  126MOL   C19542945   4.787   0.916   6.495 -0.6402 -0.3592 -0.3239
  126MOL   O19642946   4.830   1.022   6.524  0.2005 -0.1775 -0.0701
  126MOL   H19742947   4.665   1.007   6.762  0.0871  0.4343  3.3197
  126MOL   H19842948   4.545   0.901   6.708  0.6195  1.5451 -0.9769
  126MOL   H19942949   4.724   0.713   6.758 -1.5006  0.1519  0.0278
  126MOL   H20042950   4.707   0.614   6.540 -0.3308  0.5330  0.9121
  126MOL   H20142951   4.580   0.724   6.514  0.4122  1.7400 -1.0404
  126MOL   H20242952   4.821   0.676   6.338  0.3823  0.9211 -1.3211
  126MOL   H20342953   4.654   0.695   6.294 -0.0512 -0.4501  2.4055
  126MOL   H20442954   4.835   0.906   6.276  1.4884 -1.4029  0.6972
  126MOL   H20542955   4.675   0.949   6.327  0.9501  1.1954 -0.7615
  126MOL   C20642956   4.893   0.842   6.782 -0.6043  0.3042 -0.1992
  126MOL   C20742957   4.943   0.721   6.861  0.2376 -0.0490 -0.4728
  126MOL   N20842958   4.951   0.593   6.787  0.4312  0.0381  0.1354
  126MOL   C20942959   4.894   0.477   6.846  0.0523 -0.0820 -0.1070
  126MOL   C21042960   4.967   0.363   6.782  0.4827 -0.0251 -0.4470
  126MOL   C21142961   5.013   0.415   6.644 -0.8784 -0.0948  0.8488
  126MOL   C21242962   5.019   0.560   6.679 -0.3999 -0.0095  0.0006
  126MOL   O21342963   5.076   0.639   6.607  0.4571  0.6069 -0.2382
  126MOL   H21442964   4.904   0.931   6.844 -0.2248 -0.1660  0.4196
  126MOL   H21542965   4.962   0.869   6.702  0.3161 -0.5187  0.2925
  126MOL   H21642966   4.865   0.711   6.937  1.0240  2.0582  0.6439
  126MOL   H21742967   4.896   0.487   6.955  0.6126 -0.7291 -0.0557
  126MOL   H21842968   4.793   0.466   6.807  0.3925  0.1972 -1.0828
  126MOL   H21942969   5.047   0.338   6.852  1.7317 -0.1353 -1.8961
  126MOL   H22042970   4.909   0.273   6.767 -1.1271  0.8384  0.4305
  126MOL   H22142971   5.105   0.370   6.610 -0.8550 -0.3397  1.2358
  126MOL   H22242972   4.931   0.391   6.576  1.5768  0.1573 -2.2809
  126MOL   C22342973   5.084   0.741   6.928  0.4224  0.6463 -0.0851
  126MOL   C22442974   5.136   0.641   7.033  0.4482  0.4187 -0.5248
  126MOL   N22542975   5.278   0.658   7.058 -0.1788 -0.1916  0.0217
  126MOL   C22642976   5.365   0.546   7.028  0.5026 -0.1626  0.2673
  126MOL   C22742977   5.503   0.583   7.077 -0.7118 -0.5104 -0.3029
  126MOL   C22842978   5.492   0.729   7.116  0.0165  0.4161 -0.5785
  126MOL   C22942979   5.347   0.759   7.113  0.1561 -0.7339 -0.1493
  126MOL   O23042980   5.309   0.873   7.137  0.3215 -0.0646  0.3410
  126MOL   H23142981   5.081   0.839   6.977 -2.3475 -0.2866  1.7468
  126MOL   H23242982   5.153   0.759   6.845 -0.7245  1.0512 -0.9642
  126MOL   H23342983   5.140   0.540   6.993 -0.3180  0.2826 -0.2827
  126MOL   H23442984   5.333   0.462   7.089 -1.8815  1.0338  0.7441
  126MOL   H23542985   5.354   0.519   6.924  1.4184 -4.4191  1.1945
  126MOL   H23642986   5.538   0.515   7.155 -0.2030  0.8098  0.6364
  126MOL   H23742987   5.571   0.586   6.992  0.0392  1.4660  0.3453
  126MOL   H23842988   5.523   0.764   7.214  0.3932 -1.6287  0.0540
  126MOL   H23942989   5.539   0.798   7.046  0.6715  0.7778  0.2071
  126MOL   C24042990   5.050   0.652   7.158  0.7380 -0.7402  0.5799
  126MOL   C24142991   5.068   0.544   7.272  0.4160  0.3507 -0.3681
  126MOL   N24242992   4.956   0.568   7.366 -0.6457  0.6341  0.1298
  126MOL   C24342993   4.985   0.647   7.483 -0.3830 -0.2382  0.1561
  126MOL   C24442994   4.840   0.656   7.553  0.1927 -0.4428  0.1555
  126MOL   C24542995   4.740   0.630   7.436 -0.0364  0.0783 -0.4240
  126MOL   C24642996   4.828   0.558   7.337 -0.0557 -0.0368 -0.6695
  126MOL   O24742997   4.773   0.500   7.249 -0.3200  0.6121  0.1530
  126MOL   H24842998   4.947   0.653   7.120  1.3193 -0.7462 -1.0172
  126MOL   H24942999   5.064   0.747   7.210  0.6852  0.6438 -1.8689
  126MOL   H25043000   5.166   0.556   7.318  1.6548 -0.3843 -2.7256
  126MOL   H25143001   5.045   0.606   7.564  0.3037  0.5462  0.0602
  126MOL   H25243002   5.020   0.749   7.465  1.6065 -0.9844 -0.3635
  126MOL   H25343003   4.826   0.570   7.619 -1.0648 -2.0382 -2.0918
  126MOL   H25443004   4.837   0.752   7.603 -0.9728 -1.0709  1.3108
  126MOL   H25543005   4.655   0.570   7.469  0.0765  0.2039  0.1071
  126MOL   H25643006   4.709   0.726   7.395 -1.0359  0.2165  0.6265
  126MOL   C25743007   5.055   0.398   7.222 -0.0952  0.8811  0.1369
  126MOL   C25843008   5.056   0.278   7.317  0.2646  0.6599  0.5809
  126MOL   N25943009   5.013   0.162   7.233  0.0898 -0.0597 -0.2897
  126MOL   C26043010   4.872   0.142   7.217  0.0834  0.2599 -0.6600
  126MOL   C26143011   4.851   0.043   7.097 -0.3654 -0.2168 -0.2616
  126MOL   C26243012   4.983   0.029   7.030  0.1608 -0.9851 -0.2266
  126MOL   C26343013   5.079   0.107   7.127  0.3969  0.6393 -1.4582
  126MOL   O26443014   5.201   0.123   7.111  0.4912 -0.0247  1.2425
  126MOL   H26543015   5.127   0.375   7.143  0.4012  0.1365  0.7934
  126MOL   H26643016   4.964   0.393   7.162  0.6710  0.4834 -1.0130
  126MOL   H26743017   4.988   0.298   7.400  1.0294 -0.6666  1.5456
  126MOL   H26843018   4.835   0.107   7.314  1.2272 -2.7555 -1.2418
  126MOL   H26943019   4.820   0.236   7.201  0.2423  0.6599  1.0185
  126MOL   H27043020   4.815   7.848   7.118 -2.6898  0.1778 -2.1520
  126MOL   H27143021   4.778   0.088   7.029 -0.1709 -1.3114 -1.2203
  126MOL   H27243022   5.013   7.831   7.017  1.3284 -0.9678  1.9835
  126MOL   H27343023   4.978   0.084   6.936  1.0852  1.2371  1.0026
  126MOL   C27443024   5.190   0.242   7.388  0.7710 -0.1526 -0.3282
  126MOL   C27543025   5.203   0.300   7.530  1.0200  0.0948  0.2713
  126MOL   N27643026   5.101   0.230   7.617 -0.3048  0.5270  0.2136
  126MOL   C27743027   4.999   0.320   7.680 -0.8979 -0.8618 -0.3361
  126MOL   C27843028   4.916   0.225   7.766 -0.3337 -0.4176 -0.5728
  126MOL   C27943029   4.977   0.083   7.752  0.2463 -0.1068  0.5955
  126MOL   C28043030   5.083   0.100   7.647  0.1424 -0.4209 -0.8340
  126MOL   O28143031   5.151   0.009   7.600 -0.2706 -0.0072  0.0245
  126MOL   H28243032   5.269   0.282   7.325  0.0418  2.2628  0.2513
  126MOL   H28343033   5.207   0.134   7.389 -0.4814 -0.3544  0.9345
  126MOL   H28443034   5.185   0.407   7.530 -2.7602 -0.4293 -1.0041
  126MOL   H28543035   5.048   0.402   7.732  2.8205 -1.7774 -2.1866
  126MOL   H28643036   4.935   0.365   7.604 -0.2331 -1.4091 -1.2324
  126MOL   H28743037   4.904   0.253   7.871 -2.0205 -0.5790 -0.7167
  126MOL   H28843038   4.812   0.236   7.735 -0.6243  2.0247  1.0809
  126MOL   H28943039   5.026   0.055   7.846  2.0937  3.2439  0.7116
  126MOL   H29043040   4.913   0.002   7.719  0.6973 -0.3665  0.3565
  126MOL   C29143041   5.344   0.263   7.586 -0.0527  0.7721 -0.3086
  126MOL   C29243042   5.464   0.350   7.534  0.2773 -0.0185 -0.3154
  126MOL   N29343043   5.433   0.493   7.561  0.0090  0.4067 -0.1009
  126MOL   C29443044   5.442   0.579   7.446 -0.1616  0.1130  0.0500
  126MOL   C29543045   5.374   0.711   7.487 -0.1682  0.1143  0.0213
  126MOL   C29643046   5.357   0.705   7.640 -0.1176 -0.0463 -0.2753
  126MOL   C29743047   5.403   0.564   7.676 -0.1056 -0.2728  0.2001
  126MOL   O29843048   5.407   0.520   7.793 -0.2239  0.1355 -0.7445
  126MOL   H29943049   5.363   0.156   7.578  0.2226  0.6196  2.1097
  126MOL   H30043050   5.354   0.265   7.694 -2.6392  0.1852 -0.0270
  126MOL   H30143051   5.461   0.340   7.425 -0.4676 -0.8083 -0.2272
  126MOL   H30243052   5.545   0.602   7.419 -0.5028  1.8514  0.1454
  126MOL   H30343053   5.395   0.529   7.361 -0.1325  1.1641 -0.5896
  126MOL   H30443054   5.424   0.804   7.458  0.7612 -0.4628 -0.2227
  126MOL   H30543055   5.278   0.702   7.435 -1.0927 -0.8724  1.8426
  126MOL   H30643056   5.409   0.764   7.716  1.7347 -0.1280 -1.4361
  126MOL   H30743057   5.251   0.708   7.665 -0.0902  2.4791 -0.3402
  126MOL   C30843058   5.599   0.316   7.603  0.0419 -0.4859  0.4622
  126MOL   C30943059   5.727   0.383   7.555  0.0409 -0.2717  0.5185
  126MOL   N31043060   5.823   0.398   7.662  0.6992 -0.1334 -0.7988
  126MOL   C31143061   5.874   0.530   7.688  0.0847  0.2448  0.5857
  126MOL   C31243062   5.987   0.506   7.796 -0.2073  0.2170  0.7893
  126MOL   C31343063   5.966   0.370   7.851  0.3402 -0.0121  0.0073
  126MOL   C31443064   5.876   0.307   7.749  0.1916  0.7804 -0.4392
  126MOL   O31543065   5.861   0.184   7.743  0.4260 -0.2684 -0.8379
  126MOL   H31643066   5.607   0.208   7.612 -1.8436 -0.5808  1.0763
  126MOL   H31743067   5.583   0.340   7.708  1.6094 -3.7161  1.5046
  126MOL   H31843068   5.705   0.479   7.509  0.6063 -0.6001 -0.4757
  126MOL   H31943069   5.903   0.571   7.591  0.1139  1.0863  0.9499
  126MOL   H32043070   5.804   0.598   7.735  1.9262  2.1621  0.6736
  126MOL   H32143071   6.085   0.500   7.749 -0.8354 -1.2671 -0.3386
  126MOL   H32243072   5.989   0.584   7.873  2.7289  0.0805  0.9102
  126MOL   H32343073   6.062   0.319   7.844  0.5627  0.4030 -0.0171
  126MOL   H32443074   5.927   0.368   0.047 -0.4666 -1.3500 -0.3208
  126MOL   C32543075   5.797   0.298   7.449 -1.0346  0.5774  0.0027
  126MOL   C32643076   5.729   0.273   7.319  0.5806  0.1927 -0.0867
  126MOL   N32743077   5.818   0.209   7.221  0.1940 -0.7759  0.2037
  126MOL   C32843078   5.787   0.076   7.174  0.2588  0.1086 -0.1860
  126MOL   C32943079   5.908   0.044   7.082  0.6754 -1.0519 -0.4864
  126MOL   C33043080   5.992   0.177   7.072 -0.9664  0.4146 -0.3218
  126MOL   C33143081   5.924   0.274   7.163  0.6463 -0.0439 -0.0848
  126MOL   O33243082   5.967   0.393   7.169  0.2946 -0.0498 -0.3669
  126MOL   H33343083   5.828   0.206   7.498  3.0516  2.0848  0.4251
  126MOL   H33443084   5.894   0.341   7.426 -0.3280 -0.1415  1.5496
  126MOL   H33543085   5.700   0.372   7.284  2.8202  1.3058  1.0997
  126MOL   H33643086   5.785   0.015   7.264  1.7816  1.6705  0.9473
  126MOL   H33743087   5.695   0.068   7.116  0.3752  0.2722 -0.3963
  126MOL   H33843088   5.966   7.870   7.127 -2.0205 -2.7268  0.1584
  126MOL   H33943089   5.875   0.014   6.983 -1.2656  0.8659 -0.4844
  126MOL   H34043090   6.097   0.179   7.101  0.2198  0.3297 -4.2680
  126MOL   H34143091   5.986   0.215   6.970  0.1086  3.5437  0.7175
  126MOL   H34243092   5.642   0.208   7.329  1.0920 -0.3936  0.5450
  127MOL     C143093   2.365   0.333   7.253  0.2298  0.0701 -0.2952
  127MOL     C243094   2.226   0.395   7.232 -0.5365  0.3781 -0.5753
  127MOL     N343095   2.224   0.534   7.263 -0.4881  0.1461  0.0276
  127MOL     C443096   2.183   0.584   7.395  0.5220  0.0005  0.0530
  127MOL     C543097   2.213   0.731   7.397 -0.0398 -0.3009  0.1061
  127MOL     C643098   2.251   0.766   7.254 -0.2663 -0.1096 -0.5068
  127MOL     C743099   2.262   0.637   7.186 -0.6082  0.1363  0.1128
  127MOL     O843100   2.314   0.626   7.075  0.2290 -0.0645  0.6155
  127MOL     H943101   2.374   0.226   7.268  1.0696  0.3005  0.8473
  127MOL    H1043102   2.434   0.377   7.181  0.7495 -0.1508  0.0696
  127MOL    H1143103   2.167   0.356   7.315  0.8715 -0.7166 -0.0575
  127MOL    H1243104   2.080   0.562   7.421  0.6763 -0.0912  0.5938
  127MOL    H1343105   2.237   0.542   7.480 -0.3486 -1.0619  0.0832
  127MOL    H1443106   2.126   0.788   7.430  0.3120 -0.1256  0.7554
  127MOL    H1543107   2.296   0.743   7.468 -1.2843 -0.0140  1.5484
  127MOL    H1643108   2.175   0.825   7.202  0.6724  1.8103  0.2684
  127MOL    H1743109   2.342   0.823   7.236 -0.8286  0.8557 -0.3566
  127MOL    H1843110   2.407   0.376   7.344 -0.7772 -0.7287  0.5551
  127MOL    C1943111   2.160   0.364   7.098  0.2525  0.0588 -0.1368
  127MOL    C2043112   2.124   0.211   7.082  0.9675  1.0492  0.1130
  127MOL    N2143113   2.017   0.179   7.184  0.0792  0.4343  0.1755
  127MOL    C2243114   2.041   0.060   7.261  0.1945  0.4463  0.1610
  127MOL    C2343115   1.912   0.038   7.349 -0.0727 -0.1057  0.4253
  127MOL    C2443116   1.809   0.137   7.278  0.9202  0.4681 -0.5058
  127MOL    C2543117   1.892   0.226   7.192  0.1919 -0.1978 -0.7976
  127MOL    O2643118   1.841   0.334   7.151  0.0654 -0.0511  0.2206
  127MOL    H2743119   2.226   0.399   7.019  2.4542 -0.8234  1.2812
  127MOL    H2843120   2.068   0.423   7.096  1.0450  1.3220 -0.4881
  127MOL    H2943121   2.214   0.153   7.104  1.5352  1.4823 -0.9901
  127MOL    H3043122   2.055   7.892   7.182 -0.1188 -0.5844  1.0568
  127MOL    H3143123   2.137   0.057   7.312  0.4627 -0.1346 -0.3608
  127MOL    H3243124   1.897   7.836   7.345 -0.3668 -0.0534  0.1504
  127MOL    H3343125   1.925   0.080   7.448  1.9261 -0.8621  0.5006
  127MOL    H3443126   1.752   0.079   7.206 -1.4327  0.9631  0.8991
  127MOL    H3543127   1.741   0.201   7.334  1.3226  1.2359 -0.9017
  127MOL    C3643128   2.073   0.175   6.938 -0.1150  0.1478  0.3301
  127MOL    C3743129   2.172   0.129   6.828 -0.2393 -0.5274  0.7868
  127MOL    N3843130   2.095   0.076   6.718  0.0703  0.1115  0.2258
  127MOL    C3943131   2.080   7.837   6.719  0.8050  0.3244  0.4039
  127MOL    C4043132   1.983   7.800   6.600 -0.6924 -0.4758  0.3360
  127MOL    C4143133   1.944   0.024   6.536 -0.5659  0.4167 -0.4160
  127MOL    C4243134   2.018   0.128   6.621 -0.9390  0.7077  0.2070
  127MOL    O4343135   2.005   0.243   6.587 -0.0588  0.0597 -0.2854
  127MOL    H4443136   2.006   0.253   6.901  0.3668 -0.2606 -1.4763
  127MOL    H4543137   1.994   0.100   6.949 -0.3992  0.1630 -1.3714
  127MOL    H4643138   2.239   0.051   6.864 -0.7085 -1.5065 -0.4258
  127MOL    H4743139   2.179   7.795   6.703  0.5425 -0.1928  0.1387
  127MOL    H4843140   2.036   7.807   6.813 -1.7780 -0.5686 -1.0490
  127MOL    H4943141   2.033   7.728   6.536 -1.0272 -0.1671 -0.2786
  127MOL    H5043142   1.895   7.749   6.639  0.2049 -1.2726  1.3570
  127MOL    H5143143   1.952   0.033   6.428  0.0076 -0.5487 -0.4533
  127MOL    H5243144   1.837   0.033   6.555 -0.8548 -1.9343 -0.7761
  127MOL    C5343145   2.264   0.245   6.787  0.2766  0.6861  0.0913
  127MOL    C5443146   2.372   0.209   6.678 -0.0049  0.7543 -0.4138
  127MOL    N5543147   2.437   0.335   6.637  0.6837 -0.2097 -0.5595
  127MOL    C5643148   2.401   0.388   6.501 -0.0981  0.0282  1.0487
  127MOL    C5743149   2.478   0.520   6.490  0.0028 -0.5307 -0.2840
  127MOL    C5843150   2.546   0.542   6.624  0.6674  0.4248  0.0275
  127MOL    C5943151   2.520   0.414   6.702 -0.4477  0.3012 -0.9297
  127MOL    O6043152   2.565   0.392   6.816 -0.4266 -0.1353  0.1329
  127MOL    H6143153   2.319   0.287   6.871 -1.5475  0.5869  1.3699
  127MOL    H6243154   2.214   0.334   6.749  0.4787  0.5549 -0.4945
  127MOL    H6343155   2.321   0.186   6.584 -0.5081 -0.8877  0.2512
  127MOL    H6443156   2.439   0.323   6.423  1.6852  0.6428  1.3894
  127MOL    H6543157   2.294   0.408   6.490 -0.0960  0.7837  2.3539
  127MOL    H6643158   2.551   0.526   6.410 -0.5763 -2.0511 -0.9437
  127MOL    H6743159   2.403   0.596   6.468  0.6340  0.2991  0.3905
  127MOL    H6843160   2.653   0.560   6.611  0.6789 -0.5722 -1.3212
  127MOL    H6943161   2.505   0.625   6.681 -1.8743 -0.3595 -0.5989
  127MOL    C7043162   2.476   0.106   6.724 -0.0734 -0.1695  0.5236
  127MOL    C7143163   2.545   0.033   6.608 -0.6262  0.4142 -0.0884
  127MOL    N7243164   2.674   7.887   6.652  0.7379 -0.1373  0.2425
  127MOL    C7343165   2.792   0.055   6.628 -0.1450  0.3210  0.0521
  127MOL    C7443166   2.908   7.881   6.693  0.2137  0.5662 -1.1430
  127MOL    C7543167   2.842   7.759   6.760  0.4348 -0.1871 -0.0598
  127MOL    C7643168   2.698   7.778   6.728  0.1344  0.0587 -0.2224
  127MOL    O7743169   2.610   7.703   6.769 -0.1845 -0.2393 -0.0822
  127MOL    H7843170   2.434   0.021   6.778 -0.5013 -1.0780 -1.1916
  127MOL    H7943171   2.542   0.149   6.800 -1.2954  1.4184  0.7066
  127MOL    H8043172   2.565   0.103   6.527 -0.1596 -0.5859 -0.8639
  127MOL    H8143173   2.810   0.067   6.521  1.4574  0.8137  0.3624
  127MOL    H8243174   2.775   0.149   6.680  0.6105  0.4230  0.1223
  127MOL    H8343175   2.985   7.837   6.630 -0.7187 -1.2244 -1.0619
  127MOL    H8443176   2.964   0.034   6.765 -1.8234 -0.2416  1.1581
  127MOL    H8543177   2.873   7.671   6.703  0.7964  0.5406 -0.9759
  127MOL    H8643178   2.873   7.732   6.861  0.3235  0.5203  0.1623
  127MOL    C8743179   2.446   7.830   6.554 -0.3821  0.3922  0.3490
  127MOL    C8843180   2.511   7.740   6.441  0.2304 -0.0976  0.0038
  127MOL    N8943181   2.423   7.617   6.429  0.5724 -0.2266  0.0844
  127MOL    C9043182   2.481   7.489   6.471 -0.2181  0.3285 -0.0354
  127MOL    C9143183   2.368   7.383   6.456 -0.1204 -0.1324  0.3171
  127MOL    C9243184   2.256   7.460   6.388 -0.5762 -0.0103  0.2496
  127MOL    C9343185   2.293   7.605   6.398  0.3384 -0.7726 -0.0747
  127MOL    O9443186   2.221   7.693   6.360  0.1707 -0.2095  0.3331
  127MOL    H9543187   2.356   7.884   6.524 -1.0801 -1.1358 -0.4059
  127MOL    H9643188   2.411   7.761   6.631  0.9120 -0.6266  0.0378
  127MOL    H9743189   2.608   7.705   6.476 -0.5026 -1.0983  1.0333
  127MOL    H9843190   2.555   7.457   6.398 -1.4268 -0.1553 -1.0683
  127MOL    H9943191   2.521   7.511   6.570 -0.8738  1.0229  0.0825
  127MOL   H10043192   2.392   7.290   6.406 -1.5385  1.2586 -3.0855
  127MOL   H10143193   2.321   7.355   6.551 -2.1735  1.4521 -0.1907
  127MOL   H10243194   2.274   7.440   6.283  1.9677 -1.7416  0.9665
  127MOL   H10343195   2.158   7.441   6.433 -0.4941  0.4259  0.6227
  127MOL   C10443196   2.528   7.817   6.305 -0.4633  0.1055 -0.3161
  127MOL   C10543197   2.588   7.741   6.186 -0.3640 -0.2203  0.0138
  127MOL   N10643198   2.488   7.668   6.106 -0.2288  1.0062 -0.1096
  127MOL   C10743199   2.512   7.528   6.063  0.3824 -0.2765  0.2653
  127MOL   C10843200   2.384   7.487   5.993 -0.2355 -0.0111  0.1875
  127MOL   C10943201   2.309   7.613   5.966  0.3138  0.7311 -0.8220
  127MOL   C11043202   2.380   7.722   6.048 -0.2298 -0.1200  0.8516
  127MOL   O11143203   2.352   7.839   6.026  0.3673 -0.1447  0.6582
  127MOL   H11243204   2.600   7.895   6.328  1.3659 -1.3031 -1.1295
  127MOL   H11343205   2.428   7.852   6.280 -0.5178 -0.1603 -0.4731
  127MOL   H11443206   2.650   7.665   6.233  0.5640  0.4319 -0.1446
  127MOL   H11543207   2.600   7.505   6.002  1.0523  0.1165  1.0723
  127MOL   H11643208   2.512   7.462   6.150 -3.2059 -2.0911 -1.0212
  127MOL   H11743209   2.403   7.428   5.902 -0.8790 -0.3408  0.2683
  127MOL   H11843210   2.326   7.419   6.055  0.6514  1.1972  2.3650
  127MOL   H11943211   2.204   7.606   5.993  1.0297 -0.1254  1.9105
  127MOL   H12043212   2.314   7.637   5.860  1.1028  1.2940 -0.6602
  127MOL   C12143213   2.664   7.834   6.090 -0.3771 -0.9751 -0.5971
  127MOL   C12243214   2.806   7.880   6.135  0.4111 -0.1951 -0.0576
  127MOL   N12343215   2.885   7.765   6.180  0.1106  0.1350  0.1535
  127MOL   C12443216   2.918   7.741   6.319  0.7449 -0.1449  0.3154
  127MOL   C12543217   2.956   7.592   6.326 -0.6241 -0.7836  1.3062
  127MOL   C12643218   3.029   7.568   6.192  0.3355 -0.5325 -1.0741
  127MOL   C12743219   2.942   7.663   6.105 -0.7623  0.2347 -0.2353
  127MOL   O12843220   2.930   7.649   5.983 -0.0039  0.2733 -0.2900
  127MOL   H12943221   2.603   0.015   6.066  2.4478  1.0033 -0.9235
  127MOL   H13043222   2.676   7.799   5.988  0.0445 -3.6439  0.3225
  127MOL   H13143223   2.789   0.032   6.226  0.2024 -1.4337  0.6990
  127MOL   H13243224   2.833   7.760   6.384  1.0498 -2.0212  1.2905
  127MOL   H13343225   2.990   7.816   6.350 -1.0331  3.1668 -3.1118
  127MOL   H13443226   3.020   7.571   6.412  1.1393 -2.2663 -0.3139
  127MOL   H13543227   2.865   7.532   6.331 -2.1417  1.5639  2.3831
  127MOL   H13643228   3.131   7.607   6.187  1.1599 -2.0278  2.4694
  127MOL   H13743229   3.034   7.466   6.154  1.1968 -0.8347 -0.1663
  127MOL   C13843230   2.883   0.055   6.036 -0.0602  0.2863  0.1887
  127MOL   C13943231   2.838   0.203   6.017 -0.2525  0.8294  0.2979
  127MOL   N14043232   2.863   0.290   6.132 -0.0502 -0.3324 -0.1634
  127MOL   C14143233   2.786   0.415   6.140  0.5389 -0.3494  0.3118
  127MOL   C14243234   2.847   0.503   6.249  0.3532  0.1861 -0.7792
  127MOL   C14343235   2.928   0.402   6.330 -0.4299 -0.0102 -0.4151
  127MOL   C14443236   2.945   0.277   6.240  0.1224 -0.0759 -0.2299
  127MOL   O14543237   3.011   0.178   6.274  0.0833 -1.0455 -0.5313
  127MOL   H14643238   2.872   0.017   5.935  1.0564 -0.6219  0.3948
  127MOL   H14743239   2.991   0.055   6.050  0.2076  0.4259 -1.7653
  127MOL   H14843240   2.730   0.203   6.006 -0.3141  0.5028  0.8841
  127MOL   H14943241   2.777   0.462   6.042  0.7701  1.2935  1.0621
  127MOL   H15043242   2.687   0.379   6.169 -0.1248  1.5427  0.4637
  127MOL   H15143243   2.901   0.584   6.201 -0.8005  1.3870 -0.0925
  127MOL   H15243244   2.771   0.550   6.311  0.4179  0.3671 -0.8391
  127MOL   H15343245   2.870   0.375   6.418  0.5998 -1.8498 -0.2723
  127MOL   H15443246   3.028   0.440   6.351 -0.4245  0.4959 -1.3468
  127MOL   C15543247   2.892   0.263   5.885 -0.4953 -0.0491  0.2672
  127MOL   C15643248   2.805   0.243   5.761 -0.1233 -0.0293  0.4263
  127MOL   N15743249   2.692   0.343   5.757  0.0918  0.0411 -0.5527
  127MOL   C15843250   2.557   0.300   5.775 -0.6263 -0.1110 -0.2218
  127MOL   C15943251   2.470   0.427   5.772 -0.0333  0.7441  0.8427
  127MOL   C16043252   2.566   0.548   5.764 -0.5445 -0.0853 -0.0963
  127MOL   C16143253   2.702   0.480   5.761  0.5437 -0.1027  0.9192
  127MOL   O16243254   2.806   0.544   5.757 -0.4249  0.1690 -0.3174
  127MOL   H16343255   2.987   0.216   5.860  0.5341  0.8854  2.2615
  127MOL   H16443256   2.921   0.368   5.896  2.0752 -0.7515  0.3974
  127MOL   H16543257   2.768   0.141   5.746 -1.3463  0.5671 -0.8504
  127MOL   H16643258   2.529   0.228   5.697 -0.1752 -1.2073  0.6283
  127MOL   H16743259   2.560   0.242   5.867 -1.5517  0.9220  0.4709
  127MOL   H16843260   2.410   0.427   5.681  3.3647 -1.3969 -1.4810
  127MOL   H16943261   2.414   0.441   5.865 -1.0596  0.2826  0.3042
  127MOL   H17043262   2.551   0.613   5.679 -0.1450  1.2837  0.8579
  127MOL   H17143263   2.552   0.610   5.853  2.8726  2.3580 -1.1695
  127MOL   C17243264   2.875   0.271   5.626  0.4644 -0.3190 -0.4071
  127MOL   C17343265   2.990   0.182   5.579  0.5181  0.6115 -0.1909
  127MOL   N17443266   2.994   0.041   5.629 -0.5035 -0.0763  0.0663
  127MOL   C17543267   3.124   7.906   5.690  0.3005 -0.1145 -0.1542
  127MOL   C17643268   3.121   7.756   5.682 -0.1004  0.3041 -0.0614
  127MOL   C17743269   2.981   7.718   5.650 -0.1942  0.1273  0.2452
  127MOL   C17843270   2.919   7.843   5.597 -0.0715  0.2392  0.6195
  127MOL   O17943271   2.814   7.847   5.539  0.0458 -0.4151 -0.4829
  127MOL   H18043272   2.916   0.370   5.608 -2.0272  1.4647  3.1927
  127MOL   H18143273   2.800   0.278   5.548  3.0915 -0.9070 -3.0810
  127MOL   H18243274   3.076   0.235   5.620  2.2727 -2.0800 -0.2890
  127MOL   H18343275   3.213   0.037   5.639 -0.0811  2.3029  0.9011
  127MOL   H18443276   3.143   0.023   5.794  0.6922 -0.0977 -0.2265
  127MOL   H18543277   3.149   7.708   5.776 -2.1219  0.5468  0.6977
  127MOL   H18643278   3.192   7.732   5.602  0.6120  0.8653  0.3939
  127MOL   H18743279   2.985   7.627   5.591  1.0849  0.9449 -0.9538
  127MOL   H18843280   2.923   7.687   5.738  0.6727  1.0376  1.1595
  127MOL   C18943281   2.988   0.178   5.422  0.3361  0.2724  0.2299
  127MOL   C19043282   3.057   0.293   5.364 -0.1872  0.5152 -0.6468
  127MOL   N19143283   3.197   0.294   5.402 -0.0428  0.2882 -0.7062
  127MOL   C19243284   3.251   0.392   5.496 -0.0952 -0.1786  0.2883
  127MOL   C19343285   3.385   0.330   5.554  0.2564  0.5496 -0.0886
  127MOL   C19443286   3.413   0.217   5.444 -0.6431 -1.3698 -0.2715
  127MOL   C19543287   3.293   0.209   5.357 -0.5186 -0.6055 -1.1552
  127MOL   O19643288   3.283   0.119   5.272  0.1225 -0.3569  0.4789
  127MOL   H19743289   2.889   0.173   5.377  0.7094  1.2380 -0.7104
  127MOL   H19843290   3.041   0.091   5.383 -0.1751 -0.1349  0.4401
  127MOL   H19943291   3.005   0.380   5.404 -3.0265 -1.4212  0.0037
  127MOL   H20043292   3.273   0.482   5.438 -1.4827 -1.2759 -2.0226
  127MOL   H20143293   3.180   0.415   5.575  1.7333  0.8099  1.6919
  127MOL   H20243294   3.460   0.409   5.559  0.3819  0.3699  1.1035
  127MOL   H20343295   3.358   0.302   5.656  1.0671  0.7240  0.1774
  127MOL   H20443296   3.502   0.244   5.387 -1.1077 -1.5836 -1.0975
  127MOL   H20543297   3.431   0.120   5.489  0.0916 -0.7577  0.7826
  127MOL   C20643298   3.038   0.298   5.209  0.4701 -0.7536  0.5239
  127MOL   C20743299   3.106   0.413   5.132 -0.4236  0.0247  0.1622
  127MOL   N20843300   3.117   0.365   4.991  0.5040 -0.2566  0.1869
  127MOL   C20943301   3.247   0.318   4.937  0.2977 -0.3548 -0.2778
  127MOL   C21043302   3.213   0.263   4.789 -0.4348 -0.2177  0.3989
  127MOL   C21143303   3.059   0.297   4.767 -0.3767  0.0341 -0.2409
  127MOL   C21243304   3.020   0.356   4.898  0.7353 -0.1404 -0.2581
  127MOL   O21343305   2.902   0.385   4.922 -0.1678 -0.2476  0.2085
  127MOL   H21443306   2.933   0.307   5.183  0.7167 -1.4366 -0.7632
  127MOL   H21543307   3.050   0.197   5.170  0.8924 -0.0489 -1.2393
  127MOL   H21643308   3.207   0.415   5.171  0.5697 -3.0566 -2.0284
  127MOL   H21743309   3.330   0.387   4.948  0.2437  0.0666 -2.4234
  127MOL   H21843310   3.273   0.228   4.994  1.3748 -0.2317 -0.5614
  127MOL   H21943311   3.271   0.310   4.711  0.3847  2.1037  2.3617
  127MOL   H22043312   3.247   0.160   4.773  1.0689  0.3751 -0.2406
  127MOL   H22143313   3.056   0.369   4.685 -2.7422 -0.4434 -0.5939
  127MOL   H22243314   3.003   0.207   4.742 -0.3990  0.7763 -3.0128
  127MOL   C22343315   3.036   0.555   5.155 -0.1483  0.1887  0.0055
  127MOL   C22443316   3.058   0.667   5.053 -0.1286  0.5664 -0.3214
  127MOL   N22543317   2.988   0.784   5.093  0.6620  0.3074  0.5831
  127MOL   C22643318   2.866   0.829   5.020  0.6286 -0.7456  0.4520
  127MOL   C22743319   2.842   0.976   5.058  0.6566  0.1935  0.2057
  127MOL   C22843320   2.945   1.002   5.173 -0.2032 -0.0056  0.5353
  127MOL   C22943321   3.031   0.872   5.186  0.7756 -0.0029  0.2284
  127MOL   O23043322   3.124   0.854   5.269  0.3548  0.0639  0.2712
  127MOL   H23143323   3.066   0.586   5.255 -1.6821 -0.6723  0.7534
  127MOL   H23243324   2.931   0.528   5.166 -0.2624  0.9270  0.8370
  127MOL   H23343325   2.999   0.627   4.970 -0.2530  1.0631 -0.4786
  127MOL   H23443326   2.890   0.823   4.914 -1.4153 -1.2213 -0.0026
  127MOL   H23543327   2.791   0.757   5.052  0.4039 -1.4831 -1.6324
  127MOL   H23643328   2.866   1.036   4.971  1.8389 -0.6181 -0.0435
  127MOL   H23743329   2.735   0.980   5.078  0.8154  2.7266  0.6582
  127MOL   H23843330   3.009   1.090   5.157  1.0036 -1.2653 -1.7697
  127MOL   H23943331   2.890   1.023   5.265 -2.3059  0.8770 -0.9007
  127MOL   C24043332   3.211   0.692   5.006  0.9470 -0.4353 -0.3851
  127MOL   C24143333   3.212   0.768   4.874 -0.1023 -0.5011  0.2677
  127MOL   N24243334   3.334   0.855   4.876 -0.4038 -0.4250 -0.5814
  127MOL   C24343335   3.320   0.999   4.880  0.5198  0.3729  0.3114
  127MOL   C24443336   3.456   1.054   4.863 -0.1110 -0.2282  0.0627
  127MOL   C24543337   3.557   0.941   4.866  0.0922  0.4060 -0.2401
  127MOL   C24643338   3.462   0.812   4.871 -0.6607  0.1877 -0.4346
  127MOL   O24743339   3.508   0.701   4.895  0.3262  0.9557  0.4026
  127MOL   H24843340   3.255   0.594   4.987  0.2249 -0.4527 -2.0504
  127MOL   H24943341   3.270   0.736   5.086  0.6557  0.2393 -0.5402
  127MOL   H25043342   3.131   0.840   4.861  1.2686  0.8284 -1.1055
  127MOL   H25143343   3.257   1.041   4.802 -0.7620 -0.0677  1.0961
  127MOL   H25243344   3.279   1.017   4.979 -0.7052  0.3957 -0.1981
  127MOL   H25343345   3.469   1.077   4.757  0.3423  1.8374  0.5320
  127MOL   H25443346   3.477   1.147   4.917 -1.1885 -0.8216  1.5361
  127MOL   H25543347   3.627   0.936   4.782  1.1142  3.0611  0.4169
  127MOL   H25643348   3.613   0.934   4.959  2.8512  0.6344 -1.8252
  127MOL   C25743349   3.181   0.675   4.751 -0.4855 -0.4029 -0.0734
  127MOL   C25843350   3.168   0.757   4.620 -0.4375 -0.5142 -0.0477
  127MOL   N25943351   3.276   0.730   4.524 -0.0939 -0.3054  0.2214
  127MOL   C26043352   3.380   0.827   4.493  0.3041 -0.1200  0.0680
  127MOL   C26143353   3.464   0.772   4.383 -0.3121  0.6345  0.6351
  127MOL   C26243354   3.424   0.623   4.369  0.3607 -0.0872  0.3780
  127MOL   C26343355   3.297   0.614   4.461  0.5382  0.0808  0.3991
  127MOL   O26443356   3.226   0.511   4.465  0.2978  0.0020 -0.0438
  127MOL   H26543357   3.091   0.615   4.766 -1.3201  0.5961 -0.9988
  127MOL   H26643358   3.266   0.607   4.749  1.6005  2.1382  0.1510
  127MOL   H26743359   3.179   0.865   4.635  0.4253 -0.5039 -0.7244
  127MOL   H26843360   3.334   0.918   4.455  0.6863 -0.0263 -0.1730
  127MOL   H26943361   3.438   0.871   4.575  0.2645  1.7607 -0.8731
  127MOL   H27043362   3.433   0.822   4.291  1.0200 -1.8146 -1.1863
  127MOL   H27143363   3.572   0.780   4.390  0.2480 -1.7561 -3.7297
  127MOL   H27243364   3.408   0.620   4.261  2.5862  1.6154 -0.0423
  127MOL   H27343365   3.498   0.551   4.402  1.3685 -0.1945 -2.0453
  127MOL   C27443366   3.038   0.746   4.540 -0.5184  0.7636 -0.5281
  127MOL   C27543367   2.922   0.825   4.595  0.5785  0.0149 -0.5612
  127MOL   N27643368   2.944   0.973   4.598 -0.5523  0.2176 -0.2874
  127MOL   C27743369   2.933   1.039   4.725  0.1409 -0.0427 -0.0623
  127MOL   C27843370   2.987   1.181   4.694  0.1225  0.3609 -0.0661
  127MOL   C27943371   3.026   1.185   4.545  0.1586 -0.6440  0.4171
  127MOL   C28043372   2.983   1.050   4.494  0.8242  0.5216 -0.6741
  127MOL   O28143373   2.989   1.015   4.375  0.7635  0.5867  0.2694
  127MOL   H28243374   3.009   0.641   4.533  3.5561 -0.7854  3.2253
  127MOL   H28343375   3.044   0.772   4.435 -3.3780 -1.7844 -1.4133
  127MOL   H28443376   2.904   0.802   4.700 -0.4905  0.9054 -0.5362
  127MOL   H28543377   2.831   1.031   4.760 -0.0099 -1.6218 -0.8273
  127MOL   H28643378   3.001   0.983   4.790  0.1524  1.2440  1.0406
  127MOL   H28743379   2.914   1.258   4.717  0.9839  0.8615  1.0531
  127MOL   H28843380   3.070   1.198   4.762  0.7036 -0.7277 -0.4883
  127MOL   H28943381   2.964   1.263   4.499 -2.1818 -1.7121  1.6749
  127MOL   H29043382   3.123   1.218   4.507 -1.0265  2.6640  0.1021
  127MOL   C29143383   2.804   0.794   4.502 -0.6366  0.2253 -0.1020
  127MOL   C29243384   2.741   0.658   4.524 -0.7000  0.2447 -0.2097
  127MOL   N29343385   2.681   0.644   4.653  0.3489  0.1443  0.0587
  127MOL   C29443386   2.713   0.535   4.738 -0.5274 -0.0023 -0.1153
  127MOL   C29543387   2.628   0.552   4.866 -0.1988 -0.1121 -0.0632
  127MOL   C29643388   2.554   0.681   4.841 -0.1620  0.0248 -0.3285
  127MOL   C29743389   2.588   0.725   4.707  0.1774  0.2928 -0.7687
  127MOL   O29843390   2.538   0.828   4.662  0.1077 -0.1227 -0.4284
  127MOL   H29943391   2.846   0.804   4.401  0.7723 -0.3710  0.4093
  127MOL   H30043392   2.733   0.876   4.513  0.0620  0.5562  2.3231
  127MOL   H30143393   2.810   0.575   4.514 -1.4665 -0.3496 -0.6183
  127MOL   H30243394   2.692   0.443   4.683 -1.5728 -0.5705  1.2276
  127MOL   H30343395   2.820   0.528   4.757 -0.7490  1.5475  1.8792
  127MOL   H30443396   2.556   0.474   4.889 -4.0152  2.8574 -1.5285
  127MOL   H30543397   2.700   0.567   4.946  0.8955 -0.8479 -0.8937
  127MOL   H30643398   2.447   0.672   4.857 -0.4013  0.0796 -1.8088
  127MOL   H30743399   2.592   0.752   4.915  0.6927 -0.1243 -0.6118
  127MOL   C30843400   2.637   0.636   4.414 -0.2311 -0.0244 -0.2626
  127MOL   C30943401   2.696   0.620   4.265 -0.6362  0.6854  0.6832
  127MOL   N31043402   2.790   0.503   4.261  0.3941  0.2532 -0.4207
  127MOL   C31143403   2.927   0.522   4.201  0.0948  0.6185 -0.3209
  127MOL   C31243404   2.988   0.382   4.197 -0.4989  0.9435 -0.0477
  127MOL   C31343405   2.903   0.304   4.301  0.0154  0.0438  0.1607
  127MOL   C31443406   2.772   0.383   4.313  0.2570 -0.7086 -0.3536
  127MOL   O31543407   2.671   0.338   4.366 -0.0226 -0.5758 -0.3276
  127MOL   H31643408   2.569   0.721   4.404  1.7967  1.6451 -0.0873
  127MOL   H31743409   2.570   0.555   4.444 -1.2314  1.3573  1.2997
  127MOL   H31843410   2.754   0.711   4.246  1.8476 -1.0368 -0.1649
  127MOL   H31943411   2.911   0.562   4.101 -0.2430  0.4114 -0.3533
  127MOL   H32043412   2.986   0.592   4.259 -0.4855  0.8775 -0.0391
  127MOL   H32143413   2.971   0.324   4.106  3.1354 -0.8718  0.3422
  127MOL   H32243414   3.092   0.385   4.229 -0.6413  2.7857  0.2758
  127MOL   H32343415   2.876   0.207   4.259  1.2524  0.3226 -1.3405
  127MOL   H32443416   2.947   0.296   4.401 -0.9179 -0.5986  0.5219
  127MOL   C32543417   2.585   0.595   4.159 -0.5140 -0.3471  0.1926
  127MOL   C32643418   2.506   0.721   4.114 -0.2168  0.9118 -0.3041
  127MOL   N32743419   2.379   0.744   4.182 -0.2105  0.3370 -0.0552
  127MOL   C32843420   2.358   0.876   4.239  0.0663  0.0441  0.0906
  127MOL   C32943421   2.212   0.890   4.229 -0.2633 -0.0557  0.4530
  127MOL   C33043422   2.145   0.750   4.219  0.2132  0.0071  0.3008
  127MOL   C33143423   2.266   0.668   4.178 -0.2100 -0.5241 -0.3951
  127MOL   O33243424   2.254   0.554   4.138  0.3867  0.6550 -0.0488
  127MOL   H33343425   2.515   0.520   4.196  0.3990 -0.0331  2.6774
  127MOL   H33443426   2.633   0.547   4.074  0.5686  2.9157 -1.1078
  127MOL   H33543427   2.483   0.707   4.009  2.6082 -0.9667 -0.7225
  127MOL   H33643428   2.390   0.857   4.341  0.7672  1.0675  0.0736
  127MOL   H33743429   2.416   0.961   4.203 -0.3482  0.7114  0.9970
  127MOL   H33843430   2.170   0.945   4.313  0.9338  0.8605  0.4748
  127MOL   H33943431   2.175   0.956   4.151 -0.5954 -1.5509 -0.6643
  127MOL   H34043432   2.107   0.708   4.313  1.7000 -2.1511 -0.0179
  127MOL   H34143433   2.068   0.754   4.142  0.7812 -0.9648 -0.3246
  127MOL   H34243434   2.565   0.812   4.124 -0.7038  1.1432  0.6023
  128MOL     C143435   7.833   7.053   5.298 -0.7967 -0.7156  0.2442
  128MOL     C243436   7.818   7.150   5.177 -0.2830 -0.4753  0.0985
  128MOL     N343437   0.041   7.159   5.105  0.1247  0.3604 -0.3681
  128MOL     C443438   0.099   7.285   5.069 -0.0464 -0.6694  0.2628
  128MOL     C543439   0.216   7.247   4.976 -0.1613 -0.1031  0.8262
  128MOL     C643440   0.226   7.099   4.982 -0.3552 -0.1138 -0.2649
  128MOL     C743441   0.100   7.054   5.049 -0.4424 -0.1652 -0.0159
  128MOL     O843442   0.066   6.936   5.056 -0.3054 -0.3099 -0.0670
  128MOL     H943443   7.855   6.948   5.279  0.4392 -0.3307 -0.5015
  128MOL    H1043444   0.002   7.073   5.374  0.6986  1.4471 -1.7370
  128MOL    H1143445   7.803   7.249   5.220 -0.1198 -1.0407  1.4997
  128MOL    H1243446   0.027   7.356   5.027 -0.7219 -0.5281  1.6429
  128MOL    H1343447   0.144   7.344   5.150 -1.9623 -0.6029  1.3121
  128MOL    H1443448   0.189   7.275   4.874  2.2334 -2.8412 -0.6550
  128MOL    H1543449   0.298   7.317   4.996  0.6387 -0.8135  0.0716
  128MOL    H1643450   0.253   7.055   4.886  0.3234 -1.1279  0.3790
  128MOL    H1743451   0.307   7.075   5.051 -1.2098 -1.5688  0.2421
  128MOL    H1843452   7.740   7.049   5.354 -1.1683 -0.7091 -0.3615
  128MOL    C1943453   7.702   7.112   5.090  0.4077  0.8175  0.2030
  128MOL    C2043454   7.562   7.148   5.131 -0.1452 -0.2607 -0.2485
  128MOL    N2143455   7.550   7.289   5.159 -0.5729  0.6727  0.1099
  128MOL    C2243456   7.453   7.323   5.268 -0.0487  0.3984 -0.0979
  128MOL    C2343457   7.489   7.475   5.283 -0.1829 -0.0789  0.2813
  128MOL    C2443458   7.570   7.521   5.161 -1.0219 -0.1151  0.2084
  128MOL    C2543459   7.596   7.393   5.079 -0.0724 -0.8804 -0.4103
  128MOL    O2643460   7.672   7.399   4.980  0.0037 -0.9185 -0.3410
  128MOL    H2743461   7.717   7.004   5.077 -0.7560  0.5379  1.1044
  128MOL    H2843462   7.717   7.159   4.993  1.8773 -0.4681 -0.2167
  128MOL    H2943463   7.540   7.105   5.229  0.8511  0.9597  0.5226
  128MOL    H3043464   7.349   7.304   5.241 -0.0678  1.4056 -0.7988
  128MOL    H3143465   7.485   7.261   5.351  0.0785  2.3493  1.3321
  128MOL    H3243466   7.394   7.525   5.298  0.7736  1.5936  0.8657
  128MOL    H3343467   7.552   7.479   5.372 -1.9381 -2.5164  1.6819
  128MOL    H3443468   7.529   7.604   5.104 -0.0970 -0.8384 -1.5396
  128MOL    H3543469   7.663   7.559   5.205  0.0269  0.0565 -2.0602
  128MOL    C3643470   7.455   7.105   5.028  0.4386 -0.4324 -0.2893
  128MOL    C3743471   7.410   6.955   5.064  0.1113 -0.2768 -0.8399
  128MOL    N3843472   7.334   6.957   5.192  0.2255  0.0239  0.1781
  128MOL    C3943473   7.386   6.879   5.301 -0.1142  0.2841  0.0230
  128MOL    C4043474   7.301   6.914   5.420  0.0963  0.1265 -0.6446
  128MOL    C4143475   7.195   7.016   5.363  0.1997 -0.0860 -0.5194
  128MOL    C4243476   7.229   7.040   5.223 -0.3452 -0.1154  0.2528
  128MOL    O4343477   7.164   7.115   5.151  0.0358  0.2543  0.2077
  128MOL    H4443478   7.493   7.112   4.927  1.7691  0.6001  0.2660
  128MOL    H4543479   7.367   7.169   5.021 -1.3150 -2.7115  0.3184
  128MOL    H4643480   7.499   6.892   5.074 -0.4834 -0.9837  0.1708
  128MOL    H4743481   7.377   6.771   5.286 -2.4544  0.7404 -2.2443
  128MOL    H4843482   7.487   6.911   5.321 -0.5268  1.3596  0.3986
  128MOL    H4943483   7.261   6.827   5.472 -1.8337  0.9457 -0.7219
  128MOL    H5043484   7.359   6.952   5.504 -1.3380  1.1873 -0.1151
  128MOL    H5143485   7.097   6.971   5.380 -0.2130  0.4686 -1.4564
  128MOL    H5243486   7.208   7.106   5.422 -0.9676 -1.4179  1.8613
  128MOL    C5343487   7.320   6.898   4.954  0.8007 -0.0076  0.5261
  128MOL    C5443488   7.392   6.883   4.816  0.1084 -0.0257  0.8173
  128MOL    N5543489   7.525   6.812   4.828  0.4570 -0.7555  0.7477
  128MOL    C5643490   7.646   6.890   4.796  0.4680 -0.4672  0.1361
  128MOL    C5743491   7.760   6.790   4.823 -0.2660  0.0926 -0.3125
  128MOL    C5843492   7.700   6.670   4.893  0.2270  0.4055 -0.3266
  128MOL    C5943493   7.551   6.695   4.882  0.5850  0.0507 -0.3917
  128MOL    O6043494   7.469   6.613   4.918 -0.4159  0.4048 -0.2043
  128MOL    H6143495   7.242   6.974   4.945  1.2249  0.3787  0.0103
  128MOL    H6243496   7.273   6.808   4.993  1.4938  0.5928  2.8354
  128MOL    H6343497   7.402   6.986   4.781  0.7463  0.5251  2.5347
  128MOL    H6443498   7.650   6.914   4.690 -0.5955 -0.5333  0.0747
  128MOL    H6543499   7.652   6.985   4.848 -1.6757  0.7781 -1.8131
  128MOL    H6643500   7.817   6.765   4.733 -1.2045  0.6654 -1.0760
  128MOL    H6743501   7.840   6.829   4.887 -0.7352 -3.0527  2.3103
  128MOL    H6843502   7.739   6.579   4.848  0.2577  0.7014 -0.9088
  128MOL    H6943503   7.716   6.667   5.000  0.8957 -1.5632 -0.4678
  128MOL    C7043504   7.304   6.811   4.708 -0.1318  0.1004  0.1832
  128MOL    C7143505   7.166   6.869   4.669  0.6318 -0.6169 -0.6901
  128MOL    N7243506   7.153   7.014   4.646  0.2190  0.2684  0.4437
  128MOL    C7343507   7.052   7.089   4.728  0.0141 -0.4975  0.9417
  128MOL    C7443508   7.052   7.230   4.664  0.4494 -0.2586 -0.5946
  128MOL    C7543509   7.185   7.238   4.587 -0.1833  0.2040  0.1574
  128MOL    C7643510   7.228   7.090   4.565 -0.3745 -0.0076  0.1011
  128MOL    O7743511   7.316   7.056   4.489  0.9362  0.1003  0.0533
  128MOL    H7843512   7.296   6.709   4.745  0.9056 -0.2615 -0.5786
  128MOL    H7943513   7.365   6.803   4.619  0.7249  1.4696  0.6291
  128MOL    H8043514   7.107   6.842   4.757  1.3251 -0.0685 -0.0541
  128MOL    H8143515   6.957   7.035   4.715 -0.6126  0.1189  2.9059
  128MOL    H8243516   7.092   7.081   4.829  1.3111  0.1003  0.4882
  128MOL    H8343517   6.961   7.245   4.605 -0.5303  1.7834  1.3415
  128MOL    H8443518   7.041   7.313   4.734  0.9872  0.6265 -1.5441
  128MOL    H8543519   7.171   7.292   4.494 -3.5126  0.4000  0.7084
  128MOL    H8643520   7.269   7.279   4.642 -0.0907 -0.1682  0.2986
  128MOL    C8743521   7.108   6.788   4.552  0.7870 -0.2452  0.3115
  128MOL    C8843522   6.998   6.687   4.596 -0.6599 -0.3061 -0.4193
  128MOL    N8943523   6.867   6.752   4.637 -0.1211 -0.1894  0.4678
  128MOL    C9043524   6.822   6.725   4.774 -0.6237 -0.1653  0.6156
  128MOL    C9143525   6.693   6.803   4.796  0.6588  0.2881  1.1186
  128MOL    C9243526   6.675   6.883   4.664 -0.1564 -0.3165 -0.1010
  128MOL    C9343527   6.784   6.830   4.570  0.2185 -0.3646  0.1241
  128MOL    O9443528   6.800   6.868   4.454  0.2722 -0.2581  0.1943
  128MOL    H9543529   7.185   6.732   4.499  0.2606  0.4960 -1.2464
  128MOL    H9643530   7.071   6.858   4.478 -1.0359  1.3091  2.6465
  128MOL    H9743531   7.033   6.637   4.686 -1.7455 -1.2037 -0.4785
  128MOL    H9843532   6.822   6.619   4.798  2.8228 -0.2819  0.4327
  128MOL    H9943533   6.906   6.760   4.835  0.1249 -0.4573 -0.2404
  128MOL   H10043534   6.607   6.736   4.801 -0.5717  1.8688  1.3271
  128MOL   H10143535   6.699   6.860   4.889 -1.4973 -0.6682  1.8963
  128MOL   H10243536   6.577   6.855   4.624 -0.9805 -0.7763  2.1504
  128MOL   H10343537   6.693   6.989   4.684  3.4756 -1.2349  1.8658
  128MOL   C10443538   6.971   6.576   4.491  0.2133  0.8764 -0.1139
  128MOL   C10543539   7.061   6.449   4.504  0.6639  0.5320  0.2828
  128MOL   N10643540   7.084   6.401   4.643  0.6977  0.2497 -0.5528
  128MOL   C10743541   7.217   6.395   4.706  0.5554  0.2277 -0.4812
  128MOL   C10843542   7.195   6.351   4.849 -0.4082  0.0208 -0.7162
  128MOL   C10943543   7.061   6.284   4.848  0.1931 -0.5074 -0.2976
  128MOL   C11043544   6.993   6.347   4.733 -0.5961 -0.1492  0.1957
  128MOL   O11143545   6.871   6.347   4.724  0.5781  0.1520  0.5951
  128MOL   H11243546   6.974   6.625   4.394 -1.2163  1.2149 -0.0006
  128MOL   H11343547   6.871   6.536   4.506  0.0174  1.2333 -0.4514
  128MOL   H11443548   7.160   6.484   4.473  0.7597  0.6685  0.7370
  128MOL   H11543549   7.278   6.314   4.666 -2.2809 -2.6995  0.8313
  128MOL   H11643550   7.273   6.488   4.712  3.3670 -1.4947  1.3015
  128MOL   H11743551   7.277   6.291   4.888 -0.3829 -0.1702 -1.0647
  128MOL   H11843552   7.196   6.432   4.922  1.0699 -1.8308  1.3897
  128MOL   H11943553   7.000   6.277   4.938 -0.9179 -2.0342 -1.1409
  128MOL   H12043554   7.078   6.181   4.816  2.4598 -0.5574  0.9566
  128MOL   C12143555   7.015   6.331   4.406 -1.4161  0.2633 -1.0007
  128MOL   C12243556   7.091   6.322   4.271 -0.0620 -0.2916 -0.1451
  128MOL   N12343557   7.235   6.303   4.299 -0.2718 -0.4818  0.3459
  128MOL   C12443558   7.333   6.413   4.273  0.2390 -0.1026 -0.5213
  128MOL   C12543559   7.460   6.363   4.343  0.6365 -0.6025 -0.9241
  128MOL   C12643560   7.431   6.220   4.406 -0.0774 -0.4509 -0.4518
  128MOL   C12743561   7.288   6.202   4.371  0.1004 -0.4636  1.4996
  128MOL   O12843562   7.222   6.097   4.403  0.1531 -0.8320  0.4437
  128MOL   H12943563   6.909   6.334   4.378 -1.1896 -1.2498 -2.1178
  128MOL   H13043564   7.019   6.235   4.458 -0.8672 -0.3934 -2.2246
  128MOL   H13143565   7.077   6.422   4.230  0.7652 -0.6497 -1.3515
  128MOL   H13243566   7.296   6.508   4.311  0.2980 -1.0664  2.0667
  128MOL   H13343567   7.345   6.430   4.166 -0.1241  0.2751 -0.5044
  128MOL   H13443568   7.537   6.352   4.267 -0.8481 -1.3068 -2.3662
  128MOL   H13543569   7.495   6.433   4.419  0.9162 -0.1489 -1.4661
  128MOL   H13643570   7.499   6.151   4.355  0.2913  0.6254 -1.4451
  128MOL   H13743571   7.444   6.227   4.514 -2.9434  1.1925 -0.1801
  128MOL   C13843572   7.036   6.223   4.165 -0.1037 -0.9380 -0.6610
  128MOL   C13943573   6.902   6.270   4.104 -0.5472 -0.1303  0.0547
  128MOL   N14043574   6.910   6.399   4.039  0.4880  0.1314  0.0375
  128MOL   C14143575   6.813   6.499   4.085 -0.3954  0.7778 -0.7298
  128MOL   C14243576   6.841   6.621   3.999 -0.7139  0.0920 -0.3316
  128MOL   C14343577   6.972   6.603   3.922  0.4190  0.3792  0.3011
  128MOL   C14443578   6.997   6.453   3.946  0.1809 -0.4605 -0.1488
  128MOL   O14543579   7.084   6.387   3.889 -0.0582  0.0771  0.1619
  128MOL   H14643580   7.037   6.122   4.206  1.1947 -0.4536  0.5687
  128MOL   H14743581   7.106   6.225   4.082  0.1259 -0.0786 -0.4539
  128MOL   H14843582   6.833   6.272   4.188 -2.4135 -0.0524 -1.4602
  128MOL   H14943583   6.710   6.463   4.078  0.3448 -1.3348 -0.7951
  128MOL   H15043584   6.847   6.516   4.187 -0.3430 -3.7008  0.0787
  128MOL   H15143585   6.761   6.656   3.934 -0.9849 -1.1283 -0.6561
  128MOL   H15243586   6.864   6.700   4.072 -1.6741 -0.1858  0.2829
  128MOL   H15343587   7.048   6.669   3.964  0.2903  0.1961  0.8190
  128MOL   H15443588   6.956   6.626   3.816 -0.6152 -1.1686  0.1128
  128MOL   C15543589   6.847   6.161   4.018 -0.1602 -0.0558 -0.2629
  128MOL   C15643590   6.804   6.035   4.084  1.0901  0.9862 -0.3382
  128MOL   N15743591   6.655   6.014   4.083 -0.5934  0.4046  0.2115
  128MOL   C15843592   6.602   5.957   4.203  0.0485 -0.3828  0.2143
  128MOL   C15943593   6.453   5.968   4.180  0.5908 -0.0030  0.5651
  128MOL   C16043594   6.423   6.033   4.049  0.2143  0.4932  0.1673
  128MOL   C16143595   6.561   6.049   3.990 -0.0940  0.6905  0.0234
  128MOL   O16243596   6.578   6.095   3.876  0.4873 -0.2162  0.6496
  128MOL   H16343597   6.905   6.141   3.928  1.4300  0.0621  0.7207
  128MOL   H16443598   6.759   6.206   3.972 -0.0797 -0.2969 -0.6527
  128MOL   H16543599   6.840   6.041   4.187  0.5185 -2.2354  0.1163
  128MOL   H16643600   6.638   5.855   4.216  0.4735 -0.2818 -0.1295
  128MOL   H16743601   6.636   6.009   4.293 -1.6234 -1.4230  1.4662
  128MOL   H16843602   6.395   5.880   4.205 -0.3452  0.3416 -0.3679
  128MOL   H16943603   6.414   6.036   4.256  1.1555  1.3809 -0.3530
  128MOL   H17043604   6.357   5.965   3.997  0.8592  0.2663 -0.3672
  128MOL   H17143605   6.382   6.131   4.073 -1.0997  0.4706 -1.8533
  128MOL   C17243606   6.877   5.905   4.025  0.7343 -0.2876  0.6271
  128MOL   C17343607   6.827   5.853   3.885  0.4197  0.4391 -0.5004
  128MOL   N17443608   6.941   5.807   3.798 -0.0204 -0.1272 -0.1043
  128MOL   C17543609   7.016   5.904   3.720 -0.4381 -0.7055  0.3562
  128MOL   C17643610   7.149   5.843   3.670  0.2559 -0.3310  0.1914
  128MOL   C17743611   7.119   5.698   3.697  0.2249 -0.5774 -0.4299
  128MOL   C17843612   7.008   5.690   3.794 -0.2137  0.5568 -0.2754
  128MOL   O17943613   6.976   5.588   3.858 -0.1473  0.2730  0.5825
  128MOL   H18043614   6.864   5.832   4.104  1.3145 -0.6502  0.3852
  128MOL   H18143615   6.984   5.925   4.015  0.6733 -0.7093 -1.0353
  128MOL   H18243616   6.776   5.938   3.840  0.7098  0.1790 -1.3336
  128MOL   H18343617   6.944   5.934   3.643  0.4310 -1.3999 -0.7538
  128MOL   H18443618   7.044   5.984   3.789 -0.4638  1.1743 -1.7443
  128MOL   H18543619   7.241   5.877   3.718 -0.5894  0.1242  1.5146
  128MOL   H18643620   7.171   5.843   3.563  0.2923 -1.5217  0.1926
  128MOL   H18743621   7.092   5.651   3.602  2.5502 -1.3307 -0.7349
  128MOL   H18843622   7.202   5.643   3.741  1.5736  0.7468 -1.2798
  128MOL   C18943623   6.717   5.744   3.897  0.2748 -0.1690 -0.6876
  128MOL   C19043624   6.660   5.677   3.766 -0.4029  0.2500  0.0203
  128MOL   N19143625   6.592   5.550   3.796  0.0860 -0.1162  0.2677
  128MOL   C19243626   6.670   5.429   3.775 -0.4064 -0.1803 -0.0686
  128MOL   C19343627   6.577   5.320   3.820  0.4832  1.0011 -0.2263
  128MOL   C19443628   6.462   5.385   3.899 -0.0348  0.0758 -0.1225
  128MOL   C19543629   6.483   5.530   3.869 -1.3215 -0.4081  0.1315
  128MOL   O19643630   6.409   5.615   3.914 -0.0410 -1.0611 -0.2678
  128MOL   H19743631   6.635   5.771   3.965 -0.0696 -2.0793 -0.3344
  128MOL   H19843632   6.763   5.665   3.956 -0.4028 -0.9480 -1.2062
  128MOL   H19943633   6.749   5.656   3.707 -0.7869  1.2753 -0.9276
  128MOL   H20043634   6.683   5.420   3.667  2.9147  0.9532  0.1790
  128MOL   H20143635   6.765   5.436   3.828  0.9103  2.0302 -2.6402
  128MOL   H20243636   6.531   5.265   3.738  3.0905  0.5347 -1.4370
  128MOL   H20343637   6.631   5.239   3.870  1.4114  0.0815 -2.6410
  128MOL   H20443638   6.367   5.351   3.857  0.9566 -0.9367 -1.5876
  128MOL   H20543639   6.473   5.372   4.007 -3.2129 -1.3380  0.0896
  128MOL   C20643640   6.571   5.787   3.689  0.2555  0.3057 -0.3229
  128MOL   C20743641   6.609   5.816   3.545  0.2975  0.4022  0.1813
  128MOL   N20843642   6.653   5.704   3.469 -0.1950 -0.0924  0.5282
  128MOL   C20943643   6.569   5.589   3.451  0.0328 -0.1461  0.4161
  128MOL   C21043644   6.642   5.490   3.361 -0.0092  1.1229  0.2014
  128MOL   C21143645   6.783   5.548   3.361  0.1221 -0.6554 -0.0579
  128MOL   C21243646   6.770   5.686   3.415 -0.0860  0.5713  0.0323
  128MOL   O21343647   6.859   5.772   3.409 -0.2226  0.6063  0.2798
  128MOL   H21443648   6.565   5.883   3.741  1.3481  0.2415 -0.0686
  128MOL   H21543649   6.464   5.767   3.697  0.0058  1.0147 -1.7639
  128MOL   H21643650   6.703   5.866   3.569 -0.4737  1.3333  1.3371
  128MOL   H21743651   6.533   5.545   3.545  0.0384 -0.5495  0.2300
  128MOL   H21843652   6.477   5.616   3.400  1.2051 -0.6706 -2.0136
  128MOL   H21943653   6.629   5.390   3.403  0.4161  0.5450 -1.0250
  128MOL   H22043654   6.607   5.504   3.259 -2.1956  3.7201  1.2252
  128MOL   H22143655   6.857   5.507   3.430  1.5271  0.4806 -0.8329
  128MOL   H22243656   6.818   5.544   3.258  0.6065  1.2134  0.0118
  128MOL   C22343657   6.524   5.918   3.468 -0.3571 -0.6087  0.3792
  128MOL   C22443658   6.568   5.979   3.332  0.1250 -1.0156  0.0409
  128MOL   N22543659   6.489   5.922   3.225  0.4861  0.8626  0.2500
  128MOL   C22643660   6.352   5.954   3.219  0.1070 -0.1454 -0.3451
  128MOL   C22743661   6.284   5.829   3.162  0.3523  0.3172 -0.2629
  128MOL   C22843662   6.398   5.754   3.093 -1.0929 -0.9251 -0.2067
  128MOL   C22943663   6.518   5.823   3.140 -0.1949 -0.4148 -0.1309
  128MOL   O23043664   6.633   5.787   3.112 -0.5816 -0.6047 -0.4076
  128MOL   H23143665   6.503   6.001   3.535 -0.2919  2.1607 -2.8704
  128MOL   H23243666   6.419   5.891   3.458 -0.5670  0.7986 -1.7233
  128MOL   H23343667   6.672   5.952   3.311  0.9893  0.9457  1.5903
  128MOL   H23443668   6.295   5.980   3.308 -1.1865  2.4444 -1.8602
  128MOL   H23543669   6.342   6.038   3.150  4.1773 -0.4600 -1.3981
  128MOL   H23643670   6.244   5.771   3.245 -0.4090  0.7558 -0.3188
  128MOL   H23743671   6.202   5.864   3.098 -0.1334 -0.5811 -0.1429
  128MOL   H23843672   6.395   5.648   3.121 -3.0065 -1.0935 -0.9288
  128MOL   H23943673   6.408   5.759   2.984 -2.5619  1.6979 -0.2688
  128MOL   C24043674   6.549   6.135   3.331  0.8615  0.3712  0.0402
  128MOL   C24143675   6.652   6.212   3.420 -0.0439  1.2985  0.0501
  128MOL   N24243676   6.793   6.209   3.380 -0.2956  0.0435  0.6313
  128MOL   C24343677   6.902   6.183   3.473 -0.3533  0.5152  0.5819
  128MOL   C24443678   7.027   6.142   3.390 -0.2670 -0.7735 -0.0486
  128MOL   C24543679   6.990   6.174   3.244 -0.1235  0.2393  0.0125
  128MOL   C24643680   6.842   6.214   3.251  0.1439  0.6971 -0.0617
  128MOL   O24743681   6.776   6.251   3.153  0.4393 -0.1340 -0.1984
  128MOL   H24843682   6.448   6.153   3.366  1.3642 -1.1833  2.3935
  128MOL   H24943683   6.555   6.179   3.231  1.2997 -1.9691 -1.0087
  128MOL   H25043684   6.648   6.164   3.518  1.9659 -0.6800 -0.8014
  128MOL   H25143685   6.928   6.277   3.522 -1.6857  1.9750 -1.4463
  128MOL   H25243686   6.863   6.111   3.545 -2.9755  0.7450 -0.5488
  128MOL   H25343687   7.124   6.184   3.416  0.1838 -0.5283 -2.0375
  128MOL   H25443688   7.046   6.034   3.392 -0.6409 -0.8379  0.1353
  128MOL   H25543689   7.046   6.261   3.210 -0.2646  0.8312  1.2654
  128MOL   H25643690   7.011   6.098   3.169 -0.9347  0.6608 -0.6560
  128MOL   C25743691   6.623   6.363   3.426 -0.5905  0.2048 -0.5619
  128MOL   C25843692   6.504   6.399   3.511  0.1040  0.4612  0.2751
  128MOL   N25943693   6.497   6.368   3.655  0.1335  0.0764  0.4815
  128MOL   C26043694   6.376   6.304   3.703  0.3093  0.3705 -0.1791
  128MOL   C26143695   6.363   6.354   3.842  0.2186 -0.0161 -0.7040
  128MOL   C26243696   6.502   6.407   3.886  0.5253  0.3305 -0.3377
  128MOL   C26343697   6.576   6.420   3.752  0.0116  0.1369 -0.2568
  128MOL   O26443698   6.686   6.476   3.750 -0.0697  0.0878 -0.8865
  128MOL   H26543699   6.620   6.408   3.327  1.6703  2.3899  0.3166
  128MOL   H26643700   6.706   6.405   3.482  0.0933 -1.2469 -0.4550
  128MOL   H26743701   6.418   6.344   3.474 -1.1637  1.5460  1.5448
  128MOL   H26843702   6.292   6.351   3.652  0.7014  1.9671  0.6069
  128MOL   H26943703   6.383   6.195   3.699 -1.2404  0.3472 -3.7942
  128MOL   H27043704   6.301   6.442   3.856 -1.5682 -1.3253 -0.0967
  128MOL   H27143705   6.318   6.271   3.897 -1.0093  0.4576 -0.9768
  128MOL   H27243706   6.491   6.509   3.923  0.4674  1.7624 -4.0664
  128MOL   H27343707   6.536   6.334   3.959 -0.5910 -0.2095 -0.3416
  128MOL   C27443708   6.466   6.546   3.491 -0.3705  0.3017  0.5073
  128MOL   C27543709   6.419   6.591   3.348  0.1280  0.4152  0.0913
  128MOL   N27643710   6.327   6.495   3.277 -0.3069 -0.1895 -1.0106
  128MOL   C27743711   6.365   6.456   3.142 -0.1556  0.6166  0.5510
  128MOL   C27843712   6.270   6.336   3.113  0.2153  0.2716  0.4592
  128MOL   C27943713   6.159   6.340   3.220  0.9408  0.3150  0.1761
  128MOL   C28043714   6.209   6.446   3.319 -0.5045 -0.2309 -0.2946
  128MOL   O28143715   6.155   6.475   3.421 -0.3764 -0.4662 -0.3221
  128MOL   H28243716   6.543   6.617   3.523  0.4700 -0.0007 -0.8009
  128MOL   H28343717   6.384   6.574   3.557  0.0628  3.0813 -0.0470
  128MOL   H28443718   6.504   6.600   3.280 -0.6647  0.2125 -0.9452
  128MOL   H28543719   6.341   6.545   3.083 -1.5516 -0.7132 -0.9498
  128MOL   H28643720   6.470   6.426   3.135 -1.2198 -2.9933 -1.3705
  128MOL   H28743721   6.234   6.350   3.011 -0.1745 -1.8405  0.2749
  128MOL   H28843722   6.321   6.240   3.110 -1.1850 -0.5014  0.8633
  128MOL   H28943723   6.066   6.387   3.186  1.3215 -0.5038 -2.0498
  128MOL   H29043724   6.130   6.244   3.262 -1.1322  0.0673 -1.6933
  128MOL   C29143725   6.340   6.728   3.361  0.1912 -0.0232  0.2253
  128MOL   C29243726   6.416   6.854   3.394 -0.0682  0.9326 -0.2586
  128MOL   N29343727   6.436   6.933   3.264 -0.2461 -0.5881 -0.2223
  128MOL   C29443728   6.565   6.929   3.202 -0.1984  0.1398  0.5595
  128MOL   C29543729   6.542   6.975   3.058 -0.0772 -0.1841  0.6460
  128MOL   C29643730   6.413   7.059   3.061  0.3186 -0.4209  0.2773
  128MOL   C29743731   6.348   6.997   3.184 -0.0627  0.7201  1.1526
  128MOL   O29843732   6.228   7.011   3.208 -0.2389  0.6451 -0.1120
  128MOL   H29943733   6.242   6.723   3.409  0.1440 -0.7780  0.0544
  128MOL   H30043734   6.292   6.746   3.264 -0.4166 -0.4090  0.4523
  128MOL   H30143735   6.517   6.824   3.423  0.4672  1.7192 -1.2586
  128MOL   H30243736   6.630   7.000   3.253  1.0724  0.4455 -1.4474
  128MOL   H30343737   6.619   6.835   3.209  0.6171  0.5693  0.0817
  128MOL   H30443738   6.628   7.030   3.020 -0.3176  1.1654  1.9891
  128MOL   H30543739   6.546   6.883   3.000 -0.0384 -0.3340  0.8851
  128MOL   H30643740   6.435   7.163   3.083 -0.5410  0.5006 -3.0501
  128MOL   H30743741   6.348   7.055   2.974 -1.4146  2.7651  1.3370
  128MOL   C30843742   6.346   6.937   3.503  0.0953  0.5850 -1.0284
  128MOL   C30943743   6.387   6.893   3.652  0.2405 -0.0098 -0.1961
  128MOL   N31043744   6.533   6.917   3.680 -0.8528 -1.2567 -0.1162
  128MOL   C31143745   6.625   6.815   3.714  0.8362  0.3023 -0.3911
  128MOL   C31243746   6.759   6.881   3.743 -0.3368 -0.2403  0.7167
  128MOL   C31343747   6.742   7.030   3.700  0.0703  0.0589 -0.6032
  128MOL   C31443748   6.595   7.038   3.664 -0.7302  0.0174 -0.3024
  128MOL   O31543749   6.536   7.146   3.641 -0.9322 -0.1491 -0.4682
  128MOL   H31643750   6.243   6.934   3.467  1.0056  0.0915 -3.7704
  128MOL   H31743751   6.369   7.044   3.495 -2.2084  1.4024  2.2745
  128MOL   H31843752   6.378   6.785   3.657 -0.1410 -0.0363 -1.3537
  128MOL   H31943753   6.586   6.736   3.778  0.3614  0.2899 -0.6935
  128MOL   H32043754   6.641   6.763   3.619  2.6306 -1.0474  0.6174
  128MOL   H32143755   6.782   6.862   3.847 -0.0790  0.1560  0.7352
  128MOL   H32243756   6.849   6.837   3.700 -0.6377 -1.0218  0.8816
  128MOL   H32343757   6.773   7.094   3.782  0.5091  0.7097 -1.2683
  128MOL   H32443758   6.793   7.059   3.608  0.2757  0.9072 -0.2238
  128MOL   C32543759   6.294   6.964   3.764 -0.0973  0.6441 -0.2329
  128MOL   C32643760   6.142   6.933   3.742 -0.2379 -0.2887 -0.6090
  128MOL   N32743761   6.094   6.794   3.729 -0.7462 -0.3058  0.0545
  128MOL   C32843762   5.956   6.771   3.692  0.0496 -0.6988 -0.0816
  128MOL   C32943763   5.932   6.618   3.702 -0.0666 -0.3182 -0.0118
  128MOL   C33043764   6.041   6.559   3.795 -1.1575  0.0379 -0.3525
  128MOL   C33143765   6.135   6.683   3.799 -0.0516 -0.0304  0.1482
  128MOL   O33243766   6.237   6.681   3.875  0.2655 -0.0830  0.0881
  128MOL   H33343767   6.313   7.071   3.776 -2.0585  1.1677 -1.4681
  128MOL   H33443768   6.327   6.932   3.863  2.0822  2.0764 -0.4442
  128MOL   H33543769   6.118   7.001   3.660  0.7241  2.2909  1.1611
  128MOL   H33643770   5.891   6.823   3.762 -0.0057 -2.5728  1.2694
  128MOL   H33743771   5.936   6.801   3.589 -3.1416  1.9148  1.2002
  128MOL   H33843772   5.837   6.593   3.750  0.1682 -0.8481  0.1805
  128MOL   H33943773   5.934   6.577   3.601 -1.0742  0.5714 -0.4082
  128MOL   H34043774   6.006   6.539   3.896  1.4399  0.7207  0.7123
  128MOL   H34143775   6.098   6.472   3.761 -0.7540 -0.0993  0.6635
  128MOL   H34243776   6.084   6.969   3.827 -0.0842 -2.1186  0.2907
  129MOL     C143777   6.993   3.263   5.730 -0.1151  0.5665 -0.5707
  129MOL     C243778   7.117   3.284   5.639 -0.6192 -0.2316  0.1086
  129MOL     N343779   7.073   3.309   5.496  0.1037  0.6544 -0.1875
  129MOL     C443780   7.063   3.441   5.440 -0.1072  0.5961  0.3398
  129MOL     C543781   7.029   3.415   5.288 -0.5449 -0.8106  0.2934
  129MOL     C643782   6.998   3.262   5.273 -0.3826  0.4577 -0.0719
  129MOL     C743783   7.046   3.211   5.414 -0.4604  0.2601  0.4051
  129MOL     O843784   7.062   3.087   5.439  0.3697  0.4368 -0.4357
  129MOL     H943785   7.022   3.249   5.834 -0.1831  0.9564 -0.4997
  129MOL    H1043786   6.925   3.348   5.730 -0.9419 -0.0796  0.7829
  129MOL    H1143787   7.189   3.203   5.647 -0.1384  0.1480 -0.3256
  129MOL    H1243788   6.979   3.483   5.495 -3.3301  0.2980 -4.1197
  129MOL    H1343789   7.159   3.493   5.443 -0.7359  1.7425  0.5707
  129MOL    H1443790   6.944   3.475   5.253  0.4695 -1.2407 -3.0069
  129MOL    H1543791   7.111   3.446   5.224 -1.5329 -0.2748 -0.7498
  129MOL    H1643792   6.892   3.241   5.260 -0.2047  0.3884 -1.4054
  129MOL    H1743793   7.053   3.217   5.190 -0.1269  2.3550 -0.9536
  129MOL    H1843794   6.939   3.172   5.704  3.2616 -1.5035 -0.6735
  129MOL    C1943795   7.194   3.407   5.692 -0.0669 -1.2149 -0.3405
  129MOL    C2043796   7.237   3.429   5.844 -0.5225  0.0925 -0.5210
  129MOL    N2143797   7.303   3.310   5.898  0.1459 -0.0864 -0.3865
  129MOL    C2243798   7.263   3.257   6.028 -0.1641  0.3902  0.0834
  129MOL    C2343799   7.357   3.137   6.054 -0.1934  0.1292  0.0571
  129MOL    C2443800   7.455   3.130   5.938  0.4554 -0.6538 -0.1276
  129MOL    C2543801   7.409   3.245   5.846  0.7395  0.3231  0.3883
  129MOL    O2643802   7.471   3.270   5.739 -0.6717  0.1679  0.2740
  129MOL    H2743803   7.128   3.491   5.671  0.5228 -0.6306  0.1417
  129MOL    H2843804   7.286   3.419   5.635  0.7060  1.4045  1.3582
  129MOL    H2943805   7.148   3.454   5.901 -1.4451  1.6224 -2.5891
  129MOL    H3043806   7.287   3.326   6.110  0.1621  1.6106 -1.0261
  129MOL    H3143807   7.155   3.248   6.037 -0.3921  1.8288 -1.1308
  129MOL    H3243808   7.406   3.136   6.152 -1.3455  0.5839  0.6498
  129MOL    H3343809   7.295   3.048   6.059  0.1275 -0.2290 -1.9888
  129MOL    H3443810   7.562   3.141   5.957  0.3162  1.2062 -0.3067
  129MOL    H3543811   7.444   3.032   5.892  1.4557 -1.0829  0.5402
  129MOL    C3643812   7.340   3.548   5.856 -0.4896 -0.3044 -0.3238
  129MOL    C3743813   7.281   3.688   5.838  1.2828 -0.2540  0.2480
  129MOL    N3843814   7.191   3.722   5.945  1.0662 -0.2984  0.4741
  129MOL    C3943815   7.047   3.755   5.904  0.1416  0.3100 -0.0639
  129MOL    C4043816   6.982   3.797   6.035 -0.4759  0.1873 -0.4937
  129MOL    C4143817   7.097   3.817   6.138  0.1311 -0.1192  0.3454
  129MOL    C4243818   7.211   3.743   6.076  0.4777  0.5591  0.5749
  129MOL    O4343819   7.312   3.716   6.136 -0.2090 -0.0593 -0.2306
  129MOL    H4443820   7.424   3.526   5.790  1.1796 -0.4106  1.7760
  129MOL    H4543821   7.385   3.540   5.955  1.6954 -0.2324 -1.2711
  129MOL    H4643822   7.223   3.687   5.745 -0.5565 -2.5831  1.3510
  129MOL    H4743823   7.047   3.849   5.849 -0.3813 -0.0111 -0.6213
  129MOL    H4843824   7.005   3.663   5.863  0.9311 -0.3343  0.5602
  129MOL    H4943825   6.925   3.890   6.035  0.1975  0.6437  2.6706
  129MOL    H5043826   6.914   3.721   6.071  2.3592 -1.5352  1.4197
  129MOL    H5143827   7.121   3.922   6.151  1.0360 -0.2609 -0.1269
  129MOL    H5243828   7.065   3.762   6.227 -2.1240 -0.9867 -0.9670
  129MOL    C5343829   7.394   3.794   5.829  0.3948 -0.6260  0.0336
  129MOL    C5443830   7.368   3.937   5.778  0.1913 -0.2497  0.1829
  129MOL    N5543831   7.331   4.020   5.887  0.1011  0.5155 -0.2686
  129MOL    C5643832   7.426   4.072   5.982 -0.3066  0.5395  0.6615
  129MOL    C5743833   7.346   4.156   6.078 -0.3087 -0.1870 -0.3398
  129MOL    C5843834   7.231   4.198   5.991 -0.6108 -0.1737 -0.9176
  129MOL    C5943835   7.223   4.098   5.881  0.2065  0.2198  0.5693
  129MOL    O6043836   7.134   4.090   5.794 -0.5001 -0.7399 -0.5772
  129MOL    H6143837   7.466   3.752   5.758  1.1217  2.6341 -1.2286
  129MOL    H6243838   7.453   3.791   5.920  0.5366 -1.0070 -0.0687
  129MOL    H6343839   7.295   3.921   5.699  0.1828 -0.6478  0.2695
  129MOL    H6443840   7.498   4.003   6.026 -1.4276 -0.8312  0.3659
  129MOL    H6543841   7.492   4.139   5.927  0.9485 -2.0227 -1.0406
  129MOL    H6643842   7.310   4.096   6.162  1.2453  1.5649  1.6571
  129MOL    H6743843   7.410   4.232   6.123 -0.1236 -0.4444 -0.1678
  129MOL    H6843844   7.143   4.198   6.055  0.3546 -2.0672  0.4638
  129MOL    H6943845   7.237   4.294   5.941 -1.0098  0.0259 -0.5855
  129MOL    C7043846   7.491   3.994   5.698  0.2938 -0.0180 -0.3070
  129MOL    C7143847   7.543   3.931   5.566  0.5784 -0.0324 -0.5689
  129MOL    N7243848   7.438   3.892   5.473 -0.5507 -0.3156  0.5237
  129MOL    C7343849   7.376   3.984   5.387  0.4363 -0.8894 -0.7069
  129MOL    C7443850   7.283   3.908   5.288  0.1619  0.4064  0.4864
  129MOL    C7543851   7.308   3.762   5.318 -0.4700 -0.3493  0.6492
  129MOL    C7643852   7.403   3.768   5.443 -0.6133  0.3430 -0.1682
  129MOL    O7743853   7.428   3.666   5.506  0.6301 -0.0743 -0.6538
  129MOL    H7843854   7.572   3.994   5.771  0.3710 -1.2772 -0.3740
  129MOL    H7943855   7.467   4.096   5.670  0.4721  0.0667 -0.1462
  129MOL    H8043856   7.592   3.839   5.600  0.9120 -0.1508 -1.3523
  129MOL    H8143857   7.334   4.065   5.447 -1.3888 -1.6313 -0.9239
  129MOL    H8243858   7.436   4.029   5.308  0.8885  0.0947  0.1908
  129MOL    H8343859   7.178   3.934   5.303  0.5406  2.0206  0.4429
  129MOL    H8443860   7.311   3.924   5.184 -0.8525 -0.1484  0.1200
  129MOL    H8543861   7.230   3.691   5.347  1.6578 -3.4757 -1.0035
  129MOL    H8643862   7.357   3.715   5.233  0.3169  1.1016  0.2852
  129MOL    C8743863   7.649   4.023   5.509  0.2275 -0.2307  0.4525
  129MOL    C8843864   7.761   3.966   5.423  0.6718 -0.2999  0.1995
  129MOL    N8943865   7.829   3.856   5.498 -0.0865  0.0091 -0.1647
  129MOL    C9043866   7.815   3.709   5.474  0.0318  0.5267  0.0098
  129MOL    C9143867   0.004   3.631   5.566  0.9695  0.3928  0.7068
  129MOL    C9243868   0.071   3.744   5.646  0.1588  0.4233  0.2516
  129MOL    C9343869   0.003   3.878   5.604  0.4576 -0.0741 -0.3244
  129MOL    O9443870   0.022   3.984   5.654 -0.1217 -0.1224 -0.0545
  129MOL    H9543871   7.684   4.092   5.585  0.8361  0.4524 -0.4305
  129MOL    H9643872   7.599   4.104   5.455 -1.0492  0.7787  3.0959
  129MOL    H9743873   7.836   4.045   5.410  1.8993 -1.3255  0.8512
  129MOL    H9843874   7.712   3.685   5.500  0.5211 -0.9272  0.6871
  129MOL    H9943875   7.827   3.689   5.367 -0.2305  1.1901 -0.1473
  129MOL   H10043876   7.837   3.566   5.614  0.6611  0.5550  0.4616
  129MOL   H10143877   0.077   3.583   5.501 -1.4898 -0.9721 -1.1785
  129MOL   H10243878   0.055   3.721   5.751 -2.2556 -0.2700 -0.2289
  129MOL   H10343879   0.176   3.752   5.620  0.2714  2.7185  1.2850
  129MOL   C10443880   7.709   3.925   5.285 -0.0692  0.0849  0.1744
  129MOL   C10543881   7.808   3.875   5.174 -0.3605  0.5387 -0.7616
  129MOL   N10643882   7.736   3.804   5.062  0.1205  0.5329  0.1312
  129MOL   C10743883   7.793   3.682   5.009  0.1594  0.3290  0.0030
  129MOL   C10843884   7.686   3.610   4.929 -0.5267 -0.3719  0.4198
  129MOL   C10943885   7.580   3.723   4.911 -0.4887 -0.6253 -0.4672
  129MOL   C11043886   7.621   3.835   5.005 -0.0323 -0.7679 -0.3610
  129MOL   O11143887   7.544   3.931   5.029 -0.4080  0.3993  0.5886
  129MOL   H11243888   7.654   4.011   5.245  0.6341  0.8368  0.8222
  129MOL   H11343889   7.636   3.845   5.298  0.0041  0.1162  0.7895
  129MOL   H11443890   7.885   3.803   5.204  1.1415  1.2263 -2.8636
  129MOL   H11543891   7.885   3.715   4.960  0.0873 -1.0287 -1.0821
  129MOL   H11643892   7.820   3.623   5.096  1.3973  1.9923  0.7775
  129MOL   H11743893   7.725   3.577   4.832  1.0632 -0.9415  1.2312
  129MOL   H11843894   7.638   3.528   4.982 -0.2875 -0.7432  0.0759
  129MOL   H11943895   7.476   3.691   4.921 -0.6582  0.3435  1.2186
  129MOL   H12043896   7.589   3.763   4.810 -0.9758  2.7494  0.7480
  129MOL   C12143897   7.888   3.985   5.109  0.0048 -0.0989  0.2467
  129MOL   C12243898   0.117   4.026   5.173 -0.5025  0.3857  0.8420
  129MOL   N12343899   0.207   3.910   5.177 -0.0183 -0.2217 -0.4883
  129MOL   C12443900   0.255   3.858   5.302 -0.0447  0.0394 -0.2096
  129MOL   C12543901   0.335   3.734   5.272 -0.0527  0.6460 -0.2957
  129MOL   C12643902   0.345   3.722   5.119 -0.0464 -0.4459 -0.4524
  129MOL   C12743903   0.254   3.832   5.071  0.8907  0.8676 -0.4953
  129MOL   O12843904   0.230   3.849   4.949 -0.1522  0.1164  0.0193
  129MOL   H12943905   7.821   4.068   5.085 -1.2146 -0.5214  2.1631
  129MOL   H13043906   0.007   3.961   5.005 -0.0416  2.5213 -0.4221
  129MOL   H13143907   0.101   4.060   5.275 -2.8278  1.3358  0.1956
  129MOL   H13243908   0.173   3.842   5.372 -0.6516 -1.4918 -1.2232
  129MOL   H13343909   0.307   3.945   5.342 -4.0803  1.6374  1.8050
  129MOL   H13443910   0.431   3.725   5.323 -1.4308 -0.4807  2.2256
  129MOL   H13543911   0.282   3.646   5.308 -1.2493  2.5136  2.6984
  129MOL   H13643912   0.439   3.755   5.074 -0.4619 -2.5343 -2.9812
  129MOL   H13743913   0.318   3.622   5.086 -1.2834 -0.4097  0.4515
  129MOL   C13843914   0.181   4.140   5.082  0.4075 -0.6700  0.3258
  129MOL   C13943915   0.122   4.279   5.113  0.1702 -0.2741  0.3008
  129MOL   N14043916   0.133   4.311   5.258 -0.2353  0.3946 -0.3568
  129MOL   C14143917   0.016   4.353   5.333 -0.4623 -0.2039 -0.3110
  129MOL   C14243918   0.064   4.352   5.479 -0.3587 -0.2571  0.1482
  129MOL   C14343919   0.213   4.354   5.469  0.6687  0.1309 -0.0229
  129MOL   C14443920   0.245   4.320   5.326  0.2719 -0.1272 -0.2526
  129MOL   O14543921   0.360   4.293   5.287  0.2444  0.3343 -0.5388
  129MOL   H14643922   0.179   4.119   4.976  0.5738 -0.9909  0.3856
  129MOL   H14743923   0.289   4.141   5.101  0.3383 -2.9059  1.0162
  129MOL   H14843924   0.015   4.279   5.090  0.2809  0.0722 -0.2364
  129MOL   H14943925   7.905   4.456   5.305 -0.1215 -0.4499 -1.4556
  129MOL   H15043926   7.838   4.286   5.313 -2.1168  1.6247  0.3651
  129MOL   H15143927   0.032   4.442   5.533  0.3720 -1.1814  2.1680
  129MOL   H15243928   0.037   4.262   5.534 -0.8772 -0.3339 -0.2324
  129MOL   H15343929   0.253   4.278   5.536  1.6612  0.2218 -0.4998
  129MOL   H15443930   0.264   4.447   5.494 -0.3027  0.3931  0.9780
  129MOL   C15543931   0.184   4.390   5.034 -0.5144 -0.1651 -0.2288
  129MOL   C15643932   0.144   4.399   4.887 -0.0034 -0.2471  0.0546
  129MOL   N15743933   0.026   4.481   4.871  0.3985  0.1644  0.5374
  129MOL   C15843934   7.830   4.431   4.776 -0.1702 -0.2512 -0.2633
  129MOL   C15943935   7.731   4.542   4.749 -0.5183  0.0831 -0.2960
  129MOL   C16043936   7.792   4.670   4.815 -0.0703 -0.3630 -0.2835
  129MOL   C16143937   0.004   4.613   4.892  0.7988  0.3298 -0.3531
  129MOL   O16243938   0.082   4.687   4.958  0.2734  0.6602 -0.0810
  129MOL   H16343939   0.293   4.377   5.036 -0.2921  1.5803 -1.0122
  129MOL   H16443940   0.163   4.487   5.079 -1.6448 -0.8115  0.6709
  129MOL   H16543941   0.117   4.300   4.850 -2.4807  0.8173 -1.1001
  129MOL   H16643942   7.875   4.391   4.685 -2.5568  0.7445 -1.9478
  129MOL   H16743943   7.770   4.357   4.828 -0.1152 -0.9056 -1.1138
  129MOL   H16843944   7.710   4.543   4.642  1.5909  1.1984 -0.7301
  129MOL   H16943945   7.635   4.528   4.799 -0.7891 -1.0041 -1.1253
  129MOL   H17043946   7.813   4.746   4.739 -1.5815 -0.5509 -0.9150
  129MOL   H17143947   7.732   4.719   4.892  1.5431  0.0013  0.7684
  129MOL   C17243948   0.258   4.463   4.813  0.2232  0.0161  0.2732
  129MOL   C17343949   0.374   4.365   4.775 -0.4619  0.1934  0.5250
  129MOL   N17443950   0.330   4.254   4.696  0.2931 -0.2687  0.0249
  129MOL   C17543951   0.364   4.109   4.722  0.0637  0.2396  0.0637
  129MOL   C17643952   0.267   4.029   4.633 -0.3144 -0.1276 -0.0472
  129MOL   C17743953   0.228   4.128   4.522 -0.7361 -0.1343  0.0518
  129MOL   C17843954   0.273   4.267   4.574  0.1346 -0.7840  0.2863
  129MOL   O17943955   0.250   4.369   4.508  0.1104 -0.2930 -0.3175
  129MOL   H18043956   0.288   4.554   4.865  0.4860 -0.9045  1.7587
  129MOL   H18143957   0.225   4.503   4.716  0.9110  1.6856  0.6981
  129MOL   H18243958   0.418   4.322   4.865 -2.0337  0.4499  1.4386
  129MOL   H18343959   0.468   4.082   4.704 -0.2775  0.2004 -1.9728
  129MOL   H18443960   0.334   4.079   4.822 -0.1264 -0.9695 -0.3426
  129MOL   H18543961   0.174   4.002   4.683 -0.5366 -0.7012 -0.7657
  129MOL   H18643962   0.317   3.938   4.602 -3.1698 -1.5710 -0.5874
  129MOL   H18743963   0.280   4.112   4.427 -2.0589 -1.3741 -0.4911
  129MOL   H18843964   0.122   4.123   4.497 -0.5612  2.2036 -1.3693
  129MOL   C18943965   0.499   4.437   4.711  0.7105 -0.1786 -0.3500
  129MOL   C19043966   0.563   4.525   4.816 -0.0745 -0.1558  0.0915
  129MOL   N19143967   0.625   4.455   4.929  0.0240 -0.0769  0.2202
  129MOL   C19243968   0.601   4.500   5.066  0.0757 -0.7636 -0.6418
  129MOL   C19343969   0.679   4.400   5.157  0.6297 -0.3977 -0.1708
  129MOL   C19443970   0.704   4.284   5.071  0.1185 -0.1113  1.3521
  129MOL   C19543971   0.693   4.340   4.932 -0.4250  0.8105  0.6975
  129MOL   O19643972   0.737   4.278   4.832  0.3218  0.4410  0.0018
  129MOL   H19743973   0.469   4.495   4.623 -1.7903  0.8703  1.1305
  129MOL   H19843974   0.575   4.364   4.683  0.5879  0.0313 -1.2636
  129MOL   H19943975   0.489   4.591   4.863 -0.3552  0.0513 -0.6379
  129MOL   H20043976   0.637   4.602   5.083 -1.2459 -0.4656  0.5519
  129MOL   H20143977   0.496   4.498   5.097 -0.1263  1.4947 -1.1129
  129MOL   H20243978   0.776   4.445   5.179  0.0458  0.7618  0.0703
  129MOL   H20343979   0.637   4.375   5.254  1.4647 -1.0007  0.0444
  129MOL   H20443980   0.796   4.230   5.090 -0.2546 -1.2246  0.0842
  129MOL   H20543981   0.619   4.218   5.093  0.8251 -1.7368 -0.6560
  129MOL   C20643982   0.673   4.618   4.756  0.0101  0.5838 -0.4202
  129MOL   C20743983   0.635   4.728   4.657  0.7873 -0.2728  0.5258
  129MOL   N20843984   0.509   4.796   4.697 -0.1779  0.2694 -0.0999
  129MOL   C20943985   0.396   4.789   4.600 -0.0442  0.3385  0.4901
  129MOL   C21043986   0.284   4.865   4.672 -0.7279  0.0009  0.0841
  129MOL   C21143987   0.348   4.932   4.791  0.0098  0.0348 -0.2103
  129MOL   C21243988   0.485   4.863   4.799  0.2327 -0.0241 -0.0417
  129MOL   O21343989   0.572   4.883   4.887  0.1950  0.1186 -0.0605
  129MOL   H21443990   0.751   4.561   4.704  0.3043  0.3117  0.3190
  129MOL   H21543991   0.732   4.672   4.829  1.8573  0.3794 -1.7045
  129MOL   H21643992   0.607   4.681   4.562 -0.6956  0.1068  0.7629
  129MOL   H21743993   0.438   4.828   4.507 -1.0494  2.1114  0.7702
  129MOL   H21843994   0.362   4.686   4.589 -2.9101  1.1004  1.8505
  129MOL   H21943995   0.226   4.931   4.608  0.4668 -0.5356 -1.5915
  129MOL   H22043996   0.216   4.788   4.709 -0.9485  0.0922 -0.1379
  129MOL   H22143997   0.363   5.038   4.771  0.2522 -0.2816 -1.8217
  129MOL   H22243998   0.286   4.922   4.880 -0.9630 -0.3445 -0.9116
  129MOL   C22343999   0.738   4.841   4.611 -0.2462 -0.8686  0.0391
  129MOL   C22444000   0.838   4.799   4.506 -0.2221 -0.2098 -0.2499
  129MOL   N22544001   0.779   4.748   4.383  0.0506  0.6867 -0.1908
  129MOL   C22644002   0.818   4.613   4.348 -0.1011  0.1040  0.0504
  129MOL   C22744003   0.751   4.583   4.215 -0.1752 -0.4843  1.3865
  129MOL   C22844004   0.648   4.693   4.189  0.1914 -0.7439  0.5882
  129MOL   C22944005   0.682   4.796   4.305 -0.9679  0.0868 -0.2105
  129MOL   O23044006   0.625   4.905   4.310  0.9854 -0.6170 -0.5192
  129MOL   H23144007   0.795   4.863   4.701 -0.5727 -0.4008  0.1325
  129MOL   H23244008   0.692   4.934   4.580 -1.3751 -1.0420  1.1512
  129MOL   H23344009   0.905   4.723   4.545  1.0308  1.1611  0.3472
  129MOL   H23444010   0.927   4.615   4.343  0.0075  1.0067  2.1169
  129MOL   H23544011   0.793   4.550   4.433 -0.8999  0.7986  0.3359
  129MOL   H23644012   0.828   4.576   4.138 -0.6574 -0.3124  0.8882
  129MOL   H23744013   0.697   4.488   4.217  0.0023 -0.6368 -0.3049
  129MOL   H23844014   0.662   4.747   4.095  0.2598 -0.8176  0.5566
  129MOL   H23944015   0.545   4.659   4.204 -0.3758  0.3503 -0.6733
  129MOL   C24044016   0.943   4.912   4.476  0.8499  0.4536  0.2528
  129MOL   C24144017   1.048   4.927   4.591 -0.1496  0.1930  0.2458
  129MOL   N24244018   1.180   4.855   4.561 -0.0607  0.4010 -0.6230
  129MOL   C24344019   1.231   4.765   4.664 -1.0061 -0.1291  0.0582
  129MOL   C24444020   1.375   4.746   4.629 -0.1230 -0.2701  0.0863
  129MOL   C24544021   1.388   4.773   4.472  1.1276 -0.4060 -0.1551
  129MOL   C24644022   1.267   4.869   4.458  0.4934  1.3047  0.2588
  129MOL   O24744023   1.251   4.941   4.359  0.4858  0.0485 -0.4432
  129MOL   H24844024   0.882   5.002   4.474 -1.9591 -1.1986  3.7253
  129MOL   H24944025   0.989   4.909   4.378 -0.0705 -0.2410 -0.1600
  129MOL   H25044026   1.008   4.890   4.686 -1.1966  1.0258  0.1407
  129MOL   H25144027   1.229   4.808   4.765  0.9644 -0.2640  0.1638
  129MOL   H25244028   1.181   4.669   4.678 -1.9343  0.4012  0.5137
  129MOL   H25344029   1.436   4.823   4.676 -0.7544  0.6673 -0.6173
  129MOL   H25444030   1.408   4.647   4.663  0.5356 -0.3197 -0.6701
  129MOL   H25544031   1.476   4.819   4.428  0.4539  0.9740 -0.0885
  129MOL   H25644032   1.363   4.686   4.412 -0.8193  0.3803 -0.5202
  129MOL   C25744033   1.084   5.077   4.609  0.6217  0.1945 -0.7878
  129MOL   C25844034   0.993   5.175   4.686  0.1838  0.4678  0.6583
  129MOL   N25944035   0.951   5.111   4.812 -0.5739  0.5309  0.6953
  129MOL   C26044036   0.815   5.125   4.868 -0.2333 -0.7207 -0.4029
  129MOL   C26144037   0.821   5.047   5.009 -0.2552  0.1446 -0.4328
  129MOL   C26244038   0.965   4.997   5.019 -0.0533  0.3782  0.5624
  129MOL   C26344039   1.032   5.059   4.905  0.7154  0.0696 -0.3898
  129MOL   O26444040   1.151   5.048   4.906 -0.1108 -0.4597 -0.1304
  129MOL   H26544041   1.104   5.108   4.507  0.5962  2.4159 -0.1535
  129MOL   H26644042   1.187   5.085   4.644 -0.2490 -0.9615  2.2143
  129MOL   H26744043   0.906   5.199   4.625 -1.6168 -0.1548  2.8889
  129MOL   H26844044   0.792   5.229   4.890 -1.1054 -0.9933  0.0296
  129MOL   H26944045   0.755   5.076   4.792  0.9960 -2.7513 -0.1018
  129MOL   H27044046   0.812   5.120   5.089  0.6449  0.2428 -0.4080
  129MOL   H27144047   0.748   4.969   5.031 -0.8868  0.8963  0.1273
  129MOL   H27244048   1.016   5.029   5.109  0.8123 -0.7057  0.4565
  129MOL   H27344049   0.956   4.889   5.026  2.2241  0.1553  0.2706
  129MOL   C27444050   1.068   5.311   4.720  0.5875  0.1971 -0.0946
  129MOL   C27544051   1.047   5.433   4.621  0.3238  0.4387 -0.8586
  129MOL   N27644052   1.067   5.398   4.482 -0.1710  0.4142 -0.1610
  129MOL   C27744053   1.198   5.361   4.443 -0.2698 -0.1516  0.0224
  129MOL   C27844054   1.198   5.344   4.293 -0.1592 -0.4461 -0.7565
  129MOL   C27944055   1.043   5.355   4.260 -1.1590  0.3123 -0.7971
  129MOL   C28044056   0.977   5.403   4.384  1.2363 -0.3702  0.1047
  129MOL   O28144057   0.862   5.436   4.394  0.4123  0.0931  0.4268
  129MOL   H28244058   1.173   5.281   4.728  0.3088 -0.2030  2.5741
  129MOL   H28344059   1.048   5.332   4.825  2.3526  1.4599  0.0177
  129MOL   H28444060   1.136   5.493   4.639 -0.6226  0.9803  2.2860
  129MOL   H28544061   1.275   5.436   4.463 -2.0547  1.3703  1.2982
  129MOL   H28644062   1.231   5.275   4.501  1.9834  0.2670 -0.5908
  129MOL   H28744063   1.268   5.412   4.245  0.0045  0.8773  1.2956
  129MOL   H28844064   1.218   5.241   4.262 -0.1772 -0.5497 -0.4335
  129MOL   H28944065   1.023   5.417   4.172  0.2915 -1.8488 -2.7226
  129MOL   H29044066   0.999   5.260   4.230 -0.1354  0.1349 -1.7653
  129MOL   C29144067   0.921   5.519   4.652  0.1259  0.2710 -0.3476
  129MOL   C29244068   0.924   5.605   4.778 -0.8205 -0.3191  0.1332
  129MOL   N29344069   1.040   5.698   4.780 -0.7770  0.8442  0.4082
  129MOL   C29444070   1.086   5.767   4.667 -0.4180 -0.3787  0.6535
  129MOL   C29544071   1.196   5.861   4.715  0.3720 -0.2971  0.3273
  129MOL   C29644072   1.205   5.841   4.866 -0.3336  0.1635 -0.6926
  129MOL   C29744073   1.103   5.735   4.896  0.2996  0.7687  0.1780
  129MOL   O29844074   1.089   5.681   5.011  0.2046 -0.5583 -0.3264
  129MOL   H29944075   0.829   5.462   4.642  1.3787 -2.1435  1.5093
  129MOL   H30044076   0.906   5.584   4.565  1.8482 -0.4074 -1.1852
  129MOL   H30144077   0.944   5.529   4.854 -0.5688 -0.0317  0.3557
  129MOL   H30244078   1.125   5.694   4.596  1.0136  1.3406 -0.3739
  129MOL   H30344079   1.006   5.819   4.614  0.2462 -0.9607 -0.9582
  129MOL   H30444080   1.290   5.832   4.667  0.6411  2.1017 -0.6599
  129MOL   H30544081   1.170   5.966   4.697 -1.0574 -0.8301 -0.7717
  129MOL   H30644082   1.304   5.806   4.894  0.4492  1.6654 -1.5117
  129MOL   H30744083   1.181   5.940   4.906  1.4717  0.4411 -0.2788
  129MOL   C30844084   0.788   5.682   4.803 -0.2260  0.7777 -0.1027
  129MOL   C30944085   0.669   5.606   4.875 -0.0938 -0.5302 -0.0879
  129MOL   N31044086   0.654   5.668   5.010  0.1270 -0.2061 -0.2809
  129MOL   C31144087   0.730   5.624   5.122 -0.9847 -0.0962  0.1764
  129MOL   C31244088   0.722   5.721   5.237  0.3664  0.2497  0.4175
  129MOL   C31344089   0.613   5.818   5.193 -0.1467 -0.0808 -0.1517
  129MOL   C31444090   0.599   5.785   5.047  0.2571 -0.7267 -0.7247
  129MOL   O31544091   0.528   5.861   4.982 -0.3092 -0.1921 -0.0224
  129MOL   H31644092   0.762   5.741   4.714  2.4890  0.3424 -1.2601
  129MOL   H31744093   0.815   5.771   4.861 -0.0689  0.6349  0.0427
  129MOL   H31844094   0.692   5.502   4.896 -2.5973 -1.3305 -1.0767
  129MOL   H31944095   0.701   5.522   5.148  0.1328  0.0157  1.9246
  129MOL   H32044096   0.832   5.620   5.083  0.3903  2.4727  3.2141
  129MOL   H32144097   0.702   5.668   5.330  0.6859 -3.2962 -1.4386
  129MOL   H32244098   0.807   5.789   5.237  1.0084 -0.5340  0.3495
  129MOL   H32344099   0.512   5.810   5.233 -0.1486  2.6110  0.5272
  129MOL   H32444100   0.647   5.920   5.214 -0.8937  0.4741 -1.5643
  129MOL   C32544101   0.537   5.608   4.788  0.4751  0.2145 -1.1090
  129MOL   C32644102   0.410   5.552   4.852 -0.7873 -0.2731 -0.0484
  129MOL   N32744103   0.420   5.430   4.936  0.8456 -0.3544 -0.2636
  129MOL   C32844104   0.369   5.427   5.076 -0.1963 -0.3499  0.1251
  129MOL   C32944105   0.414   5.290   5.140  0.2980  0.1100  0.1084
  129MOL   C33044106   0.452   5.208   5.012 -0.4585  0.0144 -0.0798
  129MOL   C33144107   0.454   5.311   4.898 -0.2743  0.0285 -0.0226
  129MOL   O33244108   0.492   5.282   4.788  0.0815  0.8249  0.1542
  129MOL   H33344109   0.556   5.556   4.694  2.8742  0.4299 -0.7535
  129MOL   H33444110   0.516   5.713   4.765  0.5990  1.0524  2.3028
  129MOL   H33544111   0.316   5.560   4.797 -1.1285  1.8722  0.8129
  129MOL   H33644112   0.402   5.515   5.130 -0.8220  2.0166 -3.2026
  129MOL   H33744113   0.260   5.428   5.062 -0.5185 -3.3071  2.0189
  129MOL   H33844114   0.503   5.314   5.198  0.0965 -0.1211  0.5083
  129MOL   H33944115   0.333   5.246   5.197  0.4267 -0.6810 -0.3161
  129MOL   H34044116   0.547   5.155   5.014 -1.1299 -1.1590  1.2374
  129MOL   H34144117   0.381   5.132   4.980  1.8466 -2.2170 -0.0770
  129MOL   H34244118   0.391   5.640   4.913 -3.5194  0.3798 -1.7693
  130MOL     C144119   5.992   5.930   3.340  0.1095  0.0517  0.2227
  130MOL     C244120   5.918   5.900   3.472  0.0158 -0.0730 -0.1619
  130MOL     N344121   6.012   5.888   3.586 -0.2845 -0.1418  0.0032
  130MOL     C444122   5.969   5.791   3.686 -0.5124 -0.4276 -1.2226
  130MOL     C544123   6.061   5.815   3.800 -0.1257 -0.0803 -0.4065
  130MOL     C644124   6.171   5.921   3.756  0.5602  0.5018  0.0937
  130MOL     C744125   6.110   5.970   3.628  0.5366 -0.0636 -0.6309
  130MOL     O844126   6.150   6.074   3.575 -0.3888  0.1726 -0.3327
  130MOL     H944127   6.059   6.016   3.335 -2.8427  2.4233 -0.1805
  130MOL    H1044128   6.048   5.837   3.327 -0.7296 -0.2639 -1.2474
  130MOL    H1144129   5.877   5.800   3.466 -0.5415  0.1855 -0.7629
  130MOL    H1244130   5.866   5.786   3.723 -0.0553  0.1326  0.1510
  130MOL    H1344131   5.989   5.691   3.646  0.1054 -1.4231  1.4589
  130MOL    H1444132   6.001   5.855   3.881  1.5960  1.6274  0.0621
  130MOL    H1544133   6.102   5.720   3.835  0.2816 -0.0638 -0.8308
  130MOL    H1644134   6.202   6.001   3.824 -0.3397 -0.3286  1.5149
  130MOL    H1744135   6.263   5.870   3.726  0.7505  0.4604  0.7300
  130MOL    H1844136   5.920   5.926   3.258 -0.3782 -1.1541  0.7009
  130MOL    C1944137   5.811   6.006   3.507  0.3383  0.4191 -0.2474
  130MOL    C2044138   5.703   6.046   3.400 -1.1197  0.8053 -0.2662
  130MOL    N2144139   5.662   5.928   3.324  0.6828 -0.2632 -0.2040
  130MOL    C2244140   5.652   5.937   3.175  0.2237 -0.5545 -0.4775
  130MOL    C2344141   5.586   5.804   3.133  0.1465  0.1616 -0.2825
  130MOL    C2444142   5.576   5.718   3.257 -0.4069 -0.1238  0.0833
  130MOL    C2544143   5.617   5.811   3.368 -0.4074 -0.3653 -0.2935
  130MOL    O2644144   5.609   5.776   3.492  0.7734 -0.1176 -0.3846
  130MOL    H2744145   5.863   6.097   3.538  0.0999 -0.3287  2.5701
  130MOL    H2844146   5.767   5.967   3.599  2.5159 -1.1710  0.1660
  130MOL    H2944147   5.742   6.120   3.330 -0.4292  0.0827 -0.6601
  130MOL    H3044148   5.608   6.026   3.130 -0.0233  0.3367  1.4901
  130MOL    H3144149   5.749   5.930   3.126  0.3339  1.5175 -0.5656
  130MOL    H3244150   5.486   5.820   3.093  0.4999 -1.7124 -1.9943
  130MOL    H3344151   5.639   5.755   3.052 -1.1352 -2.0181  0.1592
  130MOL    H3444152   5.475   5.682   3.275  0.4552 -2.3593  0.6172
  130MOL    H3544153   5.622   5.619   3.257  1.1312  0.5419  2.4351
  130MOL    C3644154   5.577   6.103   3.477  0.2927 -0.5401 -0.2649
  130MOL    C3744155   5.592   6.228   3.562  0.4887  0.2129 -0.2025
  130MOL    N3844156   5.629   6.337   3.475  0.0876 -0.1708 -0.1519
  130MOL    C3944157   5.759   6.403   3.503 -0.7027  0.3491  0.2368
  130MOL    C4044158   5.765   6.526   3.407 -0.3811 -0.2505 -0.3771
  130MOL    C4144159   5.639   6.509   3.319 -0.1119  0.2990 -0.7411
  130MOL    C4244160   5.559   6.398   3.383 -0.0226  0.0262  0.4743
  130MOL    O4344161   5.448   6.359   3.341 -0.3175  0.0671 -0.3472
  130MOL    H4444162   5.531   6.030   3.544  0.7971  0.8341  1.6171
  130MOL    H4544163   5.506   6.123   3.396  0.3073 -0.8840 -0.3640
  130MOL    H4644164   5.675   6.207   3.629  0.0517 -0.3165  0.1817
  130MOL    H4744165   5.770   6.430   3.608  1.3694 -0.3345  0.2155
  130MOL    H4844166   5.845   6.345   3.470 -0.0394  1.4628 -0.0289
  130MOL    H4944167   5.756   6.618   3.464  1.9590 -1.1779  1.5438
  130MOL    H5044168   5.860   6.533   3.355  0.6484 -1.2619  1.3460
  130MOL    H5144169   5.576   6.595   3.296  1.9472  1.3473 -2.7762
  130MOL    H5244170   5.688   6.469   3.230  2.9370  1.2040  0.4552
  130MOL    C5344171   5.472   6.269   3.656  0.1031  0.3107  0.1845
  130MOL    C5444172   5.431   6.168   3.761  0.6177  0.7129  0.1877
  130MOL    N5544173   5.556   6.124   3.829 -0.4755  0.5840 -0.5685
  130MOL    C5644174   5.588   5.983   3.853 -0.1722 -0.0713  0.1127
  130MOL    C5744175   5.718   5.982   3.940  0.0924  0.2168 -0.1479
  130MOL    C5844176   5.736   6.121   3.987  0.2854 -0.3045  0.3568
  130MOL    C5944177   5.639   6.201   3.908  0.2784  0.3289  0.8610
  130MOL    O6044178   5.630   6.324   3.922 -0.2710 -0.6203 -0.4028
  130MOL    H6144179   5.381   6.292   3.600 -0.6250  1.0169  1.6416
  130MOL    H6244180   5.495   6.363   3.706  0.7130  0.5311 -0.5004
  130MOL    H6344181   5.391   6.082   3.706  1.5764  1.7654 -2.2151
  130MOL    H6444182   5.506   5.925   3.895  0.0403 -1.9199 -1.9151
  130MOL    H6544183   5.595   5.932   3.757 -1.5961  1.3754 -0.7821
  130MOL    H6644184   5.712   5.917   4.027 -1.3817  2.2263  1.3213
  130MOL    H6744185   5.795   5.949   3.871 -0.5834  1.6476 -1.6139
  130MOL    H6844186   5.703   6.127   4.091  0.1552 -2.4450  0.4641
  130MOL    H6944187   5.840   6.150   3.976 -0.2507  1.0115 -1.3736
  130MOL    C7044188   5.322   6.247   3.845 -0.3309 -0.0490 -0.1702
  130MOL    C7144189   5.250   6.158   3.955 -0.0218 -0.4226  0.7171
  130MOL    N7244190   5.256   6.232   4.082  0.3878  0.2534  0.3445
  130MOL    C7344191   5.349   6.189   4.185  0.3230 -0.1362  0.0180
  130MOL    C7444192   5.348   6.297   4.289  0.2914  0.3659 -0.5888
  130MOL    C7544193   5.264   6.406   4.227  0.0112  0.0914 -0.7114
  130MOL    C7644194   5.205   6.349   4.103 -0.4299  0.1706  0.2316
  130MOL    O7744195   5.137   6.412   4.024 -0.8585  0.5813 -0.5048
  130MOL    H7844196   5.245   6.278   3.775  0.8336 -1.2784 -2.0120
  130MOL    H7944197   5.359   6.342   3.884  1.5352 -0.5592 -0.6144
  130MOL    H8044198   5.303   6.064   3.969 -0.3747 -0.4131  2.1569
  130MOL    H8144199   5.334   6.085   4.214  0.7891 -0.8546 -2.1827
  130MOL    H8244200   5.449   6.169   4.145  1.3745  2.8076  1.0405
  130MOL    H8344201   5.307   6.253   4.380  0.6129 -1.0805 -1.1287
  130MOL    H8444202   5.453   6.325   4.302  0.2781 -0.2309  0.9092
  130MOL    H8544203   5.176   6.427   4.289  0.2988  1.1242 -0.6333
  130MOL    H8644204   5.316   6.498   4.201 -1.9254  1.6430  0.7138
  130MOL    C8744205   5.102   6.118   3.916 -0.3341  0.7778 -0.0197
  130MOL    C8844206   5.098   6.003   3.819  0.3948  0.2686 -0.2041
  130MOL    N8944207   5.121   5.874   3.885 -0.1133 -0.0104  0.2261
  130MOL    C9044208   5.230   5.789   3.834  0.3303  0.1737 -0.4842
  130MOL    C9144209   5.225   5.663   3.927  0.6220  0.1532 -0.4701
  130MOL    C9244210   5.092   5.664   3.994 -0.7821  0.0256 -1.1907
  130MOL    C9344211   5.051   5.807   3.978  0.1800 -0.1876 -0.6852
  130MOL    O9444212   4.955   5.856   4.035 -0.1186  0.1745 -0.3767
  130MOL    H9544213   5.039   6.195   3.870  0.3815  0.5411 -1.4364
  130MOL    H9644214   5.041   6.084   4.000 -0.4710 -0.9079 -0.7769
  130MOL    H9744215   5.163   6.003   3.732  1.6919  1.7178  0.7425
  130MOL    H9844216   5.196   5.759   3.735  1.1752  0.5341 -0.8946
  130MOL    H9944217   5.324   5.845   3.841  1.2904 -1.5180  0.4116
  130MOL   H10044218   5.257   5.574   3.872  2.6763  1.3363 -1.2725
  130MOL   H10144219   5.307   5.675   3.999  1.8472 -0.8101 -1.6663
  130MOL   H10244220   5.025   5.597   3.940  0.7694 -1.6252 -1.1146
  130MOL   H10344221   5.099   5.639   4.099 -0.0167  4.2432 -0.1478
  130MOL   C10444222   4.968   6.000   3.731 -1.0257 -0.2887 -0.1889
  130MOL   C10544223   4.967   6.100   3.606  0.0774 -0.2562 -0.2520
  130MOL   N10644224   5.052   6.034   3.499 -0.0712  0.5430 -0.0455
  130MOL   C10744225   5.176   6.098   3.448  0.0009 -0.0128 -0.5429
  130MOL   C10844226   5.222   6.016   3.331 -0.2641  0.1289 -0.1788
  130MOL   C10944227   5.140   5.891   3.345 -0.3968  0.2155  0.4842
  130MOL   C11044228   5.019   5.925   3.426 -0.0146  1.1218  0.0540
  130MOL   O11144229   4.924   5.847   3.431 -0.3128  0.7027  0.4828
  130MOL   H11244230   4.882   6.007   3.797 -0.5911 -3.8538  0.8556
  130MOL   H11344231   4.952   5.897   3.700  2.0272  0.4696 -4.8191
  130MOL   H11444232   5.017   6.194   3.633  1.8547 -2.0619  3.1465
  130MOL   H11544233   5.166   6.203   3.422  1.6297 -0.1521 -1.8016
  130MOL   H11644234   5.249   6.089   3.529  1.6991  0.4125 -2.0136
  130MOL   H11744235   5.207   6.088   3.250 -0.0733  0.0665 -0.2708
  130MOL   H11844236   5.327   5.986   3.340 -1.0323 -1.7955  3.0743
  130MOL   H11944237   5.197   5.812   3.395 -1.2019 -0.9543 -0.4478
  130MOL   H12044238   5.111   5.846   3.251 -0.8842 -2.1092  1.7152
  130MOL   C12144239   4.828   6.135   3.547 -0.1505  0.0968 -0.3927
  130MOL   C12244240   4.716   6.193   3.652 -0.3501 -0.3115  0.3084
  130MOL   N12344241   4.759   6.324   3.709 -0.1167 -0.1397 -0.9870
  130MOL   C12444242   4.770   6.350   3.851  0.7527  0.6885 -0.3602
  130MOL   C12544243   4.788   6.504   3.868 -0.4248 -0.3199  0.3151
  130MOL   C12644244   4.800   6.554   3.727 -0.4800 -0.3881  0.4905
  130MOL   C12744245   4.777   6.436   3.635  0.8603  1.3109 -0.2513
  130MOL   O12844246   4.758   6.454   3.514  0.5332 -0.1326 -0.0099
  130MOL   H12944247   4.791   6.047   3.493 -1.1075  0.7448 -0.8062
  130MOL   H13044248   4.852   6.201   3.464  0.6720 -2.3777 -2.2097
  130MOL   H13144249   4.707   6.126   3.738  3.1568  1.2516  2.0391
  130MOL   H13244250   4.850   6.285   3.889 -0.4044 -1.0225 -0.7746
  130MOL   H13344251   4.675   6.319   3.894  2.4903 -2.0868  1.6973
  130MOL   H13444252   4.697   6.541   3.915  0.3362  1.1025  0.6713
  130MOL   H13544253   4.879   6.525   3.925 -0.5529 -3.3135  1.7283
  130MOL   H13644254   4.739   6.636   3.687  1.1706  0.0626 -1.2089
  130MOL   H13744255   4.905   6.578   3.708 -0.5621  0.1005  0.6331
  130MOL   C13844256   4.572   6.206   3.595 -0.2711  0.1800  0.3817
  130MOL   C13944257   4.498   6.074   3.555  0.9417  0.3191  0.8056
  130MOL   N14044258   4.515   5.972   3.656  0.2492  0.9901  0.3118
  130MOL   C14144259   4.576   5.847   3.609  0.3394 -0.1439  0.0064
  130MOL   C14244260   4.605   5.770   3.740 -0.0858  0.2499 -0.3021
  130MOL   C14344261   4.524   5.833   3.849 -0.6844  0.1970 -0.2386
  130MOL   C14444262   4.483   5.966   3.789 -0.1360 -0.2611  1.0317
  130MOL   O14544263   4.425   6.058   3.850 -0.3346  0.2188 -0.0922
  130MOL   H14644264   4.572   6.282   3.517  0.3580  1.5772  1.7162
  130MOL   H14744265   4.514   6.252   3.674  1.4037  1.4959  0.8678
  130MOL   H14844266   4.549   6.047   3.462  0.6303 -1.8629  1.2634
  130MOL   H14944267   4.510   5.787   3.547  1.4810 -2.1239  0.6827
  130MOL   H15044268   4.662   5.870   3.546 -0.0751 -0.2442 -0.5924
  130MOL   H15144269   4.581   5.664   3.732  0.6268  0.1681 -1.3569
  130MOL   H15244270   4.709   5.796   3.759 -0.6698  2.0659  0.5231
  130MOL   H15344271   4.569   5.850   3.947  0.1942 -1.0846 -0.4042
  130MOL   H15444272   4.427   5.782   3.855 -0.5104 -0.2297 -0.9890
  130MOL   C15544273   4.346   6.098   3.527 -0.2025 -0.2527  0.0660
  130MOL   C15644274   4.279   6.066   3.391 -0.4519  0.1787  0.9727
  130MOL   N15744275   4.294   5.920   3.362  1.0522 -0.1131  0.0448
  130MOL   C15844276   4.357   5.880   3.244 -0.2139  0.2208  0.2445
  130MOL   C15944277   4.318   5.729   3.234 -0.5825  0.2051  0.4631
  130MOL   C16044278   4.246   5.688   3.363 -0.1818  0.5664  0.4027
  130MOL   C16144279   4.240   5.823   3.437 -0.1532 -0.4827  0.0882
  130MOL   O16244280   4.194   5.839   3.551  0.5399  0.1816  0.1441
  130MOL   H16344281   4.333   6.206   3.539 -0.7020 -0.6980  4.0556
  130MOL   H16444282   4.292   6.060   3.614  1.2101 -1.1712  0.5548
  130MOL   H16544283   4.317   6.119   3.304 -0.1271 -0.1969  0.8864
  130MOL   H16644284   4.329   5.933   3.153  1.2247 -0.2596 -0.4799
  130MOL   H16744285   4.465   5.882   3.257 -0.2554 -0.0627  0.6439
  130MOL   H16844286   4.257   5.705   3.147  0.7756 -1.1461 -0.1506
  130MOL   H16944287   4.400   5.661   3.208  0.3686  1.0069  1.3471
  130MOL   H17044288   4.150   5.640   3.348 -1.2353  1.9600  2.4941
  130MOL   H17144289   4.313   5.623   3.420 -1.3473  0.7934  2.0644
  130MOL   C17244290   4.130   6.103   3.399 -0.1363 -0.2505  0.7678
  130MOL   C17344291   4.106   6.254   3.389 -0.3802  0.3679 -0.1810
  130MOL   N17444292   4.142   6.300   3.259  0.3125 -0.2563  0.0068
  130MOL   C17544293   4.238   6.408   3.251 -0.1180 -0.1008  0.4418
  130MOL   C17644294   4.271   6.416   3.100  1.0870 -0.0346  0.3145
  130MOL   C17744295   4.154   6.342   3.032  0.3434 -0.3218  0.6579
  130MOL   C17844296   4.094   6.261   3.142  0.0284  0.1123 -0.2773
  130MOL   O17944297   4.006   6.181   3.117  0.1949  0.1405  0.4784
  130MOL   H18044298   4.096   6.062   3.494  1.4441  0.4938  1.6670
  130MOL   H18144299   4.067   6.053   3.326 -0.3915  2.1774 -0.6998
  130MOL   H18244300   4.165   6.300   3.468  0.9430  1.3149 -1.6741
  130MOL   H18344301   4.192   6.498   3.292 -0.7195  1.8780 -4.1719
  130MOL   H18444302   4.323   6.389   3.316  1.3413  1.4533 -0.9415
  130MOL   H18544303   4.366   6.367   3.075  0.6959 -0.6388  0.0106
  130MOL   H18644304   4.270   6.522   3.074  2.9008 -0.0457  0.1244
  130MOL   H18744305   4.090   6.412   2.979  1.0554 -0.7813 -0.8369
  130MOL   H18844306   4.194   6.274   2.956 -2.2641 -2.7084  1.3426
  130MOL   C18944307   3.959   6.301   3.424  0.4529  0.5470 -0.8390
  130MOL   C19044308   3.911   6.269   3.563 -0.2427 -0.7060  1.0273
  130MOL   N19144309   4.006   6.309   3.670 -0.0783 -0.3752  0.3635
  130MOL   C19244310   4.051   6.210   3.771 -0.3443 -0.1493  0.2758
  130MOL   C19344311   4.172   6.276   3.850 -0.7527 -0.2080 -0.1811
  130MOL   C19444312   4.162   6.423   3.815  0.1185  0.1091  0.0372
  130MOL   C19544313   4.063   6.432   3.698  0.5666 -0.5830  0.0192
  130MOL   O19644314   4.048   6.528   3.627 -0.1130 -0.9065 -0.0798
  130MOL   H19744315   3.888   6.259   3.352  0.9077 -0.2240 -0.8444
  130MOL   H19844316   3.945   6.407   3.400 -1.0536  0.6870  0.6316
  130MOL   H19944317   3.908   6.161   3.572  2.5956 -0.9571 -0.4538
  130MOL   H20044318   3.975   6.175   3.840 -0.1962 -0.4418  0.2919
  130MOL   H20144319   4.093   6.134   3.705  1.2841 -0.3553  1.5269
  130MOL   H20244320   4.155   6.266   3.957  0.4000  0.1467  0.0364
  130MOL   H20344321   4.268   6.236   3.817 -0.7376 -0.2991 -0.0249
  130MOL   H20444322   4.132   6.481   3.903 -2.1470 -0.7037 -0.1800
  130MOL   H20544323   4.259   6.460   3.782 -0.4136  0.7530 -0.8117
  130MOL   C20644324   3.775   6.335   3.583 -0.5855  0.4876 -0.0163
  130MOL   C20744325   3.705   6.291   3.713 -1.1839  0.2418  0.5281
  130MOL   N20844326   3.668   6.406   3.792 -0.2054 -0.2190  0.4347
  130MOL   C20944327   3.568   6.508   3.748 -0.3319  0.6595  0.0355
  130MOL   C21044328   3.556   6.603   3.861  0.5295 -0.9938  0.1999
  130MOL   C21144329   3.680   6.586   3.947  0.1518 -0.3797 -0.2959
  130MOL   C21244330   3.743   6.461   3.896  0.8301  0.0433 -0.1582
  130MOL   O21344331   3.840   6.404   3.954  0.1409  0.1020  0.4763
  130MOL   H21444332   3.714   6.312   3.495 -0.0663  2.0245 -0.7807
  130MOL   H21544333   3.784   6.443   3.574 -3.5067  0.5182 -3.6290
  130MOL   H21644334   3.776   6.231   3.772  1.2286  0.4301 -2.0724
  130MOL   H21744335   3.611   6.565   3.666 -0.6251  0.9043  0.0515
  130MOL   H21844336   3.479   6.457   3.710  0.7802 -0.3943 -1.2124
  130MOL   H21944337   3.539   6.701   3.816  0.6449 -1.1766 -0.2442
  130MOL   H22044338   3.469   6.583   3.923  1.3960 -1.5532  1.2723
  130MOL   H22144339   3.749   6.671   3.955 -2.1223  1.3932  1.4601
  130MOL   H22244340   3.657   6.575   4.053  0.3572 -0.1060 -0.2187
  130MOL   C22344341   3.580   6.197   3.692 -0.3134  0.4605 -0.5980
  130MOL   C22444342   3.608   6.059   3.624 -0.2273  0.8803  0.1275
  130MOL   N22544343   3.651   5.959   3.728 -0.6201 -0.3724  1.0019
  130MOL   C22644344   3.783   5.892   3.717  0.4531  0.1477 -0.1101
  130MOL   C22744345   3.794   5.817   3.847 -0.0088  0.3959 -0.5082
  130MOL   C22844346   3.648   5.795   3.899 -0.2475 -0.6157  0.3039
  130MOL   C22944347   3.579   5.903   3.831 -0.0550 -0.2633 -0.4620
  130MOL   O23044348   3.461   5.932   3.859 -0.1014 -0.2502 -0.3560
  130MOL   H23144349   3.503   6.256   3.642 -0.4053  0.6488 -0.2415
  130MOL   H23244350   3.526   6.185   3.786  0.7918  0.9357  0.1044
  130MOL   H23344351   3.685   6.077   3.549 -1.0087  1.8289 -0.4604
  130MOL   H23444352   3.775   5.814   3.641 -0.2045  0.7737 -0.6945
  130MOL   H23544353   3.870   5.954   3.694  0.0996  0.6744 -0.0395
  130MOL   H23644354   3.856   5.728   3.833  1.6513  1.6882 -1.5810
  130MOL   H23744355   3.853   5.876   3.917  0.8961  0.9159 -1.6910
  130MOL   H23844356   3.610   5.700   3.863  1.3852 -1.1781  0.0060
  130MOL   H23944357   3.625   5.793   4.005 -1.9987 -0.3276 -0.0600
  130MOL   C24044358   3.483   6.008   3.549  0.0687  0.6000 -0.5029
  130MOL   C24144359   3.514   5.893   3.452 -0.1600  0.2374 -0.1712
  130MOL   N24244360   3.396   5.805   3.442 -0.0040 -0.1597 -0.0259
  130MOL   C24344361   3.398   5.678   3.509  0.8620  0.1634  0.2128
  130MOL   C24444362   3.263   5.613   3.489 -0.0266 -0.1396  0.7397
  130MOL   C24544363   3.186   5.712   3.396 -0.0139 -0.3926 -0.4681
  130MOL   C24644364   3.272   5.836   3.394 -0.5675 -0.7676  0.0699
  130MOL   O24744365   3.231   5.941   3.341 -0.7700  0.2436  0.1680
  130MOL   H24844366   3.444   6.092   3.491 -0.1757  1.4357  0.8356
  130MOL   H24944367   3.407   5.980   3.623 -0.8157  0.6772 -1.3719
  130MOL   H25044368   3.590   5.826   3.493  1.1337  1.8680  0.1503
  130MOL   H25144369   3.469   5.613   3.459  0.3945 -0.8512  0.8658
  130MOL   H25244370   3.433   5.682   3.612  2.2276 -0.5286 -0.2168
  130MOL   H25344371   3.283   5.509   3.463 -3.0142 -1.0727  1.8830
  130MOL   H25444372   3.205   5.618   3.582 -0.8115  1.3695  0.1863
  130MOL   H25544373   3.180   5.680   3.292  1.3983  2.3290 -1.4330
  130MOL   H25644374   3.087   5.747   3.426  0.2745  0.2022 -0.1961
  130MOL   C25744375   3.575   5.931   3.316  0.2493 -0.4797  0.5688
  130MOL   C25844376   3.560   5.826   3.200 -0.5186 -0.0689  0.0686
  130MOL   N25944377   3.454   5.854   3.099  0.0062  0.1928 -0.0420
  130MOL   C26044378   3.425   5.986   3.047  0.5996  0.2396 -0.3880
  130MOL   C26144379   3.316   5.967   2.936  0.0194 -0.5102 -0.3493
  130MOL   C26244380   3.247   5.837   2.981 -0.1807  0.4570 -0.1324
  130MOL   C26344381   3.361   5.764   3.058  0.1883 -0.1684  0.4877
  130MOL   O26444382   3.357   5.645   3.086 -0.5577 -0.4034  0.2936
  130MOL   H26544383   3.680   5.960   3.321  0.4075 -0.8554 -0.5803
  130MOL   H26644384   3.545   6.030   3.282  1.2504 -0.5333 -0.4889
  130MOL   H26744385   3.519   5.741   3.253 -1.3968  0.3374  0.0451
  130MOL   H26844386   3.385   6.054   3.122 -2.4396  0.5432 -2.2000
  130MOL   H26944387   3.519   6.019   3.004  0.9004  0.3343  0.3279
  130MOL   H27044388   3.244   6.049   2.928  1.7676  1.0762 -0.0784
  130MOL   H27144389   3.364   5.947   2.840 -3.0159  0.4232 -2.1466
  130MOL   H27244390   3.171   5.858   3.057  1.4989  2.7324  0.9614
  130MOL   H27344391   3.211   5.776   2.898  0.2807 -1.1241  0.8008
  130MOL   C27444392   3.694   5.784   3.119 -0.3685 -0.0279 -0.4114
  130MOL   C27544393   3.727   5.634   3.156  0.0375  0.0855 -0.5792
  130MOL   N27644394   3.822   5.580   3.058 -0.1296  0.6577  0.4043
  130MOL   C27744395   3.786   5.466   2.976 -0.1718 -0.6342 -0.8916
  130MOL   C27844396   3.890   5.455   2.864 -0.3694  0.2039  0.1912
  130MOL   C27944397   4.007   5.541   2.922  0.4074  0.2102 -0.0757
  130MOL   C28044398   3.944   5.619   3.031  0.2469  0.3519  0.8170
  130MOL   O28144399   4.008   5.704   3.084 -0.1678  0.4206  0.0992
  130MOL   H28244400   3.779   5.842   3.157  0.6906 -1.7536 -0.0840
  130MOL   H28344401   3.692   5.800   3.011  1.1451  0.6008 -0.3567
  130MOL   H28444402   3.633   5.579   3.149 -1.3617  2.2298  0.6057
  130MOL   H28544403   3.769   5.377   3.036  0.3657 -0.3947 -0.3678
  130MOL   H28644404   3.687   5.482   2.934  0.1425  0.1938 -1.3487
  130MOL   H28744405   3.913   5.351   2.841 -0.0864  0.3275 -0.0915
  130MOL   H28844406   3.843   5.509   2.781 -0.0870 -0.9931 -0.7645
  130MOL   H28944407   4.088   5.480   2.963 -0.4624 -0.5547  0.5142
  130MOL   H29044408   4.057   5.607   2.850 -0.9058 -0.7951 -1.9332
  130MOL   C29144409   3.789   5.608   3.301  0.1691 -0.3107  0.7511
  130MOL   C29244410   3.802   5.458   3.346 -0.4283  0.0346 -0.2960
  130MOL   N29344411   3.909   5.445   3.440  0.1886  0.5829  0.4158
  130MOL   C29444412   4.029   5.371   3.404  0.6334  0.5583 -0.0035
  130MOL   C29544413   4.123   5.379   3.520 -0.3073 -0.1333 -1.0096
  130MOL   C29644414   4.043   5.446   3.631  0.2958  0.0433 -0.2278
  130MOL   C29744415   3.912   5.490   3.568 -0.0856 -0.3672  0.0910
  130MOL   O29844416   3.827   5.558   3.620 -0.1043  0.4358 -0.1001
  130MOL   H29944417   3.728   5.663   3.373 -2.2432 -0.2705 -1.2932
  130MOL   H30044418   3.891   5.648   3.302  0.3485 -0.7347 -0.2541
  130MOL   H30144419   3.842   5.406   3.259  0.4164  1.4328 -0.7590
  130MOL   H30244420   4.005   5.266   3.389 -1.4831  0.7259  1.9186
  130MOL   H30344421   4.076   5.422   3.320 -1.3026  2.0791 -0.2050
  130MOL   H30444422   4.156   5.278   3.544  2.5725  0.0213 -3.9455
  130MOL   H30544423   4.213   5.437   3.499  2.2794 -2.6773  2.4116
  130MOL   H30644424   4.025   5.385   3.720 -0.5844 -0.1053 -0.5093
  130MOL   H30744425   4.083   5.542   3.664  0.6242 -0.3487  0.5339
  130MOL   C30844426   3.669   5.388   3.394  0.1789 -0.0533 -0.4871
  130MOL   C30944427   3.686   5.233   3.420  0.0773 -0.1602 -0.5392
  130MOL   N31044428   3.573   5.168   3.497 -1.3685 -0.1560 -0.2668
  130MOL   C31144429   3.434   5.206   3.461  0.0159  1.2771  0.8580
  130MOL   C31244430   3.345   5.142   3.575 -0.1405  0.2929 -0.1534
  130MOL   C31344431   3.443   5.049   3.646  0.3127 -0.1188  0.0652
  130MOL   C31444432   3.579   5.076   3.594  0.3634 -0.0286 -0.3307
  130MOL   O31544433   3.677   5.026   3.650  0.3277 -0.2291 -0.1092
  130MOL   H31644434   3.603   5.400   3.308 -0.1946 -0.1649 -0.2171
  130MOL   H31744435   3.632   5.447   3.478 -1.0415  0.6658 -1.5228
  130MOL   H31844436   3.776   5.235   3.481  0.2744  1.4460 -0.8583
  130MOL   H31944437   3.424   5.311   3.436 -0.7327  1.0108 -0.0041
  130MOL   H32044438   3.409   5.152   3.369 -1.3947 -0.2647  2.1212
  130MOL   H32144439   3.313   5.223   3.641 -1.9042  0.0737 -0.7241
  130MOL   H32244440   3.249   5.098   3.549 -2.1109  1.4855  4.5790
  130MOL   H32344441   3.441   5.075   3.752  2.8671 -1.4965  0.5056
  130MOL   H32444442   3.420   4.944   3.629 -0.5903 -0.1588  1.4696
  130MOL   C32544443   3.714   5.140   3.301 -0.0260 -0.1113 -0.1382
  130MOL   C32644444   3.809   5.028   3.342 -0.0832 -0.3068 -0.7945
  130MOL   N32744445   3.878   4.961   3.228 -0.4634 -0.0883  0.1188
  130MOL   C32844446   3.909   4.821   3.244  0.1132 -0.1909 -0.1235
  130MOL   C32944447   4.016   4.779   3.140  0.8372  0.4893 -0.7029
  130MOL   C33044448   4.020   4.902   3.045  0.4097  0.3678  0.0290
  130MOL   C33144449   3.939   5.008   3.119 -0.2925  0.7671  0.1052
  130MOL   O33244450   3.947   5.125   3.079 -0.6926  0.2241  0.5769
  130MOL   H33344451   3.765   5.207   3.232 -0.5805  0.9106  0.4289
  130MOL   H33444452   3.628   5.089   3.257 -0.5979 -0.5043  1.3816
  130MOL   H33544453   3.743   4.960   3.396 -4.0991  2.8213 -1.4467
  130MOL   H33644454   3.938   4.790   3.344  3.2241  0.8199 -0.6537
  130MOL   H33744455   3.813   4.777   3.217  0.8230 -0.2410 -2.7580
  130MOL   H33844456   4.115   4.779   3.185  0.5385  0.0821 -0.0294
  130MOL   H33944457   3.998   4.684   3.091  2.4875  0.8752 -2.1073
  130MOL   H34044458   4.122   4.938   3.034  1.0723 -1.0174  1.4493
  130MOL   H34144459   3.966   4.869   2.956 -0.0546 -0.8718  0.7592
  130MOL   H34244460   3.889   5.059   3.408 -1.1283 -0.5732  0.6092
  131MOL     C144461   0.588   7.691   3.928 -0.2004  0.2205 -0.3302
  131MOL     C244462   0.718   7.740   3.996 -0.2885 -0.2942 -0.0798
  131MOL     N344463   0.700   7.727   4.146  0.6817 -0.1304  0.1513
  131MOL     C444464   0.694   7.601   4.206  0.1070  0.1549 -0.0180
  131MOL     C544465   0.669   7.616   4.352  0.0908 -0.2128 -0.9431
  131MOL     C644466   0.640   7.766   4.371 -0.0050 -0.2030  0.1996
  131MOL     C744467   0.643   7.821   4.230 -0.6939 -0.3640 -0.1008
  131MOL     O844468   0.612   0.024   4.198 -0.0814 -0.0357 -0.2179
  131MOL     H944469   0.574   7.720   3.823  0.9250 -2.3564 -1.2399
  131MOL    H1044470   0.585   7.583   3.934 -0.8112  0.1736 -1.2279
  131MOL    H1144471   0.737   7.842   3.964 -0.5084 -1.1307 -3.0272
  131MOL    H1244472   0.613   7.539   4.169 -1.6504  1.8230  0.9448
  131MOL    H1344473   0.787   7.544   4.196  0.2860  0.4882 -0.2414
  131MOL    H1444474   0.584   7.553   4.376  0.2795 -0.1196  0.0049
  131MOL    H1544475   0.763   7.586   4.398  0.7733  2.4627 -0.5209
  131MOL    H1644476   0.540   7.774   4.414 -0.4511 -1.5529 -0.5677
  131MOL    H1744477   0.698   7.825   4.442 -0.9053  0.9517 -0.0045
  131MOL    H1844478   0.505   7.726   3.989  0.8773  0.1363  1.1869
  131MOL    C1944479   0.851   7.674   3.949  0.7426  0.7053 -0.0097
  131MOL    C2044480   0.893   7.699   3.805 -0.5666 -0.2386  0.5475
  131MOL    N2144481   0.939   7.839   3.784 -0.1465  0.3716  0.3589
  131MOL    C2244482   1.083   7.867   3.795 -0.7394 -0.3034 -0.2022
  131MOL    C2344483   1.114   0.081   3.703  0.0711  0.0433  0.0174
  131MOL    C2444484   0.972   0.147   3.690 -0.0233 -0.1308 -0.1640
  131MOL    C2544485   0.880   0.032   3.719  0.3440 -0.2007 -0.5632
  131MOL    O2644486   0.757   0.032   3.703 -0.5520  0.3461  0.4790
  131MOL    H2744487   0.828   7.568   3.959  0.1316  0.8657  0.3065
  131MOL    H2844488   0.930   7.701   4.019  0.1365 -1.5502  1.6038
  131MOL    H2944489   0.810   7.688   3.735  0.6429 -1.7377 -0.6799
  131MOL    H3044490   1.109   7.884   3.900 -1.7786 -0.2013  0.0375
  131MOL    H3144491   1.158   7.790   3.778 -1.2214 -0.5118 -1.3919
  131MOL    H3244492   1.190   0.148   3.742 -0.9248  1.1661  0.0711
  131MOL    H3344493   1.156   0.051   3.607 -0.8918  0.6350 -0.6119
  131MOL    H3444494   0.950   0.229   3.758 -0.5828  0.4642 -1.0572
  131MOL    H3544495   0.957   0.165   3.584  1.3564  0.9841 -0.1772
  131MOL    C3644496   1.007   7.595   3.764  0.2615  0.4960 -0.0677
  131MOL    C3744497   0.955   7.456   3.731  0.4565 -0.4402 -0.3354
  131MOL    N3844498   0.860   7.455   3.623 -0.0505 -0.0350  0.6243
  131MOL    C3944499   0.726   7.404   3.645 -0.1423  0.3496  0.5484
  131MOL    C4044500   0.652   7.442   3.519 -0.5606  0.0003  0.1196
  131MOL    C4144501   0.753   7.500   3.414  0.0342  0.2954 -0.3536
  131MOL    C4244502   0.879   7.506   3.498 -0.8488 -1.1318 -0.0566
  131MOL    O4344503   0.985   7.545   3.450 -0.5731  0.3454  0.5223
  131MOL    H4444504   1.089   7.606   3.834  1.1541 -0.6491 -0.9201
  131MOL    H4544505   1.054   7.640   3.676 -0.2692  0.0538 -0.5849
  131MOL    H4644506   0.898   7.421   3.818  0.7205 -0.1124 -0.0281
  131MOL    H4744507   0.730   7.298   3.670  1.3852  0.9029  2.8523
  131MOL    H4844508   0.672   7.454   3.725 -0.4913  0.9273 -0.0464
  131MOL    H4944509   0.607   7.358   3.466  0.8732 -1.5753  1.3523
  131MOL    H5044510   0.568   7.511   3.528 -1.4095 -1.4330  3.9725
  131MOL    H5144511   0.781   7.435   3.332  2.2288  2.5338 -1.4641
  131MOL    H5244512   0.716   7.596   3.376  0.8495  2.5796  4.2383
  131MOL    C5344513   1.072   7.363   3.707 -0.4239  0.4476  0.2604
  131MOL    C5444514   1.176   7.332   3.820 -0.0565 -0.4174 -0.1523
  131MOL    N5544515   1.097   7.297   3.940  0.3645 -0.7401 -0.1715
  131MOL    C5644516   1.112   7.378   4.060 -0.0708  0.3752  0.4077
  131MOL    C5744517   1.043   7.294   4.177  0.0511 -0.2168  1.2828
  131MOL    C5844518   0.971   7.171   4.108  0.1275 -0.4427 -0.1473
  131MOL    C5944519   1.026   7.184   3.962 -0.0927 -0.2262  0.4983
  131MOL    O6044520   1.004   7.096   3.883 -0.5592 -0.5243 -0.4677
  131MOL    H6144521   1.142   7.386   3.627 -1.2647 -2.7034 -1.4711
  131MOL    H6244522   1.025   7.270   3.676  0.9825 -0.0247 -0.4903
  131MOL    H6344523   1.218   7.429   3.846 -0.1253 -0.2884 -0.5154
  131MOL    H6444524   1.215   7.406   4.083 -0.0218  2.2909 -1.9714
  131MOL    H6544525   1.058   7.473   4.054 -2.1273 -0.7337  0.8827
  131MOL    H6644526   1.122   7.248   4.238 -1.5532 -1.7124  2.2931
  131MOL    H6744527   0.986   7.359   4.243  1.0635 -1.3486  3.3346
  131MOL    H6844528   0.991   7.073   4.152  2.7232  1.1338  2.3643
  131MOL    H6944529   0.863   7.186   4.103  0.1260  0.0378  1.0141
  131MOL    C7044530   1.285   7.232   3.781  0.0024 -0.0155 -0.4504
  131MOL    C7144531   1.413   7.221   3.867 -0.0737 -0.4406 -0.3036
  131MOL    N7244532   1.458   7.086   3.879 -0.4827  0.0140 -0.5276
  131MOL    C7344533   1.466   7.016   4.006  0.6046 -0.0517 -0.0067
  131MOL    C7444534   1.475   6.864   3.984 -0.3069 -0.1968 -0.5614
  131MOL    C7544535   1.513   6.864   3.835  0.2147 -0.1357  0.3517
  131MOL    C7644536   1.486   7.002   3.777  0.2573  0.3677 -0.2596
  131MOL    O7744537   1.509   7.033   3.663  0.7213  0.3234 -0.1863
  131MOL    H7844538   1.309   7.254   3.677  0.6684 -0.1743 -0.3281
  131MOL    H7944539   1.230   7.139   3.770  1.6448 -1.0405 -0.1425
  131MOL    H8044540   1.383   7.243   3.970 -0.4843 -0.6738 -0.3770
  131MOL    H8144541   1.554   7.045   4.064 -0.6113  0.7309  1.4905
  131MOL    H8244542   1.380   7.038   4.070  0.7491 -2.1564  0.9434
  131MOL    H8344543   1.537   6.806   4.053  0.9318  2.7791  0.8981
  131MOL    H8444544   1.373   6.828   3.994 -0.1703 -0.3206  0.4728
  131MOL    H8544545   1.617   6.837   3.816  0.4434 -0.1853  1.6276
  131MOL    H8644546   1.438   6.802   3.787  0.0935 -1.1409  1.7840
  131MOL    C8744547   1.534   7.307   3.817  0.5701  0.5420  0.5971
  131MOL    C8844548   1.545   7.450   3.835 -0.4464 -0.4309 -0.3257
  131MOL    N8944549   1.515   7.487   3.977 -0.2130 -0.2268  0.3851
  131MOL    C9044550   1.447   7.613   4.011  0.3504 -0.5324  0.6767
  131MOL    C9144551   1.441   7.611   4.162  0.5180 -0.2364  1.1953
  131MOL    C9244552   1.533   7.503   4.210  0.2397  0.5352  0.0858
  131MOL    C9344553   1.566   7.426   4.085 -0.4545 -0.4562  0.6722
  131MOL    O9444554   1.626   7.321   4.093  0.2720 -0.2795 -0.3569
  131MOL    H9544555   1.530   7.296   3.709 -1.0408  0.1132  0.6918
  131MOL    H9644556   1.631   7.263   3.840  0.3975  0.9474  2.1326
  131MOL    H9744557   1.458   7.498   3.790 -0.6338  0.2197  0.7006
  131MOL    H9844558   1.511   7.692   3.972 -1.1497  0.4209  0.0887
  131MOL    H9944559   1.354   7.610   3.953  0.4965 -0.9633  0.4612
  131MOL   H10044560   1.481   7.702   4.205  1.7046 -0.3196  0.2910
  131MOL   H10144561   1.342   7.595   4.205  0.0599 -0.6113  0.0162
  131MOL   H10244562   1.624   7.550   4.246  0.0856  1.9226 -1.2767
  131MOL   H10344563   1.493   7.444   4.292  2.2264  1.3848  1.7022
  131MOL   C10444564   1.678   7.523   3.787 -0.2120  0.3134  0.0227
  131MOL   C10544565   1.699   7.489   3.631  0.8697 -0.0399 -0.2493
  131MOL   N10644566   1.574   7.514   3.545 -0.3887  0.8106  0.4318
  131MOL   C10744567   1.523   7.418   3.447 -0.0786 -0.1377  0.8649
  131MOL   C10844568   1.407   7.496   3.373 -0.0006  0.7275  0.7661
  131MOL   C10944569   1.375   7.606   3.469 -0.5024  0.6376  0.2864
  131MOL   C11044570   1.491   7.619   3.554  0.0585  0.8438 -0.7050
  131MOL   O11144571   1.518   7.721   3.621 -0.1389 -0.1988 -0.1696
  131MOL   H11244572   1.762   7.482   3.842 -0.7908  0.2195  0.8471
  131MOL   H11344573   1.689   7.630   3.806  1.2087 -0.1679  2.0944
  131MOL   H11444574   1.713   7.381   3.627 -0.4752 -0.2280 -0.3033
  131MOL   H11544575   1.601   7.388   3.376 -0.2606 -0.0989  0.6455
  131MOL   H11644576   1.485   7.329   3.496 -2.0968  0.5785  0.6136
  131MOL   H11744577   1.440   7.548   3.283 -0.8337  2.4038  1.4133
  131MOL   H11844578   1.327   7.426   3.349  2.0294 -1.1055 -0.8774
  131MOL   H11944579   1.285   7.593   3.529  0.3909  2.2831  2.0074
  131MOL   H12044580   1.354   7.702   3.420 -0.7810  0.8596  0.8420
  131MOL   C12144581   1.820   7.571   3.580  0.0144 -0.0695  0.2592
  131MOL   C12244582   1.905   7.493   3.473 -0.0185 -0.6715  0.7349
  131MOL   N12344583   1.945   7.581   3.360  0.1019  0.4011 -0.5984
  131MOL   C12444584   1.904   7.558   3.219 -0.3240 -0.2241 -0.3462
  131MOL   C12544585   1.990   7.652   3.134  0.0975 -0.7092  0.2362
  131MOL   C12644586   2.084   7.726   3.232  0.2228 -0.0540  0.2442
  131MOL   C12744587   2.045   7.673   3.366 -0.3912 -0.2365  0.8084
  131MOL   O12844588   2.112   7.712   3.462 -0.1777 -0.3626 -0.4731
  131MOL   H12944589   1.885   7.604   3.662  1.6491  0.8104 -1.3474
  131MOL   H13044590   1.795   7.671   3.545  1.2854 -0.4604 -1.8603
  131MOL   H13144591   1.837   7.417   3.437 -0.5785 -0.9849  2.4095
  131MOL   H13244592   1.802   7.585   3.196  0.0963  0.4402 -1.4599
  131MOL   H13344593   1.925   7.454   3.191  3.2943  0.0089  1.2372
  131MOL   H13444594   2.053   7.591   3.069 -0.7419 -0.3146 -0.9654
  131MOL   H13544595   1.928   7.712   3.068  0.5250  0.1698  0.6242
  131MOL   H13644596   2.192   7.717   3.219  0.2017  1.6163 -1.3143
  131MOL   H13744597   2.050   7.829   3.223 -3.1013 -0.9622  1.7237
  131MOL   C13844598   2.029   7.432   3.533 -0.4681 -1.2187 -0.2229
  131MOL   C13944599   2.006   7.303   3.626  0.4549  0.1418 -0.2561
  131MOL   N14044600   1.966   7.184   3.546  0.2571 -0.0008 -0.1010
  131MOL   C14144601   1.858   7.096   3.597  0.0279 -1.1379  0.2412
  131MOL   C14244602   1.836   6.988   3.497  0.0745 -0.5044  0.3173
  131MOL   C14344603   1.930   7.015   3.380 -0.0249  0.0464  0.3576
  131MOL   C14444604   2.006   7.139   3.424  0.2833 -0.2821 -0.1587
  131MOL   O14544605   2.085   7.191   3.348 -0.2852  0.0246  0.1638
  131MOL   H14644606   2.072   7.502   3.604 -0.2327 -3.0801  1.5034
  131MOL   H14744607   2.111   7.418   3.462 -0.1658 -1.4105  0.1602
  131MOL   H14844608   1.925   7.308   3.699  1.8922  0.9035  1.2989
  131MOL   H14944609   1.885   7.049   3.692 -0.3699 -0.5371  0.6609
  131MOL   H15044610   1.764   7.143   3.626 -1.1922 -2.2221 -1.8398
  131MOL   H15144611   1.865   6.893   3.541  2.4630  0.2101  0.3597
  131MOL   H15244612   1.731   6.975   3.471  0.8177 -0.6277 -2.8490
  131MOL   H15344613   1.862   7.025   3.295 -0.4203 -1.3111  0.5079
  131MOL   H15444614   1.997   6.931   3.360 -2.6088 -1.9422 -0.2158
  131MOL   C15544615   2.136   7.262   3.709 -0.0366 -0.1801  0.3624
  131MOL   C15644616   2.198   7.364   3.797  0.2757 -0.6703 -0.5558
  131MOL   N15744617   2.102   7.439   3.875  0.0700  0.0090  0.0863
  131MOL   C15844618   2.114   7.587   3.894 -0.1349 -0.3414  0.3666
  131MOL   C15944619   2.032   7.618   4.014  0.7551 -0.3958  0.5417
  131MOL   C16044620   1.943   7.494   4.042 -0.0635 -0.3389 -0.4095
  131MOL   C16144621   2.012   7.383   3.961 -0.0470 -0.4137  0.5912
  131MOL   O16244622   1.979   7.261   3.973  0.1127  0.1360 -0.2011
  131MOL   H16344623   2.213   7.227   3.642  1.2231 -0.4385  1.9170
  131MOL   H16444624   2.115   7.178   3.776  0.1508 -0.5027  0.0169
  131MOL   H16544625   2.259   7.432   3.738 -3.2681  2.5042 -0.7787
  131MOL   H16644626   2.218   7.613   3.914 -0.4014  1.6643 -0.7098
  131MOL   H16744627   2.067   7.635   3.808  1.9540  0.8084 -0.1602
  131MOL   H16844628   2.105   7.636   4.094  0.7293  1.3997  0.1937
  131MOL   H16944629   1.966   7.702   3.994  1.6731  0.1548 -0.2411
  131MOL   H17044630   1.942   7.476   4.149 -1.0035  0.1757 -0.3258
  131MOL   H17144631   1.836   7.506   4.021 -0.1486 -0.2397  0.0727
  131MOL   C17244632   2.287   7.282   3.894 -0.2633  0.3428 -0.5905
  131MOL   C17344633   2.369   7.358   4.004 -0.0939 -0.6973  0.2886
  131MOL   N17444634   2.396   7.266   4.119 -0.0358 -0.1362  0.2080
  131MOL   C17544635   2.323   7.285   4.240 -0.5868  0.0475 -0.0849
  131MOL   C17644636   2.372   7.173   4.326  0.8260  0.2442 -0.1960
  131MOL   C17744637   2.477   7.088   4.246 -0.0903 -0.4417 -0.1404
  131MOL   C17844638   2.473   7.152   4.114 -0.2723 -0.0501  0.6798
  131MOL   O17944639   2.538   7.112   4.018  0.4198  0.1571  0.6970
  131MOL   H18044640   2.352   7.221   3.832  0.9977  0.5167  0.5333
  131MOL   H18144641   2.221   7.212   3.946  0.6529 -0.5952 -0.6737
  131MOL   H18244642   2.305   7.437   4.045  0.8525  0.0258  0.3938
  131MOL   H18344643   2.350   7.383   4.279 -1.8984  0.7031 -0.7965
  131MOL   H18444644   2.218   7.291   4.210  0.0114  0.9269 -2.0740
  131MOL   H18544645   2.293   7.105   4.357  1.7811 -0.1195  1.4927
  131MOL   H18644646   2.419   7.216   4.414  0.1915 -1.7649  1.1362
  131MOL   H18744647   2.571   7.085   4.301  0.3378 -1.2525 -0.9037
  131MOL   H18844648   2.437   6.987   4.237 -0.7673 -0.2843  1.0291
  131MOL   C18944649   2.489   7.419   3.938 -0.6318 -1.2807  0.4088
  131MOL   C19044650   2.579   7.510   4.025 -0.2686 -0.7114 -0.7486
  131MOL   N19144651   2.714   7.525   3.969 -0.5392  0.2017 -0.0789
  131MOL   C19244652   2.821   7.453   4.031 -0.2355  0.2120 -0.3047
  131MOL   C19344653   2.949   7.496   3.961 -0.2729  0.9576  0.1759
  131MOL   C19444654   2.903   7.583   3.847 -0.5862  0.0235 -0.6276
  131MOL   C19544655   2.750   7.589   3.855  0.3217 -0.2530  0.2754
  131MOL   O19644656   2.679   7.656   3.780 -0.2912  0.5297 -0.4172
  131MOL   H19744657   2.454   7.486   3.860  1.4114  0.0231  0.5823
  131MOL   H19844658   2.542   7.346   3.877  1.9812  0.4335  0.5474
  131MOL   H19944659   2.592   7.457   4.119 -0.8694  0.6418  0.1177
  131MOL   H20044660   2.827   7.457   4.140 -2.3581 -0.5654 -0.1219
  131MOL   H20144661   2.806   7.347   4.016  0.1485  0.6905 -4.7137
  131MOL   H20244662   3.001   7.552   4.038 -0.0520 -0.4191  1.0482
  131MOL   H20344663   2.995   7.408   3.915  3.1399  1.3846  2.5695
  131MOL   H20444664   2.926   7.686   3.876 -2.9305  1.1852 -2.6867
  131MOL   H20544665   2.949   7.561   3.751 -1.0696 -0.7189 -0.6943
  131MOL   C20644666   2.506   7.645   4.053 -0.1648 -0.8703  0.0580
  131MOL   C20744667   2.584   7.728   4.162  0.0111 -0.1064 -0.5395
  131MOL   N20844668   2.547   7.871   4.152  0.1014 -0.2596 -0.3355
  131MOL   C20944669   2.641   0.059   4.089  0.4733  0.1888 -0.4364
  131MOL   C21044670   2.569   0.194   4.059  0.1631  0.0231  0.1409
  131MOL   C21144671   2.430   0.171   4.128  0.1616  0.3990  0.2874
  131MOL   C21244672   2.429   0.020   4.169  0.1127 -0.9990 -0.1630
  131MOL   O21344673   2.338   7.874   4.219 -0.4153  0.3097  0.1621
  131MOL   H21444674   2.401   7.634   4.080 -0.3390 -2.0839 -1.0189
  131MOL   H21544675   2.499   7.701   3.960 -2.9898 -0.2613  0.6047
  131MOL   H21644676   2.691   7.722   4.140  0.0868 -0.9376  0.0170
  131MOL   H21744677   2.722   0.069   4.162 -1.1547  3.1916  1.0374
  131MOL   H21844678   2.683   0.012   4.000 -1.0231 -1.5810 -0.2564
  131MOL   H21944679   2.623   0.286   4.081 -0.3392  0.4964 -0.5568
  131MOL   H22044680   2.552   0.198   3.951 -0.6742 -1.2061  0.2087
  131MOL   H22144681   2.426   0.219   4.225  0.1138 -0.2678  0.6163
  131MOL   H22244682   2.343   0.190   4.064 -0.6850  0.9935  1.5967
  131MOL   C22344683   2.556   7.667   4.305 -0.5632 -0.4764  0.2307
  131MOL   C22444684   2.668   7.668   4.414 -0.1682 -0.4669 -0.6548
  131MOL   N22544685   2.600   7.616   4.531  0.4284  0.0675 -0.4851
  131MOL   C22644686   2.546   7.710   4.632 -0.0477 -0.1347  0.4109
  131MOL   C22744687   2.453   7.621   4.712 -0.2669 -0.3367  0.4329
  131MOL   C22844688   2.480   7.475   4.675  0.2790 -0.4515 -0.4233
  131MOL   C22944689   2.561   7.492   4.552 -0.3699  0.4629  0.1459
  131MOL   O23044690   2.573   7.401   4.466 -0.3999  0.0173  0.2563
  131MOL   H23144691   2.528   7.562   4.290 -2.1760 -0.0103 -0.0776
  131MOL   H23244692   2.462   7.703   4.345 -1.1322  1.9025 -3.0374
  131MOL   H23344693   2.692   7.771   4.438 -0.0441 -0.8815  1.0546
  131MOL   H23444694   2.624   7.763   4.686 -1.0760  1.2275  0.5720
  131MOL   H23544695   2.504   7.786   4.567  0.2946 -1.6911 -1.7062
  131MOL   H23644696   2.457   7.652   4.816 -0.9407 -1.1609  0.7120
  131MOL   H23744697   2.350   7.630   4.676 -0.3017 -0.9352  0.3652
  131MOL   H23844698   2.533   7.428   4.758  0.3962  0.4371  0.0074
  131MOL   H23944699   2.387   7.422   4.656 -1.1548  2.2062 -1.0420
  131MOL   C24044700   2.804   7.590   4.378  1.0848  0.3514  0.3931
  131MOL   C24144701   2.876   7.518   4.494 -0.2904  0.3772 -0.4141
  131MOL   N24244702   2.944   7.402   4.437 -0.4137 -0.0390  0.6165
  131MOL   C24344703   2.923   7.269   4.489  0.3031  0.1116  0.0423
  131MOL   C24444704   2.980   7.177   4.384  0.2566 -0.4333  0.4106
  131MOL   C24544705   3.083   7.265   4.304  0.4293  0.4546  0.0458
  131MOL   C24644706   3.041   7.401   4.345 -0.0686 -0.1438 -0.4493
  131MOL   O24744707   3.099   7.503   4.306 -0.5336  0.6245  0.0743
  131MOL   H24844708   2.874   7.637   4.308 -0.3366 -1.1859 -2.1661
  131MOL   H24944709   2.773   7.506   4.316  1.0748  0.6513 -0.0167
  131MOL   H25044710   2.809   7.488   4.575 -0.5442  3.0455  0.4405
  131MOL   H25144711   2.976   7.259   4.583 -1.0827 -1.9393  0.6386
  131MOL   H25244712   2.821   7.240   4.515  1.6521 -2.4923  2.6922
  131MOL   H25344713   3.035   7.092   4.425  1.2427  0.4568  0.9546
  131MOL   H25444714   2.905   7.134   4.317  2.0524  2.0495 -3.4128
  131MOL   H25544715   3.185   7.257   4.340  0.2544  0.9172  0.6707
  131MOL   H25644716   3.082   7.239   4.198 -0.8465  1.8786 -0.3205
  131MOL   C25744717   2.972   7.614   4.570  0.0562 -0.7027  0.0967
  131MOL   C25844718   3.010   7.571   4.710 -0.4197  0.1911  0.3938
  131MOL   N25944719   3.128   7.644   4.763  0.0163  0.2801 -0.0061
  131MOL   C26044720   3.255   7.567   4.782 -0.3658 -0.1921  0.4163
  131MOL   C26144721   3.354   7.666   4.845  0.0112  0.8032 -0.0398
  131MOL   C26244722   3.280   7.790   4.880  0.6806  0.2392 -1.1283
  131MOL   C26344723   3.141   7.767   4.824 -0.5300  0.0294  1.0685
  131MOL   O26444724   3.052   7.852   4.829  0.0817  0.5394  0.6130
  131MOL   H26544725   2.922   7.711   4.570 -0.5472 -1.0100 -0.4759
  131MOL   H26644726   3.061   7.625   4.508  1.4242 -0.5964  2.0393
  131MOL   H26744727   3.046   7.469   4.694  0.3684  0.7422 -1.5218
  131MOL   H26844728   3.224   7.485   4.846 -0.6376 -1.3379 -1.1357
  131MOL   H26944729   3.286   7.520   4.688  0.2976  0.7614  0.1397
  131MOL   H27044730   3.406   7.617   4.926 -0.2250 -2.3453 -1.7310
  131MOL   H27144731   3.436   7.686   4.775  0.4199  0.2085  0.2702
  131MOL   H27244732   3.275   7.810   4.987 -1.6915  2.0546 -1.5335
  131MOL   H27344733   3.331   7.875   4.836  1.5802 -0.0456 -0.6527
  131MOL   C27444734   2.897   7.566   4.810 -0.0639 -0.0202  0.1793
  131MOL   C27544735   2.934   7.517   4.954 -0.2916  0.2036 -0.0506
  131MOL   N27644736   2.867   7.614   5.053 -0.1913 -0.5646 -0.1668
  131MOL   C27744737   2.952   7.682   5.154  0.4199 -0.0883 -0.2013
  131MOL   C27844738   2.852   7.758   5.246 -0.6231  0.9608  0.5015
  131MOL   C27944739   2.715   7.756   5.166 -0.1592 -0.6139 -0.4495
  131MOL   C28044740   2.742   7.653   5.062 -0.4547  0.1619 -0.2900
  131MOL   O28144741   2.654   7.595   4.997  0.3154  0.1048 -0.4390
  131MOL   H28244742   2.810   7.509   4.778  1.8245 -2.9865  0.0759
  131MOL   H28344743   2.858   7.667   4.822 -1.2930  0.0059 -3.4145
  131MOL   H28444744   3.041   7.525   4.973  0.4018 -2.9165 -2.3509
  131MOL   H28544745   3.013   7.607   5.205  1.4105  1.2255  0.5655
  131MOL   H28644746   3.016   7.760   5.113  0.2100  0.0974 -0.1792
  131MOL   H28744747   2.834   7.695   5.333 -0.2747 -1.4533 -1.1143
  131MOL   H28844748   2.892   7.852   5.282  0.2587  0.3154  1.2195
  131MOL   H28944749   2.626   7.731   5.223  0.8513 -1.1827  0.9221
  131MOL   H29044750   2.691   7.850   5.115  0.9035  0.6408  1.2853
  131MOL   C29144751   2.899   7.366   4.967  0.5724  0.3613  0.7130
  131MOL   C29244752   2.817   7.309   5.086 -0.0133  0.4726 -0.1919
  131MOL   N29344753   2.716   7.202   5.058  0.3059  0.3668 -0.1168
  131MOL   C29444754   2.573   7.227   5.042  0.0825 -0.0702  0.2712
  131MOL   C29544755   2.518   7.103   4.973  0.3021  0.1978 -0.4593
  131MOL   C29644756   2.634   7.010   4.943 -0.0031  0.1481 -0.4646
  131MOL   C29744757   2.752   7.084   5.007  1.1569  0.0010  0.2887
  131MOL   O29844758   2.868   7.050   4.995  0.0249 -0.5049 -0.3118
  131MOL   H29944759   2.991   7.308   4.970  0.9321  0.9484  1.0335
  131MOL   H30044760   2.858   7.334   4.871 -1.1638  0.7730  1.2965
  131MOL   H30144761   2.746   7.390   5.105 -0.6615  0.4172 -2.2211
  131MOL   H30244762   2.525   7.233   5.140 -1.7529 -3.1383 -0.3650
  131MOL   H30344763   2.544   7.308   4.975 -1.6049 -2.1200 -1.5693
  131MOL   H30444764   2.451   7.044   5.037  2.8185 -1.0592  1.0784
  131MOL   H30544765   2.462   7.129   4.883  0.0048 -0.3049 -0.4287
  131MOL   H30644766   2.633   6.916   4.998 -1.3452  1.6114  2.1227
  131MOL   H30744767   2.660   6.994   4.838  1.3729 -2.0892  0.1745
  131MOL   C30844768   2.904   7.275   5.212  0.4385  0.0468 -0.7256
  131MOL   C30944769   2.820   7.259   5.347  0.4330  0.0304 -0.2573
  131MOL   N31044770   2.881   7.161   5.437 -0.3774 -0.3082 -0.5894
  131MOL   C31144771   2.803   7.040   5.467 -0.4845  0.1953  0.1297
  131MOL   C31244772   2.881   6.974   5.577 -0.6201 -0.5531  0.4704
  131MOL   C31344773   3.022   7.034   5.578  0.1287  0.1027  0.5727
  131MOL   C31444774   2.996   7.164   5.507 -0.1218 -0.7351  0.0836
  131MOL   O31544775   3.080   7.252   5.498 -0.4262  0.1622  0.5884
  131MOL   H31644776   2.976   7.356   5.226 -0.4713  0.5745  1.0046
  131MOL   H31744777   2.958   7.183   5.192 -0.7584 -1.5165  2.9564
  131MOL   H31844778   2.726   7.217   5.312  0.2792  0.5782 -0.5240
  131MOL   H31944779   2.706   7.075   5.501 -1.1988 -1.4749 -0.1496
  131MOL   H32044780   2.775   6.974   5.385 -0.8741  1.1679 -0.5215
  131MOL   H32144781   2.838   6.996   5.675  2.9178  2.3831  1.4622
  131MOL   H32244782   2.875   6.865   5.572  0.9111 -0.7094  1.6251
  131MOL   H32344783   3.069   7.039   5.676  0.0892 -0.4039  0.6167
  131MOL   H32444784   3.090   6.972   5.519  0.5122  0.1615  0.9455
  131MOL   C32544785   2.794   7.400   5.416  0.0802 -0.4101  0.6162
  131MOL   C32644786   2.724   7.379   5.547 -0.1665  0.2355 -0.2885
  131MOL   N32744787   2.665   7.504   5.598 -0.3007  0.6298 -0.7607
  131MOL   C32844788   2.673   7.530   5.742 -0.0001  0.1572  0.0606
  131MOL   C32944789   2.617   7.677   5.749  0.4294  0.5653 -0.0516
  131MOL   C33044790   2.537   7.703   5.621 -0.2985 -0.4476 -0.6338
  131MOL   C33144791   2.579   7.582   5.538  0.2176 -0.4905 -0.6089
  131MOL   O33244792   2.511   7.558   5.441  0.7172 -0.1539 -0.3288
  131MOL   H33344793   2.727   7.450   5.347  2.1074 -1.1923 -1.9758
  131MOL   H33444794   2.866   7.481   5.423  0.4684 -0.8605  2.1133
  131MOL   H33544795   2.787   7.334   5.624 -0.0532 -1.1067 -1.1486
  131MOL   H33644796   2.617   7.455   5.797 -0.0308  0.0955 -0.0539
  131MOL   H33744797   2.777   7.527   5.775 -0.3254  0.3607  1.1211
  131MOL   H33844798   2.552   7.687   5.835  1.5479  2.2477  0.6095
  131MOL   H33944799   2.699   7.749   5.759  0.8026  0.0259  0.8318
  131MOL   H34044800   2.430   7.706   5.640 -0.4692 -0.4574 -1.5765
  131MOL   H34144801   2.564   7.797   5.574 -1.1769  0.6646  1.0541
  131MOL   H34244802   2.647   7.303   5.537 -1.0598  1.2093 -0.8309
  132MOL     C144803   0.585   7.612   7.506 -0.1102  0.0704  0.8865
  132MOL     C244804   0.678   7.674   7.613  0.2008  0.3103 -0.2295
  132MOL     N344805   0.769   7.769   7.546  0.0802  0.2036 -0.4848
  132MOL     C444806   0.914   7.749   7.574  0.7851 -0.5473 -0.1564
  132MOL     C544807   0.985   7.880   7.536 -0.4068 -0.2648  0.3492
  132MOL     C644808   0.877   0.043   7.458  0.5172  0.1734 -0.2178
  132MOL     C744809   0.747   7.887   7.490  0.5417  0.0101  0.8426
  132MOL     O844810   0.635   0.036   7.475 -0.4572 -0.0068 -0.0371
  132MOL     H944811   0.523   7.695   7.471 -0.1701 -0.3014  0.0955
  132MOL    H1044812   0.657   7.576   7.433  1.4721 -1.3190  3.0677
  132MOL    H1144813   0.733   7.595   7.662  1.9112 -0.2547 -2.9393
  132MOL    H1244814   0.924   7.731   7.681 -0.1636 -1.4191 -0.2082
  132MOL    H1344815   0.957   7.661   7.526 -0.8438 -1.5804  0.2030
  132MOL    H1444816   1.014   0.050   7.609  0.5257  1.0943 -1.3812
  132MOL    H1544817   1.076   7.858   7.480 -1.1721 -0.1070 -0.9929
  132MOL    H1644818   0.873   0.149   7.486  0.7710  0.1502 -0.0842
  132MOL    H1744819   0.903   0.035   7.353 -1.1314  1.1280 -0.7156
  132MOL    H1844820   0.526   7.529   7.545 -0.7838  0.1199 -0.0035
  132MOL    C1944821   0.604   7.747   7.726 -0.3994 -0.1249 -0.0991
  132MOL    C2044822   0.509   7.649   7.802 -0.2239  0.3633 -0.4157
  132MOL    N2144823   0.576   7.537   7.871 -0.0483  0.0907 -0.8839
  132MOL    C2244824   0.693   7.564   0.048 -0.1833  0.3640 -0.0496
  132MOL    C2344825   0.715   7.426   0.123 -0.4535 -0.7978  0.7298
  132MOL    C2444826   0.592   7.338   0.095  1.1272  0.0715 -0.6301
  132MOL    C2544827   0.521   7.414   7.892 -0.1132 -0.5931  0.9009
  132MOL    O2644828   0.421   7.372   7.836 -0.0363 -0.2314  0.6399
  132MOL    H2744829   0.555   7.835   7.683  0.5949  0.5025  0.0279
  132MOL    H2844830   0.677   7.779   7.800  0.6025 -0.8442 -0.7515
  132MOL    H2944831   0.432   7.602   7.742  2.0269 -1.8412 -1.6839
  132MOL    H3044832   0.775   7.584   7.885  1.0309 -0.8485  0.9996
  132MOL    H3144833   0.670   7.652   0.109 -0.7854  0.3860 -0.3029
  132MOL    H3244834   0.806   7.375   0.093  1.0233  1.0543  1.9582
  132MOL    H3344835   0.725   7.447   0.229  0.0177 -0.6571  0.6551
  132MOL    H3444836   0.623   7.238   0.064  1.2598 -0.1796  0.3063
  132MOL    H3544837   0.529   7.344   0.184  0.5233  1.2828 -1.1176
  132MOL    C3644838   0.425   7.743   7.900 -0.0460 -0.2457 -0.1813
  132MOL    C3744839   0.325   7.839   7.832 -0.6084  0.7373  0.1697
  132MOL    N3844840   0.215   7.757   7.779 -0.9142  0.1873  0.5799
  132MOL    C3944841   0.204   7.747   7.634 -0.1341 -0.0484 -0.1661
  132MOL    C4044842   0.067   7.676   7.623 -0.6153  0.0291 -0.2508
  132MOL    C4144843   0.022   7.628   7.763 -0.0542 -0.3219  0.3920
  132MOL    C4244844   0.123   7.698   7.854  0.1855  0.5674 -0.5093
  132MOL    O4344845   0.113   7.695   0.069 -0.0460  0.0400  0.1515
  132MOL    H4444846   0.499   7.806   0.044  0.1747  0.2837 -1.1518
  132MOL    H4544847   0.375   7.689   0.074  0.5118  2.2263  1.8790
  132MOL    H4644848   0.367   7.890   7.745  1.1682 -0.2162  0.4398
  132MOL    H4744849   0.203   7.846   7.590  0.8312  0.4183  0.8387
  132MOL    H4844850   0.289   7.699   7.587  1.7188  1.4895  1.5210
  132MOL    H4944851   7.897   7.746   7.587  0.8783  0.6909 -2.2044
  132MOL    H5044852   0.053   7.598   7.548 -1.9927  1.0256 -1.0542
  132MOL    H5144853   7.824   7.650   7.786 -0.1393 -1.0024  0.6535
  132MOL    H5244854   0.035   7.520   7.759 -0.8816 -0.3890 -0.6392
  132MOL    C5344855   0.281   0.049   0.022 -0.4475 -0.8114  0.1999
  132MOL    C5444856   0.383   0.162   0.029 -0.0583  0.2358 -0.4551
  132MOL    N5544857   0.419   0.220   7.806 -0.2777  0.1426 -0.8592
  132MOL    C5644858   0.563   0.243   7.777 -0.1416 -0.4872 -0.0825
  132MOL    C5744859   0.566   0.334   7.651  0.0137 -0.0651 -0.2119
  132MOL    C5844860   0.416   0.347   7.610 -0.1555  0.8514 -0.1305
  132MOL    C5944861   0.338   0.284   7.721 -0.1141 -0.1725  0.4693
  132MOL    O6044862   0.212   0.290   7.730  0.2144  0.0937  0.1926
  132MOL    H6144863   0.239   0.024   0.119  0.0817  0.1266  0.6775
  132MOL    H6244864   0.195   0.089   7.873  0.5694  1.0564 -0.0948
  132MOL    H6344865   0.474   0.113   0.064  0.6333  0.0378 -2.4716
  132MOL    H6444866   0.605   0.302   7.859 -1.1065  0.2822 -0.1360
  132MOL    H6544867   0.611   0.148   7.756  0.7567  0.3163 -1.7143
  132MOL    H6644868   0.623   0.424   7.672 -1.2273  0.5687  0.5403
  132MOL    H6744869   0.626   0.278   7.580 -0.9132  0.6413 -1.5690
  132MOL    H6844870   0.384   0.452   7.614 -0.2626  0.7555  2.6532
  132MOL    H6944871   0.400   0.300   7.513 -2.6365  2.4439 -0.5541
  132MOL    C7044872   0.339   0.266   0.128 -0.5327  0.1203  0.1465
  132MOL    C7144873   0.375   0.247   0.275  0.2670 -0.5678 -0.5145
  132MOL    N7244874   0.305   0.133   0.334 -0.0807  0.7348  0.0842
  132MOL    C7344875   0.165   0.144   0.357  0.8140  0.0776  0.2408
  132MOL    C7444876   0.118   0.018   0.421  0.5274  0.4756 -1.0268
  132MOL    C7544877   0.236   7.829   0.416 -0.2434 -0.7839 -0.3063
  132MOL    C7644878   0.353   0.013   0.381  0.3292 -0.2789  0.2741
  132MOL    O7744879   0.473   7.880   0.389 -0.2249 -0.0291  0.3286
  132MOL    H7844880   0.230   0.275   0.125 -0.8529 -3.0114  1.0035
  132MOL    H7944881   0.384   0.356   0.086  0.9503 -0.5536  0.2437
  132MOL    H8044882   0.328   0.337   0.315  2.0204  0.8127 -1.4423
  132MOL    H8144883   0.143   0.236   0.411  2.1701  0.4579  0.1524
  132MOL    H8244884   0.121   0.156   0.258 -0.0034  2.6218  0.8745
  132MOL    H8344885   0.080   0.032   0.522 -1.7773  1.4970 -1.9875
  132MOL    H8444886   0.029   7.877   0.377 -0.9683  3.0704 -0.8882
  132MOL    H8544887   0.261   7.791   0.515  2.0926  0.8353 -0.2080
  132MOL    H8644888   0.226   7.753   0.339  0.8425  0.1466 -1.4177
  132MOL    C8744889   0.529   0.246   0.300 -0.2844  0.2374  0.2858
  132MOL    C8844890   0.615   0.376   0.283  0.5605 -0.2284  0.6644
  132MOL    N8944891   0.547   0.495   0.338 -0.1619  0.4452 -0.3759
  132MOL    C9044892   0.495   0.599   0.251  0.0143 -0.3069 -0.2284
  132MOL    C9144893   0.393   0.661   0.350 -0.0615  0.6076  0.1222
  132MOL    C9244894   0.404   0.589   0.486 -0.4673 -0.0834 -0.2616
  132MOL    C9344895   0.524   0.497   0.470 -0.4782  0.0108  0.0659
  132MOL    O9444896   0.578   0.429   0.558  0.1727  0.2591  0.2923
  132MOL    H9544897   0.585   0.164   0.256 -1.1164 -0.1915  0.0121
  132MOL    H9644898   0.537   0.228   0.407  1.7063  1.2628  0.3204
  132MOL    H9744899   0.618   0.390   0.175  0.4422  0.1163  0.7048
  132MOL    H9844900   0.578   0.664   0.224  0.1319 -0.0127  0.8142
  132MOL    H9944901   0.449   0.582   0.153 -2.5755 -2.2173  1.2434
  132MOL   H10044902   0.390   0.769   0.363 -1.5493  0.4930  0.7472
  132MOL   H10144903   0.301   0.637   0.296 -0.6045  0.0997  1.2630
  132MOL   H10244904   0.434   0.667   0.556  1.1585  0.3381 -1.4157
  132MOL   H10344905   0.308   0.545   0.516  0.8194 -2.9039 -0.1404
  132MOL   C10444906   0.763   0.366   0.322 -0.4902 -0.2669 -0.0387
  132MOL   C10544907   0.851   0.238   0.286 -0.0056  0.1567 -0.1241
  132MOL   N10644908   0.866   0.211   0.140 -0.2542 -0.4229 -0.1303
  132MOL   C10744909   0.866   0.073   0.095  0.2960 -0.4325 -0.7690
  132MOL   C10844910   0.905   0.084   7.851 -0.2244 -0.5980 -0.9659
  132MOL   C10944911   0.901   0.234   7.808  0.7808 -0.0042 -0.2311
  132MOL   C11044912   0.883   0.305   0.039 -0.0927  0.5058  0.2435
  132MOL   O11144913   0.876   0.429   0.048  0.0325 -0.3578 -0.1339
  132MOL   H11244914   0.773   0.376   0.430 -1.9190  2.1036 -0.0937
  132MOL   H11344915   0.810   0.458   0.287 -0.2857  0.7633  2.8579
  132MOL   H11444916   0.791   0.159   0.331 -1.0120  1.9249  1.7519
  132MOL   H11544917   0.933   0.012   0.156 -2.0953 -2.1435  0.2355
  132MOL   H11644918   0.761   0.044   0.102  0.4718 -1.2789 -1.4904
  132MOL   H11744919   1.008   0.050   7.852  0.1220  0.4604  0.1789
  132MOL   H11844920   0.847   0.016   7.788 -0.2647 -1.5413  0.0664
  132MOL   H11944921   0.816   0.265   7.746  0.5411  0.0682  0.1333
  132MOL   H12044922   0.990   0.272   7.757 -0.9173  1.8093 -1.9448
  132MOL   C12144923   0.986   0.225   0.363  0.6409  0.3506  0.2998
  132MOL   C12244924   0.966   0.182   0.506  0.1967  0.2447 -0.2540
  132MOL   N12344925   0.921   0.045   0.526  0.0646 -0.9647 -0.0343
  132MOL   C12444926   0.797   0.020   0.592 -0.1244 -0.2722  0.4329
  132MOL   C12544927   0.778   7.771   0.595 -0.5059 -0.1093  0.0926
  132MOL   C12644928   0.900   7.707   0.523 -0.1060  0.5086 -0.5810
  132MOL   C12744929   0.982   7.838   0.492 -0.5862 -1.0018 -0.1753
  132MOL   O12844930   1.096   7.830   0.448  0.8785  0.4764 -0.5727
  132MOL   H12944931   1.042   0.319   0.359 -0.3393  0.8662 -1.7080
  132MOL   H13044932   1.044   0.146   0.314 -0.0705 -0.4014  0.6647
  132MOL   H13144933   0.885   0.240   0.548  0.7171  0.5890  0.2804
  132MOL   H13244934   0.721   0.079   0.540 -1.0279 -0.8307  1.1054
  132MOL   H13344935   0.807   0.049   0.696 -0.3356 -2.1197  0.9895
  132MOL   H13444936   0.769   7.730   0.696 -1.6424 -1.1639 -0.4194
  132MOL   H13544937   0.690   7.744   0.536 -0.7779  0.0352  0.4279
  132MOL   H13644938   0.955   7.637   0.585  0.4318  1.2209 -0.2483
  132MOL   H13744939   0.869   7.657   0.431  1.2746 -0.2422 -0.6513
  132MOL   C13844940   1.082   0.216   0.603 -0.3869  0.0401 -0.3803
  132MOL   C13944941   1.092   0.366   0.650 -0.4135  0.4466 -0.0280
  132MOL   N14044942   0.970   0.426   0.705 -0.1937  0.8726  0.5980
  132MOL   C14144943   0.915   0.539   0.642  0.3010  0.7128  0.0600
  132MOL   C14244944   0.801   0.580   0.733 -0.1677 -0.2821  0.5373
  132MOL   C14344945   0.782   0.470   0.833 -0.4672 -0.1528  0.3300
  132MOL   C14444946   0.894   0.386   0.805 -0.2045  0.1337 -0.9930
  132MOL   O14544947   0.923   0.285   0.866 -0.5124  0.0810 -0.0582
  132MOL   H14644948   1.177   0.187   0.557 -1.2259 -2.4321 -0.6293
  132MOL   H14744949   1.074   0.156   0.694 -1.5595 -0.4521 -0.7964
  132MOL   H14844950   1.107   0.425   0.560 -1.2974 -0.1789 -0.5953
  132MOL   H14944951   0.987   0.621   0.648  2.9345 -1.6179  1.2760
  132MOL   H15044952   0.888   0.519   0.538 -1.8460 -3.0044  1.2795
  132MOL   H15144953   0.812   0.675   0.785  0.4640  0.1798 -0.4118
  132MOL   H15244954   0.716   0.588   0.665  1.6778  2.7814 -1.5458
  132MOL   H15344955   0.689   0.421   0.804  0.6408 -1.4955 -0.9768
  132MOL   H15444956   0.798   0.502   0.936 -0.9421  0.8226  0.1089
  132MOL   C15544957   1.213   0.373   0.747 -0.0779  0.0740 -0.1310
  132MOL   C15644958   1.268   0.523   0.766 -0.1605 -0.0952  0.1247
  132MOL   N15744959   1.361   0.526   0.879 -0.1780 -0.4864  0.3720
  132MOL   C15844960   1.314   0.581   1.009 -0.4534 -0.0692  0.7566
  132MOL   C15944961   1.436   0.572   1.107 -0.0790  0.1745 -0.2251
  132MOL   C16044962   1.555   0.522   1.018 -0.6514  0.3907 -0.2983
  132MOL   C16144963   1.492   0.499   0.878  0.1932  0.0154 -0.1783
  132MOL   O16244964   1.557   0.458   0.783  0.7041  0.4392 -0.5506
  132MOL   H16344965   1.299   0.311   0.720  0.6425  0.9805  0.0658
  132MOL   H16444966   1.195   0.328   0.845 -0.2642 -1.9696 -1.0811
  132MOL   H16544967   1.186   0.587   0.798  0.6032  1.3853 -0.8623
  132MOL   H16644968   1.271   0.680   1.001 -0.7171 -0.1420  1.2866
  132MOL   H16744969   1.226   0.525   1.040 -1.2256  1.5763  1.5298
  132MOL   H16844970   1.452   0.673   1.144 -0.9775  0.2379  0.0211
  132MOL   H16944971   1.416   0.506   1.192 -2.2177  1.3638  0.2399
  132MOL   H17044972   1.623   0.606   1.004  1.3048 -0.9713  0.8375
  132MOL   H17144973   1.605   0.432   1.053  0.7371  0.9253 -0.8633
  132MOL   C17244974   1.330   0.592   0.637  0.0394  0.1640  0.2896
  132MOL   C17344975   1.369   0.741   0.655 -0.1767 -0.2886 -1.1915
  132MOL   N17444976   1.451   0.794   0.547 -0.3848  0.5739  0.2710
  132MOL   C17544977   1.593   0.774   0.566 -0.1707 -0.3325  0.5617
  132MOL   C17644978   1.662   0.851   0.447 -0.2284 -0.1259 -0.4458
  132MOL   C17744979   1.553   0.873   0.345 -0.1869  0.7067 -0.2968
  132MOL   C17844980   1.425   0.842   0.425 -0.3910 -0.3035 -0.1720
  132MOL   O17944981   1.315   0.869   0.384  0.3462 -0.1058 -0.0159
  132MOL   H18044982   1.253   0.590   0.559  1.6378  0.2177 -1.3217
  132MOL   H18144983   1.408   0.527   0.597 -1.8921 -2.0405 -0.0118
  132MOL   H18244984   1.422   0.747   0.750 -1.6586 -0.4248 -0.3284
  132MOL   H18344985   1.613   0.799   0.670 -3.2921 -0.5732  1.2685
  132MOL   H18444986   1.621   0.669   0.555  0.1429 -0.1988  0.0866
  132MOL   H18544987   1.737   0.790   0.397 -1.3104 -0.1860 -2.0391
  132MOL   H18644988   1.702   0.946   0.485 -0.0449 -0.7002  0.8223
  132MOL   H18744989   1.542   0.977   0.315 -0.0196  1.4204  1.9757
  132MOL   H18844990   1.570   0.812   0.257  1.4761  0.4802  0.1575
  132MOL   C18944991   1.240   0.827   0.677  0.1352 -0.3210 -0.4974
  132MOL   C19044992   1.256   0.989   0.671  0.3589  0.4449 -0.3605
  132MOL   N19144993   1.132   1.056   0.710 -0.2747  0.2976  0.0922
  132MOL   C19244994   1.120   1.197   0.670 -0.2245  0.9309 -0.4426
  132MOL   C19344995   1.017   1.257   0.766  0.0738  0.6505  0.7155
  132MOL   C19444996   0.936   1.140   0.821 -0.5297 -0.4041 -0.0830
  132MOL   C19544997   1.028   1.021   0.790  0.1624  0.4590 -0.3490
  132MOL   O19644998   1.003   0.911   0.834  0.1066  0.0612 -0.0526
  132MOL   H19744999   1.208   0.815   0.780  2.9108 -2.2365  0.1891
  132MOL   H19845000   1.153   0.807   0.614 -0.4653  0.6145  0.0178
  132MOL   H19945001   1.266   1.029   0.570  1.6446  2.6444  0.5924
  132MOL   H20045002   1.210   1.258   0.675 -0.3571  1.1150 -0.3139
  132MOL   H20145003   1.089   1.199   0.566  0.4660  0.3471 -0.6659
  132MOL   H20245004   1.069   1.306   0.848  0.0609  0.3089  0.9317
  132MOL   H20345005   0.971   1.339   0.712  0.9450  0.1465 -0.8113
  132MOL   H20445006   0.922   1.128   0.928 -1.3897 -2.1506 -0.3842
  132MOL   H20545007   0.843   1.124   0.767 -0.5253 -2.2833  0.4424
  132MOL   C20645008   1.376   1.051   0.757  0.0413 -0.2525 -0.3126
  132MOL   C20745009   1.386   1.030   0.897  0.0096  0.3614  0.7865
  132MOL   N20845010   1.532   1.039   0.933  1.0215  0.6244  0.6283
  132MOL   C20945011   1.596   0.910   0.964 -0.0178  0.2586 -0.3094
  132MOL   C21045012   1.741   0.938   0.984  0.1115 -0.7404 -0.7948
  132MOL   C21145013   1.758   1.088   0.973 -0.1233 -0.5110  0.4086
  132MOL   C21245014   1.617   1.139   0.945 -0.1819 -0.1694  0.1118
  132MOL   O21345015   1.588   1.256   0.938  0.6015  0.1240 -0.0111
  132MOL   H21445016   1.385   1.158   0.739  2.1848 -0.3020  0.2925
  132MOL   H21545017   1.467   1.020   0.704  0.6389 -0.3928  0.7750
  132MOL   H21645018   1.355   0.927   0.914  2.0876 -0.0896  2.1402
  132MOL   H21745019   1.554   0.869   1.056 -2.2674  0.3617 -1.2409
  132MOL   H21845020   1.574   0.832   0.892 -0.6209 -0.1542  0.3167
  132MOL   H21945021   1.765   0.913   1.087 -1.7977 -1.0489 -0.4242
  132MOL   H22045022   1.815   0.884   0.925  2.9420  1.1451  0.8568
  132MOL   H22145023   1.803   1.124   1.066  0.7575 -4.4550  1.6259
  132MOL   H22245024   1.834   1.110   0.898 -1.2119  1.0436 -0.2707
  132MOL   C22345025   1.294   1.117   0.987  0.1423  0.1907  0.6629
  132MOL   C22445026   1.342   1.155   1.121 -0.4342 -0.8391 -0.5627
  132MOL   N22545027   1.270   1.279   1.171 -0.4395  0.1395 -0.4180
  132MOL   C22645028   1.315   1.413   1.144  0.2415 -0.3716  0.3806
  132MOL   C22745029   1.196   1.506   1.143 -0.7355  0.5597  0.1129
  132MOL   C22845030   1.090   1.429   1.207 -0.1710  0.4290  0.2784
  132MOL   C22945031   1.146   1.289   1.226  0.4818  0.0952 -0.4281
  132MOL   O23045032   1.074   1.202   1.279 -0.3639 -0.7556  0.0568
  132MOL   H23145033   1.200   1.062   0.996  0.0683  0.3976  1.1074
  132MOL   H23245034   1.265   1.206   0.932 -0.8575 -0.6955 -0.2759
  132MOL   H23345035   1.447   1.184   1.127 -0.5259 -0.5929 -0.0872
  132MOL   H23445036   1.394   1.430   1.217 -0.6723  1.2034  1.0328
  132MOL   H23545037   1.356   1.410   1.043  0.4708  3.6806  0.2952
  132MOL   H23645038   1.229   1.589   1.205 -2.9248  0.4948  1.4390
  132MOL   H23745039   1.172   1.543   1.043  3.3561  2.4091 -0.2475
  132MOL   H23845040   1.051   1.478   1.297 -1.2231  0.9155 -0.4378
  132MOL   H23945041   1.008   1.416   1.137  0.3785 -0.0080 -0.2870
  132MOL   C24045042   1.324   1.030   1.222 -0.1853  0.1637  0.0054
  132MOL   C24145043   1.377   1.051   1.363 -0.5255  0.2687 -0.4502
  132MOL   N24245044   1.293   0.969   1.457  0.2740  0.0738  0.7108
  132MOL   C24345045   1.219   1.028   1.564  0.4448 -0.1737 -0.8330
  132MOL   C24445046   1.161   0.914   1.646 -0.1921  0.3624 -0.8266
  132MOL   C24545047   1.192   0.788   1.564  0.1490  0.1858 -0.0694
  132MOL   C24645048   1.282   0.834   1.453 -0.2617 -0.3414  0.6146
  132MOL   O24745049   1.321   0.762   1.355 -0.0446 -0.7708  0.2883
  132MOL   H24845050   1.363   0.942   1.170  0.9219  1.1421 -0.8289
  132MOL   H24945051   1.219   1.003   1.235 -0.2036  0.3307  0.2070
  132MOL   H25045052   1.364   1.158   1.378 -0.1322  0.3137 -0.4159
  132MOL   H25145053   1.274   1.101   1.623 -2.0845  1.6749 -0.7007
  132MOL   H25245054   1.141   1.088   1.519 -2.4682 -3.0926  0.1259
  132MOL   H25345055   1.210   0.911   1.743 -0.5915  0.2382 -0.6267
  132MOL   H25445056   1.056   0.937   1.664 -0.6559  0.2720 -3.2879
  132MOL   H25545057   1.230   0.707   1.627  1.1197  0.3624 -0.4263
  132MOL   H25645058   1.106   0.744   1.513  1.6076 -0.3852 -2.0820
  132MOL   C25745059   1.528   1.021   1.373  0.1496  0.4839  0.9757
  132MOL   C25845060   1.592   1.056   1.508 -0.8402 -0.0096  0.4329
  132MOL   N25945061   1.714   0.974   1.529  0.3971 -0.5771 -0.1927
  132MOL   C26045062   1.718   0.860   1.621  0.3629 -0.5281  0.3504
  132MOL   C26145063   1.872   0.833   1.634  0.5786 -0.0858  0.5727
  132MOL   C26245064   1.923   0.880   1.494 -0.3395  0.0914  0.1769
  132MOL   C26345065   1.825   0.981   1.453  0.7953  0.3760 -0.5554
  132MOL   O26445066   1.838   1.051   1.355 -0.0473  0.1287  0.8119
  132MOL   H26545067   1.591   1.062   1.293 -0.7309  2.0870  1.0859
  132MOL   H26645068   1.540   0.913   1.366  0.8269  0.5321  1.3235
  132MOL   H26745069   1.542   1.014   1.595 -0.1682  1.1438  1.3847
  132MOL   H26845070   1.675   0.879   1.720 -2.0311 -1.1253 -0.5195
  132MOL   H26945071   1.667   0.771   1.584 -1.6186  0.4866  0.5692
  132MOL   H27045072   1.909   0.899   1.713  0.1799  0.1563  0.5589
  132MOL   H27145073   1.899   0.729   1.650 -0.1698 -0.2747  0.6495
  132MOL   H27245074   2.026   0.914   1.509 -0.4779  0.3391  0.5944
  132MOL   H27345075   1.930   0.801   1.419 -1.1885 -0.0298  0.2278
  132MOL   C27445076   1.617   1.208   1.533  0.0393  0.2769  0.4597
  132MOL   C27545077   1.565   1.262   1.670  0.3819  1.0732 -0.4982
  132MOL   N27645078   1.632   1.195   1.785 -0.3815  0.2783 -0.4504
  132MOL   C27745079   1.561   1.115   1.885 -0.3837 -0.4374 -0.5861
  132MOL   C27845080   1.674   1.068   1.984 -0.4363 -0.0043  0.2625
  132MOL   C27945081   1.807   1.113   1.923 -0.6035  0.7410  0.8639
  132MOL   C28045082   1.765   1.199   1.804  0.0722  0.0161 -0.3021
  132MOL   O28145083   1.850   1.239   1.728  0.3635 -0.5187 -0.0469
  132MOL   H28245084   1.566   1.261   1.452  2.0150 -1.1408 -1.7565
  132MOL   H28345085   1.718   1.240   1.508 -0.2700  2.4155  1.7851
  132MOL   H28445086   1.461   1.232   1.673  0.1875  1.5677 -1.7618
  132MOL   H28545087   1.485   1.168   1.942 -0.6750 -1.3738 -0.0983
  132MOL   H28645088   1.507   1.031   1.841 -2.5517 -0.1729  1.4762
  132MOL   H28745089   1.652   1.122   2.076 -1.9796  1.1114 -0.7358
  132MOL   H28845090   1.688   0.962   2.007 -0.4603  0.0714  0.6201
  132MOL   H28945091   1.880   1.162   1.988 -1.6408  4.0796 -0.3600
  132MOL   H29045092   1.858   1.025   1.884  0.2291  1.6154 -0.0426
  132MOL   C29145093   1.577   1.413   1.698  0.3471 -0.6927 -0.2976
  132MOL   C29245094   1.488   1.511   1.616 -0.1908  0.9930 -0.4146
  132MOL   N29345095   1.344   1.492   1.656  0.1346  0.4017 -0.0114
  132MOL   C29445096   1.247   1.467   1.544 -0.0214  0.2390  0.2597
  132MOL   C29545097   1.111   1.436   1.603 -0.1112  0.4240 -0.1686
  132MOL   C29645098   1.128   1.495   1.754  0.5575 -0.0233 -0.1408
  132MOL   C29745099   1.277   1.502   1.773  0.2071  0.0876  0.2615
  132MOL   O29845100   1.326   1.526   1.883 -0.1811 -0.2070 -0.3217
  132MOL   H29945101   1.682   1.441   1.695 -0.2100  1.7142  1.2209
  132MOL   H30045102   1.552   1.437   1.801 -0.7522 -0.5143 -0.5888
  132MOL   H30145103   1.500   1.477   1.513  0.5060  3.5142 -1.1845
  132MOL   H30245104   1.253   1.562   1.490  0.4821  1.0249  1.6668
  132MOL   H30345105   1.280   1.382   1.485  0.4020 -1.2391  2.5899
  132MOL   H30445106   1.031   1.487   1.549 -0.7958 -1.6320 -1.1721
  132MOL   H30545107   1.099   1.327   1.604  0.6726  0.3390 -0.2850
  132MOL   H30645108   1.082   1.593   1.765  0.2722 -0.4489  2.9487
  132MOL   H30745109   1.088   1.440   1.839  1.7871  0.5716  0.8397
  132MOL   C30845110   1.531   1.653   1.630  0.8141  0.5306  0.0796
  132MOL   C30945111   1.664   1.692   1.563 -0.5297 -0.2761  0.4887
  132MOL   N31045112   1.666   1.649   1.420  0.1344  0.3755  0.6126
  132MOL   C31145113   1.776   1.571   1.364  0.0192 -0.3819  0.7367
  132MOL   C31245114   1.729   1.540   1.225 -0.1868 -0.1969 -0.8314
  132MOL   C31345115   1.618   1.627   1.188 -0.5058 -0.4336  0.1915
  132MOL   C31445116   1.570   1.670   1.327  0.3676  0.1114 -0.4332
  132MOL   O31545117   1.453   1.712   1.346 -0.3553 -0.9218  0.3261
  132MOL   H31645118   1.534   1.672   1.738 -0.9418  0.0084  0.2455
  132MOL   H31745119   1.458   1.732   1.611  1.0081  0.6924  0.0116
  132MOL   H31845120   1.746   1.636   1.609 -0.3456 -0.0555  0.4332
  132MOL   H31945121   1.865   1.633   1.370 -0.8717  1.0270 -0.1371
  132MOL   H32045122   1.800   1.482   1.421  0.0949 -1.0984 -0.4034
  132MOL   H32145123   1.812   1.554   1.155  1.2710  1.2614  1.1267
  132MOL   H32245124   1.695   1.436   1.225 -0.5995 -0.0655 -0.2210
  132MOL   H32345125   1.647   1.708   1.121 -0.1201  1.0959  2.1504
  132MOL   H32445126   1.538   1.575   1.134 -1.4953  0.4945  0.7334
  132MOL   C32545127   1.694   1.847   1.562 -1.2089  0.2148 -0.7720
  132MOL   C32645128   1.695   1.916   1.702 -0.5408  0.0365  0.4211
  132MOL   N32745129   1.740   2.057   1.705  0.3355 -0.0866  0.0245
  132MOL   C32845130   1.811   2.108   1.815  0.1454  0.2003  0.2648
  132MOL   C32945131   1.824   2.262   1.797  0.6186  0.3890  0.5263
  132MOL   C33045132   1.792   2.287   1.651 -0.1431  0.1257  0.0495
  132MOL   C33145133   1.731   2.154   1.612  0.4261 -0.1434  0.2618
  132MOL   O33245134   1.678   2.141   1.502 -0.3744 -0.3687  0.1453
  132MOL   H33345135   1.626   1.896   1.491  0.4087  1.5469 -1.4397
  132MOL   H33445136   1.790   1.873   1.517 -0.8422 -1.9244 -1.2585
  132MOL   H33545137   1.762   1.860   1.768 -1.7255  1.5139  2.9649
  132MOL   H33645138   1.768   2.076   1.910 -1.3220 -0.4510 -0.5992
  132MOL   H33745139   1.913   2.072   1.807 -0.2071 -0.8317  0.2751
  132MOL   H33845140   1.757   2.315   1.865  0.6112 -1.2146  1.7873
  132MOL   H33945141   1.926   2.281   1.830  1.8472 -1.7736 -1.8972
  132MOL   H34045142   1.731   2.376   1.646 -2.6895 -1.5523  0.2163
  132MOL   H34145143   1.887   2.311   1.603  0.3082 -0.8062  0.4575
  132MOL   H34245144   1.599   1.912   1.754  0.2019 -1.1723  1.7460
  133MOL     C145145   5.127   6.769   4.058 -0.5413  0.6034  0.0449
  133MOL     C245146   5.120   6.902   4.132 -0.2755 -0.3159  0.5835
  133MOL     N345147   5.121   7.017   4.040  0.2832  0.0062  0.4835
  133MOL     C445148   5.216   7.125   4.056  0.7244  0.3687  0.2165
  133MOL     C545149   5.181   7.227   3.949 -0.2997  0.2212  0.2645
  133MOL     C645150   5.088   7.161   3.858 -0.3989 -1.3583  0.0390
  133MOL     C745151   5.041   7.039   3.937  0.1170 -0.1148 -0.4812
  133MOL     O845152   4.941   6.978   3.910  0.5051 -0.4645 -0.1516
  133MOL     H945153   5.128   6.682   4.125  0.5262  1.1398  0.7393
  133MOL    H1045154   5.043   6.753   3.991 -0.1134 -1.5347 -0.0149
  133MOL    H1145155   5.211   6.907   4.192  1.2240  0.2911 -1.6704
  133MOL    H1245156   5.209   7.164   4.158  2.1063  0.2665  0.3672
  133MOL    H1345157   5.313   7.077   4.046  0.6160  0.4302 -1.2371
  133MOL    H1445158   5.137   7.322   3.980 -1.4126  0.5224 -2.1475
  133MOL    H1545159   5.262   7.251   3.881 -0.6623  1.0969  0.1283
  133MOL    H1645160   5.012   7.232   3.825 -0.1254 -1.2824 -0.4345
  133MOL    H1745161   5.130   7.129   3.762 -0.1265  2.8218 -1.3526
  133MOL    H1845162   5.217   6.760   3.997 -0.2159 -0.7922  0.7007
  133MOL    C1945163   4.995   6.910   4.216  0.4460 -0.0612 -0.1333
  133MOL    C2045164   4.995   6.841   4.349 -0.0467 -0.6736  0.3216
  133MOL    N2145165   5.087   6.910   4.439  0.6844  0.0292 -0.3864
  133MOL    C2245166   5.189   6.835   4.510 -0.1500  0.2985  0.5022
  133MOL    C2345167   5.248   6.930   4.613 -0.2847 -0.0587 -0.3146
  133MOL    C2445168   5.176   7.057   4.604  0.2026 -0.4965 -0.3124
  133MOL    C2545169   5.074   7.032   4.497  0.4335  0.2069 -0.1981
  133MOL    O2645170   4.987   7.115   4.464 -0.0989 -0.1147 -0.3826
  133MOL    H2745171   4.916   6.876   4.149  1.9182 -1.6605 -1.0771
  133MOL    H2845172   4.966   7.014   4.230  2.2257  0.4882 -0.3669
  133MOL    H2945173   5.043   6.745   4.329  0.6459  0.2769 -2.8004
  133MOL    H3045174   5.150   6.742   4.552  0.5167  0.1628  0.8188
  133MOL    H3145175   5.266   6.788   4.449 -1.2231 -2.7805  1.4188
  133MOL    H3245176   5.239   6.908   4.719 -0.0002  0.1317 -0.2523
  133MOL    H3345177   5.355   6.940   4.594  0.3149 -3.3223  1.0637
  133MOL    H3445178   5.121   7.079   4.695 -2.0939  1.9513 -2.1812
  133MOL    H3545179   5.237   7.143   4.577 -0.9095  0.0798 -1.0601
  133MOL    C3645180   4.843   6.834   4.391 -0.3403 -0.1963  0.1247
  133MOL    C3745181   4.761   6.713   4.334 -0.2970 -0.5636  0.0613
  133MOL    N3845182   4.803   6.573   4.369 -0.3874 -0.0968 -0.5411
  133MOL    C3945183   4.832   6.483   4.263  0.1390 -0.4502 -0.0188
  133MOL    C4045184   4.863   6.352   4.335 -0.1311 -0.4703 -0.2593
  133MOL    C4145185   4.884   6.381   4.483 -0.0467 -0.1530 -0.1337
  133MOL    C4245186   4.838   6.526   4.488 -0.8328  0.1489  0.0964
  133MOL    O4345187   4.832   6.576   4.597  0.2941  0.0658  0.3730
  133MOL    H4445188   4.791   6.924   4.361  0.3588  0.6339  1.3686
  133MOL    H4545189   4.838   6.822   4.499 -2.4653  2.7440  0.3891
  133MOL    H4645190   4.774   6.710   4.226  1.5259 -0.4710  0.2624
  133MOL    H4745191   4.749   6.467   4.194  0.1332 -0.3697 -0.0300
  133MOL    H4845192   4.920   6.511   4.204  1.0913 -1.8473  0.7275
  133MOL    H4945193   4.790   6.274   4.310 -2.4660  1.8370 -0.9095
  133MOL    H5045194   4.955   6.306   4.299 -0.1193 -0.3150 -0.4239
  133MOL    H5145195   4.826   6.322   4.555  3.2996 -1.0421  1.9198
  133MOL    H5245196   4.990   6.383   4.506  0.2404 -2.1779 -1.1168
  133MOL    C5345197   4.611   6.726   4.355 -0.0198  0.1984 -0.9786
  133MOL    C5445198   4.530   6.824   4.268  0.5516 -0.5804 -0.4187
  133MOL    N5545199   4.524   6.785   4.126 -0.0706 -0.3464  0.6377
  133MOL    C5645200   4.581   6.870   4.022  0.5746 -0.1847  0.6961
  133MOL    C5745201   4.542   6.807   3.889 -0.2692  0.7677 -0.2952
  133MOL    C5845202   4.466   6.682   3.924  0.2760  0.2130 -0.1417
  133MOL    C5945203   4.464   6.673   4.074 -0.0022 -0.0412 -0.3307
  133MOL    O6045204   4.417   6.580   4.143 -0.1300  0.5293 -0.4024
  133MOL    H6145205   4.601   6.745   4.462 -0.4438 -1.9202 -0.6046
  133MOL    H6245206   4.565   6.627   4.345  0.6514 -0.2149 -0.0536
  133MOL    H6345207   4.575   6.923   4.264 -2.4607  0.8086 -1.1042
  133MOL    H6445208   4.545   6.971   4.037  0.1115 -0.5251  1.9288
  133MOL    H6545209   4.689   6.876   4.036  0.7445 -0.2167 -0.4858
  133MOL    H6645210   4.469   6.880   3.854 -1.0739  1.6899  3.1365
  133MOL    H6745211   4.620   6.792   3.815 -0.7293  0.4180 -0.7185
  133MOL    H6845212   4.362   6.702   3.898 -0.0082 -0.3104  0.6004
  133MOL    H6945213   4.495   6.586   3.881 -0.6094 -0.7083  1.2984
  133MOL    C7045214   4.385   6.836   4.329 -0.0702 -0.0613  0.7746
  133MOL    C7145215   4.373   6.910   4.462 -0.1140 -0.0784 -0.7045
  133MOL    N7245216   4.408   7.050   4.442  0.3586 -0.2492 -0.5203
  133MOL    C7345217   4.531   7.091   4.508  0.2752  0.7037 -0.2085
  133MOL    C7445218   4.535   7.239   4.485  0.6625  0.0147 -0.4284
  133MOL    C7545219   4.434   7.274   4.375 -0.0395  0.0388 -0.7146
  133MOL    C7645220   4.350   7.150   4.369  0.3105  0.6391 -1.1856
  133MOL    O7745221   4.243   7.144   4.312  0.8723  0.2613  0.0806
  133MOL    H7845222   4.341   6.736   4.333  0.4847 -0.4706 -2.2450
  133MOL    H7945223   4.329   6.889   4.252 -1.4282 -0.2059  1.6493
  133MOL    H8045224   4.444   6.875   4.537 -0.4348  0.1043 -0.3164
  133MOL    H8145225   4.507   7.058   4.609  0.4696  0.3549 -0.2756
  133MOL    H8245226   4.615   7.030   4.475  1.1147  0.7878  1.6910
  133MOL    H8345227   4.510   7.292   4.577  0.8229 -0.0093 -0.3717
  133MOL    H8445228   4.637   7.264   4.457  1.1884 -1.3056  0.2863
  133MOL    H8545229   4.364   7.350   4.408  1.5913  1.3582 -0.2755
  133MOL    H8645230   4.475   7.307   4.280 -0.5397  0.1974 -0.8794
  133MOL    C8745231   4.236   6.893   4.523 -0.6918  0.9206  0.6286
  133MOL    C8845232   4.211   6.761   4.596 -0.1330  0.1258 -0.1191
  133MOL    N8945233   4.292   6.770   4.723  0.2002 -0.0183 -0.4278
  133MOL    C9045234   4.395   6.668   4.746 -0.2094  0.4717 -0.2099
  133MOL    C9145235   4.450   6.693   4.889 -0.2050  0.0329 -0.1696
  133MOL    C9245236   4.374   6.817   4.943  0.8535  0.9293 -0.1662
  133MOL    C9345237   4.269   6.846   4.834  0.0053 -0.0598  0.2554
  133MOL    O9445238   4.182   6.935   4.848 -0.0050  0.1762  0.0782
  133MOL    H9545239   4.166   6.905   4.440  0.4510  0.5767 -0.4048
  133MOL    H9645240   4.209   6.972   4.593 -4.0174  0.1913  0.2701
  133MOL    H9745241   4.247   6.683   4.529  0.6673  0.8675 -0.5726
  133MOL    H9845242   4.354   6.568   4.728  2.0817 -0.7755  1.1473
  133MOL    H9945243   4.469   6.677   4.667  0.6133  0.0437  0.4973
  133MOL   H10045244   4.432   6.605   4.951  0.4483 -0.3612 -0.5381
  133MOL   H10145245   4.557   6.713   4.883  0.3420 -2.1039  1.7648
  133MOL   H10245246   4.311   6.777   5.022  1.2490 -0.2567 -0.4410
  133MOL   H10345247   4.425   6.908   4.977  2.6177  0.3348 -1.1573
  133MOL   C10445248   4.054   6.735   4.631 -0.1804  1.0227 -0.5517
  133MOL   C10545249   3.967   6.721   4.504 -0.3754  0.7297 -0.2360
  133MOL   N10645250   4.024   6.637   4.398 -0.5201  0.1294  0.1797
  133MOL   C10745251   4.030   6.692   4.269  0.6100  0.7138  0.0158
  133MOL   C10845252   4.079   6.566   4.184  0.4109 -0.3190 -0.5816
  133MOL   C10945253   4.126   6.459   4.276  0.5937 -0.4144  0.4677
  133MOL   C11045254   4.069   6.512   4.408 -0.9424  0.5467 -0.4624
  133MOL   O11145255   4.074   6.448   4.509 -0.0228 -0.0711 -0.2246
  133MOL   H11245256   4.007   6.808   4.697 -1.4476 -1.9512  1.9581
  133MOL   H11345257   4.050   6.641   4.686  0.9336  0.5137 -1.3125
  133MOL   H11445258   3.965   6.821   4.463 -0.9456  0.5667 -0.6071
  133MOL   H11545259   3.932   6.728   4.237 -0.2501 -1.7574 -0.2839
  133MOL   H11645260   4.103   6.772   4.262 -0.7752  2.1011  1.0348
  133MOL   H11745261   3.993   6.521   4.135 -1.1253 -0.1401  1.8315
  133MOL   H11845262   4.148   6.601   4.108  1.8533  0.5215  1.0707
  133MOL   H11945263   4.234   6.472   4.290  0.6680  0.0634 -0.4901
  133MOL   H12045264   4.094   6.359   4.247 -0.0132  0.4704 -2.0881
  133MOL   C12145265   3.822   6.669   4.529  0.8066 -0.0272 -0.2111
  133MOL   C12245266   3.709   6.741   4.448 -0.1698  0.0801 -0.1015
  133MOL   N12345267   3.581   6.668   4.468 -0.4790 -0.7367  0.4358
  133MOL   C12445268   3.520   6.596   4.359 -0.5012 -0.0482 -0.7226
  133MOL   C12545269   3.372   6.580   4.410  0.0085  0.2376  1.4331
  133MOL   C12645270   3.382   6.595   4.561 -0.2604 -0.1355 -0.0897
  133MOL   C12745271   3.510   6.672   4.581 -0.3771  0.1832  0.4912
  133MOL   O12845272   3.545   6.720   4.689  0.2107  0.2560  0.4108
  133MOL   H12945273   3.790   6.685   4.632  1.7578  1.3473 -0.1042
  133MOL   H13045274   3.808   6.565   4.500 -0.3502  0.8005 -2.8408
  133MOL   H13145275   3.737   6.739   4.342  0.6365 -0.1608  0.1122
  133MOL   H13245276   3.575   6.503   4.344  0.2804  0.7195 -2.7624
  133MOL   H13345277   3.524   6.656   4.268  0.8797  0.2756 -0.4595
  133MOL   H13445278   3.309   6.653   4.358 -0.9760 -0.1320  2.0846
  133MOL   H13545279   3.342   6.483   4.369  0.3212  0.7170  0.0291
  133MOL   H13645280   3.297   6.653   4.596  0.7997  2.3395 -1.4719
  133MOL   H13745281   3.397   6.501   4.614  1.6021 -0.7136 -1.5618
  133MOL   C13845282   3.699   6.892   4.485  0.0003  0.0462  0.2222
  133MOL   C13945283   3.699   6.989   4.363 -0.6697 -0.3359 -0.2573
  133MOL   N14045284   3.596   6.954   4.267  0.5148  0.6125  0.1150
  133MOL   C14145285   3.629   6.957   4.121 -0.1273 -0.2163  1.0032
  133MOL   C14245286   3.491   6.983   4.048  0.2682 -0.1496  0.6174
  133MOL   C14345287   3.388   6.926   4.154  0.5839 -0.3871 -0.6374
  133MOL   C14445288   3.461   6.941   4.288 -0.2151  0.0599  0.1852
  133MOL   O14545289   3.411   6.951   4.400  0.0280 -0.5967  0.5792
  133MOL   H14645290   3.790   6.921   4.537  1.5198  1.8833 -3.3120
  133MOL   H14745291   3.615   6.921   4.548 -0.9244  0.4328 -1.1653
  133MOL   H14845292   3.798   6.979   4.318 -1.9968 -2.5084 -2.8240
  133MOL   H14945293   3.700   7.031   4.085 -0.9862  0.2345  0.1920
  133MOL   H15045294   3.680   6.863   4.105 -0.2998 -0.2105  0.3916
  133MOL   H15145295   3.480   7.088   4.020 -0.7631 -0.7691 -1.3773
  133MOL   H15245296   3.478   6.927   3.956 -2.8907  1.3573  0.0875
  133MOL   H15345297   3.358   6.825   4.125 -0.3940 -0.1661 -0.3897
  133MOL   H15445298   3.295   6.982   4.157  0.8397 -0.0330  1.7690
  133MOL   C15545299   3.693   7.138   4.405 -0.4020  0.0560 -0.3042
  133MOL   C15645300   3.697   7.240   4.294 -0.0005 -0.5539 -0.6530
  133MOL   N15745301   3.647   7.371   4.337 -0.0292 -0.4913  0.9176
  133MOL   C15845302   3.503   7.403   4.322 -0.1987  0.0730 -0.2658
  133MOL   C15945303   3.477   7.527   4.411  1.3957 -0.5129  0.7147
  133MOL   C16045304   3.615   7.567   4.449 -0.0004 -0.8918  0.2894
  133MOL   C16145305   3.711   7.468   4.404 -0.4223  0.3347 -0.3719
  133MOL   O16245306   3.832   7.473   4.426  0.1714 -0.2920 -0.2918
  133MOL   H16345307   3.776   7.153   4.473 -1.5844 -1.4346  1.5302
  133MOL   H16445308   3.610   7.155   4.474  2.7917  0.9276  3.4405
  133MOL   H16545309   3.626   7.219   4.214 -0.3093  2.2509 -1.1770
  133MOL   H16645310   3.484   7.440   4.221 -0.3438 -0.5154 -0.4616
  133MOL   H16745311   3.430   7.324   4.344  0.4162 -0.2086  0.8011
  133MOL   H16845312   3.428   7.605   4.353 -0.5262 -0.8444  1.8497
  133MOL   H16945313   3.425   7.496   4.501  1.1778 -1.1464  0.3785
  133MOL   H17045314   3.647   7.650   4.386  0.1644 -1.6431 -0.6377
  133MOL   H17145315   3.625   7.596   4.553  1.4216  1.7220 -0.5241
  133MOL   C17245316   3.832   7.241   4.229  0.0914 -0.0990 -0.4233
  133MOL   C17345317   3.851   7.333   4.113 -0.3043 -0.2204  0.2524
  133MOL   N17445318   3.995   7.362   4.091  0.2071 -0.5758  0.5098
  133MOL   C17545319   4.065   7.471   4.161  0.5225 -0.0983  0.3503
  133MOL   C17645320   4.206   7.466   4.104 -0.2203  0.2497 -0.4178
  133MOL   C17745321   4.214   7.349   4.007 -0.2271  0.0988  0.0116
  133MOL   C17845322   4.081   7.285   4.016 -0.5193 -0.1815  0.2802
  133MOL   O17945323   4.047   7.185   3.954  0.3431  0.2459 -0.0390
  133MOL   H18045324   3.847   7.142   4.186  0.9622 -1.1042  2.0768
  133MOL   H18145325   3.910   7.253   4.305  1.0694 -0.6383 -1.3305
  133MOL   H18245326   3.813   7.432   4.136 -1.7849 -0.9560  1.0999
  133MOL   H18345327   4.024   7.568   4.132  1.0767 -0.0891 -0.4214
  133MOL   H18445328   4.071   7.465   4.270  0.8599  0.9200  0.3988
  133MOL   H18545329   4.268   7.440   4.189 -0.1071  2.2361  0.1400
  133MOL   H18645330   4.240   7.563   4.070 -0.8148 -0.0747 -1.9809
  133MOL   H18745331   4.235   7.377   3.904  3.4295  3.7013  1.5743
  133MOL   H18845332   4.293   7.279   4.035  1.7491  2.3551  0.2431
  133MOL   C18945333   3.763   7.289   3.988 -0.0905 -0.1715  0.6070
  133MOL   C19045334   3.749   7.410   3.880  0.6853  0.5352 -0.5042
  133MOL   N19145335   3.740   7.354   3.743 -0.1741 -0.3419 -0.2595
  133MOL   C19245336   3.835   7.407   3.650 -0.1044  0.0873 -0.0521
  133MOL   C19345337   3.797   7.352   3.516 -0.2918  0.3135  0.5024
  133MOL   C19445338   3.667   7.263   3.535  0.4236 -0.5696  0.4345
  133MOL   C19545339   3.643   7.283   3.687 -0.1614 -0.6197  0.0314
  133MOL   O19645340   3.548   7.239   3.750 -0.6356 -0.6563 -0.0516
  133MOL   H19745341   3.661   7.269   4.024 -0.2780 -0.2916  0.0155
  133MOL   H19845342   3.801   7.195   3.948 -2.5288 -1.0431  0.2552
  133MOL   H19945343   3.838   7.471   3.899  0.3016  0.6592  0.9484
  133MOL   H20045344   3.837   7.516   3.649 -0.2731  0.1308  1.8219
  133MOL   H20145345   3.930   7.375   3.693 -1.3453  1.0842  3.6200
  133MOL   H20245346   3.787   7.440   3.452 -0.9541  0.0163  0.1842
  133MOL   H20345347   3.874   7.287   3.475 -1.4017 -0.9499  0.3556
  133MOL   H20445348   3.581   7.285   3.471  1.1920 -2.4535 -1.3096
  133MOL   H20545349   3.692   7.158   3.521  1.8032  0.0684 -2.2814
  133MOL   C20645350   3.633   7.502   3.929 -0.0903  0.1478  0.0528
  133MOL   C20745351   3.633   7.642   3.863  0.1056  0.4474  0.1484
  133MOL   N20845352   3.512   7.715   3.910  0.0641 -0.3334  0.3107
  133MOL   C20945353   3.410   7.761   3.814 -0.0116  0.1470 -0.0473
  133MOL   C21045354   3.320   7.858   3.890 -0.5348 -0.1421 -0.0831
  133MOL   C21145355   3.366   7.857   4.037 -0.6764  0.1982 -0.6588
  133MOL   C21245356   3.490   7.771   4.029  0.2120 -0.8394  0.2089
  133MOL   O21345357   3.570   7.752   4.123 -0.0556 -0.1892 -0.8119
  133MOL   H21445358   3.650   7.520   4.035  3.1195 -1.3625 -0.1512
  133MOL   H21545359   3.542   7.444   3.912  0.3508 -0.0405 -1.7140
  133MOL   H21645360   3.611   7.626   3.757  0.1510  1.0731  0.0421
  133MOL   H21745361   3.462   7.807   3.730 -1.6217  0.3807 -0.9297
  133MOL   H21845362   3.356   7.676   3.775  1.9413  0.0376 -2.6400
  133MOL   H21945363   3.339   0.052   3.852 -1.7837  0.0046 -0.3354
  133MOL   H22045364   3.214   7.836   3.881 -0.6594 -0.4184  1.7856
  133MOL   H22145365   3.384   0.045   4.089  0.4546  0.3838 -1.3643
  133MOL   H22245366   3.297   7.803   4.101  0.5618 -1.5912 -0.8038
  133MOL   C22345367   3.769   7.706   3.868  0.7050 -0.0495  0.4323
  133MOL   C22445368   3.771   7.845   3.796 -0.3902 -1.0828 -0.4230
  133MOL   N22545369   3.886   0.023   3.841 -0.5969  0.7027  0.6481
  133MOL   C22645370   4.024   7.904   3.795 -0.0818 -0.6253  0.0446
  133MOL   C22745371   4.116   0.078   3.895  0.0321  0.5432  0.7961
  133MOL   C22845372   4.016   0.155   3.985 -0.5167  0.1620 -0.1083
  133MOL   C22945373   3.876   0.120   3.932 -0.1195  0.1374  0.0386
  133MOL   O23045374   3.769   0.170   3.974  0.2294  0.6081  0.0238
  133MOL   H23145375   3.843   7.644   3.817 -0.7996 -1.7429  0.2845
  133MOL   H23245376   3.810   7.715   3.968 -0.2372 -1.4993  0.9517
  133MOL   H23345377   3.684   7.903   3.827 -0.4617 -1.7596  0.6610
  133MOL   H23445378   4.047   7.798   3.788  0.0187 -0.6144  0.2014
  133MOL   H23545379   4.039   0.034   3.693 -0.1136 -2.7343 -0.7219
  133MOL   H23645380   4.184   0.014   3.951  0.0479 -2.8122 -2.7804
  133MOL   H23745381   4.178   0.147   3.838  1.6920 -1.4593  0.1050
  133MOL   H23845382   4.032   0.122   4.088 -0.6680 -0.6749 -0.3476
  133MOL   H23945383   4.043   0.260   3.982 -0.9165  0.2525 -0.7581
  133MOL   C24045384   3.764   7.833   3.639 -0.0072  0.3472  0.1535
  133MOL   C24145385   3.742   0.056   3.557 -0.9073 -0.4197 -0.6797
  133MOL   N24245386   3.808   0.045   3.423  0.5857  0.3596  0.3278
  133MOL   C24345387   3.922   0.130   3.389 -0.2351 -0.9756  0.4027
  133MOL   C24445388   3.968   0.089   3.241  0.1914  0.4375  0.6268
  133MOL   C24545389   3.882   7.871   3.209  0.3814 -1.0409  0.0331
  133MOL   C24645390   3.793   7.854   3.329  0.2430 -0.1749  0.0701
  133MOL   O24745391   3.723   7.756   3.339 -0.6347  0.3893  0.5601
  133MOL   H24845392   3.688   7.767   3.598  0.5691  1.8622 -3.5656
  133MOL   H24945393   3.848   7.770   3.608  0.8196  1.8988 -0.8115
  133MOL   H25045394   3.793   0.136   3.610  2.3108 -1.8221 -1.5565
  133MOL   H25145395   3.903   0.237   3.401 -0.3080 -0.9022 -0.3174
  133MOL   H25245396   4.000   0.103   3.460 -0.3418 -2.2903  0.0360
  133MOL   H25345397   3.945   0.158   3.160  0.4976 -0.5669 -0.3277
  133MOL   H25445398   4.075   0.068   3.244 -0.1466 -1.5184 -0.1013
  133MOL   H25545399   3.804   7.895   3.137 -0.0559 -1.3490  0.4021
  133MOL   H25645400   3.939   7.784   3.176 -0.4664 -0.9203 -1.8150
  133MOL   C25745401   3.596   0.089   3.552  0.1131 -0.0725  0.2417
  133MOL   C25845402   3.565   0.235   3.495  0.3445  0.4293 -0.2240
  133MOL   N25945403   3.428   0.222   3.435  0.1657 -0.2835  0.6267
  133MOL   C26045404   3.425   0.205   3.291 -0.7518  0.2553 -0.4393
  133MOL   C26145405   3.277   0.179   3.259 -0.1941 -0.7271  0.0926
  133MOL   C26245406   3.196   0.221   3.387 -1.1184 -0.8954 -0.3562
  133MOL   C26345407   3.306   0.217   3.493  0.6700  0.2225  0.1620
  133MOL   O26445408   3.282   0.218   3.613 -0.0737 -0.2270 -0.4655
  133MOL   H26545409   3.552   0.078   3.652  1.0524 -2.1678  0.4444
  133MOL   H26645410   3.557   0.009   3.490 -1.0422  0.2507  0.5288
  133MOL   H26745411   3.641   0.248   3.418  1.4201  0.1784  0.7782
  133MOL   H26845412   3.460   0.295   3.241 -0.2736 -0.4091 -1.3225
  133MOL   H26945413   3.484   0.120   3.255  0.9002  0.7251  1.0670
  133MOL   H27045414   3.241   0.228   3.169 -2.7760  0.7345  1.8618
  133MOL   H27145415   3.260   0.072   3.244 -1.0646 -0.7238  0.9661
  133MOL   H27245416   3.158   0.323   3.381 -0.1355 -0.5297 -0.4242
  133MOL   H27345417   3.113   0.155   3.411 -0.4998 -0.4050  3.5540
  133MOL   C27445418   3.572   0.349   3.601  0.2652  0.0106 -0.6030
  133MOL   C27545419   3.611   0.493   3.546  0.7128 -0.1094 -0.4107
  133MOL   N27645420   3.520   0.531   3.438  0.3007 -0.1058 -0.5910
  133MOL   C27745421   3.574   0.553   3.308 -0.4052 -0.3658 -0.2146
  133MOL   C27845422   3.448   0.593   3.220  0.6142 -0.1634  0.5967
  133MOL   C27945423   3.326   0.596   3.315 -0.8292 -0.4436 -0.0144
  133MOL   C28045424   3.386   0.549   3.452  0.3002  0.3704  0.4955
  133MOL   O28145425   3.321   0.536   3.555 -0.2774  0.1138  0.1132
  133MOL   H28245426   3.660   0.325   3.661 -0.5435 -0.7867  0.2772
  133MOL   H28345427   3.490   0.338   3.671  0.8398  0.4049  0.1390
  133MOL   H28445428   3.707   0.484   3.495  0.5276 -0.1761 -0.7508
  133MOL   H28545429   3.648   0.633   3.316  0.1911 -0.8406 -0.9330
  133MOL   H28645430   3.617   0.461   3.269  0.4984 -0.6781  1.4794
  133MOL   H28745431   3.465   0.687   3.169 -0.2523  0.4582  1.4441
  133MOL   H28845432   3.436   0.512   3.148 -0.7145  0.6599 -0.1204
  133MOL   H28945433   3.279   0.694   3.326  0.5047  0.3359 -0.9810
  133MOL   H29045434   3.246   0.526   3.291 -1.0514  0.0013 -0.5854
  133MOL   C29145435   3.606   0.604   3.655 -0.3249 -0.2814  0.3801
  133MOL   C29245436   3.715   0.594   3.766 -0.6155  0.0911 -0.5511
  133MOL   N29345437   3.850   0.590   3.721  0.3907 -0.0646  0.0564
  133MOL   C29445438   3.946   0.490   3.766 -0.0650 -0.2638 -0.8271
  133MOL   C29545439   4.083   0.558   3.746 -0.0890 -0.1213  0.4712
  133MOL   C29645440   4.058   0.662   3.636 -0.0567  0.1845  0.0947
  133MOL   C29745441   3.910   0.684   3.644 -0.5191  0.1348 -0.0551
  133MOL   O29845442   3.848   0.769   3.586  0.4696 -0.1291  0.1054
  133MOL   H29945443   3.512   0.580   3.705 -0.5394  0.2943  0.2593
  133MOL   H30045444   3.600   0.700   3.603  1.0570  0.5937  1.7954
  133MOL   H30145445   3.703   0.503   3.825 -0.0678  1.5949  2.0100
  133MOL   H30245446   3.952   0.461   3.871 -0.3483  0.4337 -0.6158
  133MOL   H30345447   3.929   0.398   3.711  1.1645  0.6303 -2.7810
  133MOL   H30445448   4.118   0.611   3.834  1.1365 -1.5340  0.8622
  133MOL   H30545449   4.159   0.485   3.718 -0.3091 -0.2021  0.0857
  133MOL   H30645450   4.109   0.753   3.668 -1.7487  0.8657  0.9585
  133MOL   H30745451   4.090   0.625   3.539 -1.3674  2.1620 -1.1217
  133MOL   C30845452   3.695   0.717   3.863 -0.1147  0.2920 -0.2730
  133MOL   C30945453   3.559   0.711   3.935  0.4081  0.0269  0.0921
  133MOL   N31045454   3.531   0.588   3.999  0.4819 -0.1221 -0.1526
  133MOL   C31145455   3.398   0.519   3.970  0.2612 -0.2934  0.7020
  133MOL   C31245456   3.420   0.384   4.037 -0.2921  0.1932 -0.2007
  133MOL   C31345457   3.544   0.403   4.131 -0.4450 -0.2512  0.2681
  133MOL   C31445458   3.603   0.526   4.089 -0.2998 -0.7737 -0.3262
  133MOL   O31545459   3.713   0.561   4.134 -0.0209 -0.1785  0.3917
  133MOL   H31645460   3.725   0.817   3.831 -0.1205  0.7609  1.1575
  133MOL   H31745461   3.768   0.705   3.943 -0.1551 -1.5339 -0.4744
  133MOL   H31845462   3.482   0.729   3.861  0.5847  0.6878  0.0645
  133MOL   H31945463   3.311   0.565   4.016 -0.2628 -0.4335 -0.1457
  133MOL   H32045464   3.372   0.503   3.865  1.4363 -1.1073  0.5217
  133MOL   H32145465   3.335   0.362   4.102 -0.4689  0.7751 -0.2315
  133MOL   H32245466   3.450   0.299   3.976  0.5244  0.5988 -0.3823
  133MOL   H32345467   3.510   0.396   4.235 -0.8774  0.4860  0.1811
  133MOL   H32445468   3.615   0.322   4.120 -2.3726 -1.9397 -0.0385
  133MOL   C32545469   3.525   0.818   4.044  0.4949  0.6303  0.0366
  133MOL   C32645470   3.522   0.964   3.985 -0.3936 -0.6514 -0.6700
  133MOL   N32745471   3.467   1.061   4.079 -0.4671 -0.1860  0.4336
  133MOL   C32845472   3.323   1.086   4.076  0.5793  0.6910  0.4239
  133MOL   C32945473   3.302   1.199   4.164 -0.0789 -0.4054 -0.8109
  133MOL   C33045474   3.434   1.220   4.245  0.4737 -1.0370 -0.0142
  133MOL   C33145475   3.534   1.127   4.179 -0.3764  0.1972 -0.0062
  133MOL   O33245476   3.648   1.115   4.213 -0.0523  0.5127 -0.0388
  133MOL   H33345477   3.599   0.805   4.123 -0.6446  0.1823  1.0388
  133MOL   H33445478   3.432   0.790   4.093  1.5447 -0.1771  1.6313
  133MOL   H33545479   3.466   0.959   3.892  0.6779  1.2373 -1.4592
  133MOL   H33645480   3.275   1.103   3.980  2.4733 -0.0960 -0.6838
  133MOL   H33745481   3.277   0.998   4.121  1.0557 -0.8796 -2.0848
  133MOL   H33845482   3.268   1.288   4.111 -0.3422  0.1245  0.2304
  133MOL   H33945483   3.228   1.174   4.240 -0.7593  0.9493 -0.9986
  133MOL   H34045484   3.471   1.323   4.244 -1.2319 -0.3864  1.9271
  133MOL   H34145485   3.424   1.188   4.349  0.4473 -1.2998 -0.0982
  133MOL   H34245486   3.621   1.004   3.962 -0.4646  0.3240  0.6967
  134MOL     C145487   5.746   4.036   0.009 -0.4883  0.3813 -0.0231
  134MOL     C245488   5.784   4.141   7.809 -0.5142 -0.7509  0.4134
  134MOL     N345489   5.927   4.128   7.776  0.6797 -0.1904 -0.0493
  134MOL     C445490   6.028   4.219   7.823  0.1802  0.3768  0.4339
  134MOL     C545491   6.155   4.181   7.744  0.4662  0.4128  0.4047
  134MOL     C645492   6.124   4.050   7.671 -0.4150 -0.8746 -0.3168
  134MOL     C745493   5.978   4.027   7.701  0.2566 -0.7482 -0.5425
  134MOL     O845494   5.919   3.928   7.661  0.0415 -0.3853  0.4544
  134MOL     H945495   5.820   4.024   0.088 -0.0711 -2.2555 -0.7685
  134MOL    H1045496   5.649   4.054   0.056 -0.3188 -1.3737  1.0639
  134MOL    H1145497   5.780   4.242   7.849  1.1032 -0.9852  1.2100
  134MOL    H1245498   6.003   4.325   7.822  0.1930  0.4100 -2.7234
  134MOL    H1345499   6.057   4.192   0.019  1.8895 -0.5510 -0.2841
  134MOL    H1445500   6.173   4.267   7.680 -0.9858  0.8517  0.5694
  134MOL    H1545501   6.241   4.178   7.811  0.6048 -2.1141  0.1505
  134MOL    H1645502   6.138   4.068   7.564  1.1290  0.8783  0.1448
  134MOL    H1745503   6.177   3.960   7.703  0.0159 -0.4532  0.1531
  134MOL    H1845504   5.734   3.942   7.861  1.0801  0.3609 -0.3717
  134MOL    C1945505   5.679   4.134   7.689  0.1541  0.5202  0.0800
  134MOL    C2045506   5.711   4.201   7.554 -0.1653 -0.2876  0.1979
  134MOL    N2145507   5.600   4.175   7.456 -0.0859  0.6861 -0.1456
  134MOL    C2245508   5.617   4.066   7.362 -0.0494 -0.7625  0.5254
  134MOL    C2345509   5.476   4.031   7.307 -0.6457 -0.2643 -0.0317
  134MOL    C2445510   5.385   4.142   7.353 -0.3748 -0.0082  0.7332
  134MOL    C2545511   5.476   4.228   7.441  0.1654 -0.1021  0.4979
  134MOL    O2645512   5.433   4.328   7.488  0.0255 -0.7048  0.1225
  134MOL    H2745513   5.590   4.186   7.724  0.7982  1.1028  0.8667
  134MOL    H2845514   5.649   4.032   7.669 -0.3069  0.3774  1.4580
  134MOL    H2945515   5.795   4.147   7.511 -1.2165  0.0019 -2.3371
  134MOL    H3045516   5.681   4.105   7.283 -0.8307  0.2299  0.3740
  134MOL    H3145517   5.657   3.974   7.404  2.3660 -0.8430 -1.8257
  134MOL    H3245518   5.472   4.014   7.200 -1.4925 -1.7716  0.2151
  134MOL    H3345519   5.436   3.938   7.349 -1.9699 -0.5909 -1.9616
  134MOL    H3445520   5.362   4.210   7.271  2.2103 -0.6046 -0.5216
  134MOL    H3545521   5.293   4.111   7.403 -2.3396  3.4334 -0.5622
  134MOL    C3645522   5.753   4.346   7.577 -0.3197 -0.4533  0.4796
  134MOL    C3745523   5.786   4.428   7.454 -0.8290  0.2711 -0.3416
  134MOL    N3845524   5.819   4.564   7.499 -0.3008 -0.5169  0.2743
  134MOL    C3945525   5.733   4.668   7.449 -0.3366  0.2802  0.5197
  134MOL    C4045526   5.804   4.801   7.493 -0.0177  0.0903 -0.6574
  134MOL    C4145527   5.916   4.760   7.585 -0.0619  0.0423  0.4367
  134MOL    C4245528   5.918   4.607   7.579  0.6620 -0.5523 -0.0859
  134MOL    O4345529   6.005   4.547   7.638  0.6081  0.3839  1.0602
  134MOL    H4445530   5.838   4.351   7.645  0.1801  1.6869 -0.2583
  134MOL    H4545531   5.682   4.402   7.638  0.6412  0.6751  0.5712
  134MOL    H4645532   5.705   4.424   7.382 -0.1747 -1.2773 -1.0250
  134MOL    H4745533   5.716   4.664   7.341  0.2020 -0.4948  0.4653
  134MOL    H4845534   5.637   4.648   7.497 -0.3242 -1.0984 -0.0175
  134MOL    H4945535   5.855   4.842   7.406  0.6460 -0.6167 -0.5992
  134MOL    H5045536   5.732   4.865   7.544 -1.5515 -1.6511 -0.6120
  134MOL    H5145537   6.010   4.804   7.551 -1.2425  2.1935 -0.1790
  134MOL    H5245538   5.897   4.808   7.681  0.3420 -0.7029  0.8949
  134MOL    C5345539   5.912   4.374   7.382 -0.3686  0.2793 -0.0227
  134MOL    C5445540   5.938   4.428   7.246  0.0442  0.0174  0.4077
  134MOL    N5545541   6.059   4.378   7.182 -0.1580  0.9514 -0.2376
  134MOL    C5645542   6.174   4.465   7.168 -0.2629 -0.4157  0.5312
  134MOL    C5745543   6.279   4.379   7.090 -0.7778 -0.3708  0.2463
  134MOL    C5845544   6.238   4.233   7.117 -0.3003 -0.1737  0.0317
  134MOL    C5945545   6.091   4.251   7.146 -0.2898  0.4242 -0.2562
  134MOL    O6045546   6.016   4.151   7.146  0.0843 -0.0379 -0.5408
  134MOL    H6145547   5.893   4.268   7.362 -0.3799  0.0936  0.9454
  134MOL    H6245548   6.006   4.364   7.437 -0.3063 -2.1930 -0.5091
  134MOL    H6345549   5.948   4.535   7.262 -0.3581  0.0307  0.5725
  134MOL    H6445550   6.151   4.559   7.120  1.3904 -0.5788 -0.6185
  134MOL    H6545551   6.213   4.491   7.267 -0.6346 -2.5979  1.2966
  134MOL    H6645552   6.269   4.402   6.984 -1.6733 -4.1404 -0.5760
  134MOL    H6745553   6.381   4.402   7.121 -0.8970  0.7402 -0.1885
  134MOL    H6845554   6.251   4.173   7.027 -0.2960  1.0008 -0.7613
  134MOL    H6945555   6.289   4.186   7.201 -0.4158  0.6292  0.5578
  134MOL    C7045556   5.820   4.408   7.137 -0.5559  0.4992 -1.1176
  134MOL    C7145557   5.761   4.528   7.071  0.4116  0.0555  0.9469
  134MOL    N7245558   5.863   4.616   7.009  0.3823 -0.2042  0.2662
  134MOL    C7345559   5.957   4.581   6.907  0.5244  0.4274 -0.3731
  134MOL    C7445560   6.023   4.714   6.871 -0.1830  0.2410 -0.3884
  134MOL    C7545561   5.998   4.805   6.986  0.1711 -0.0763 -1.4957
  134MOL    C7645562   5.893   4.729   7.064  0.2086 -0.4932  0.6509
  134MOL    O7745563   5.837   4.782   7.164 -0.4737 -0.0648 -0.4225
  134MOL    H7845564   5.742   4.342   7.176  0.5029 -0.8873 -1.3068
  134MOL    H7945565   5.856   4.341   7.059  1.1243  0.6091 -0.4390
  134MOL    H8045566   5.712   4.578   7.155 -3.4024 -1.6564 -0.1215
  134MOL    H8145567   6.034   4.508   6.934  0.9228  0.8508 -0.3696
  134MOL    H8245568   5.923   4.533   6.815  0.7119  0.9811 -0.7367
  134MOL    H8345569   6.130   4.699   6.853 -0.7978 -1.6577 -2.7970
  134MOL    H8445570   5.983   4.750   6.776  0.0695  0.4924 -0.4000
  134MOL    H8545571   6.084   4.812   7.052 -0.2841 -1.3374 -0.7614
  134MOL    H8645572   5.959   4.904   6.962  1.1934  0.4230 -1.1289
  134MOL    C8745573   5.646   4.493   6.965 -0.1067  0.5568 -0.0215
  134MOL    C8845574   5.566   4.615   6.908 -0.1183 -0.1351 -0.5060
  134MOL    N8945575   5.646   4.674   6.790  0.2924  0.1039 -0.3731
  134MOL    C9045576   5.695   4.817   6.783 -0.0899  0.2173  0.8410
  134MOL    C9145577   5.721   4.847   6.635 -0.0498 -0.6876  0.0413
  134MOL    C9245578   5.730   4.709   6.575 -0.5948 -0.3493 -0.1820
  134MOL    C9345579   5.666   4.615   6.668  0.5446  0.1569 -0.6528
  134MOL    O9445580   5.626   4.501   6.639 -0.6299  0.3235 -0.1112
  134MOL    H9545581   5.584   4.412   7.005 -0.5382  1.5135  1.2790
  134MOL    H9645582   5.689   4.433   6.885  1.3292  2.1106 -0.4426
  134MOL    H9745583   5.569   4.690   6.987  0.9582 -1.1460  0.4470
  134MOL    H9845584   5.618   4.882   6.824 -0.8043 -0.8796  1.2710
  134MOL    H9945585   5.791   4.823   6.834  0.5544  0.5003 -0.3870
  134MOL   H10045586   5.648   4.912   6.588 -0.0034 -0.9549 -0.3966
  134MOL   H10145587   5.816   4.901   6.626 -1.1100  1.0768 -0.8715
  134MOL   H10245588   5.669   4.693   6.486 -1.1246  0.0705  0.1092
  134MOL   H10345589   5.829   4.673   6.546 -0.9872 -0.9756 -0.7798
  134MOL   C10445590   5.415   4.592   6.887  0.5597 -0.1516 -0.3292
  134MOL   C10545591   5.320   4.532   6.997  0.5344  0.6768 -0.0444
  134MOL   N10645592   5.313   4.609   7.123  0.2376 -0.1437  0.7050
  134MOL   C10745593   5.382   4.569   7.245 -0.2167  0.8096 -0.0750
  134MOL   C10845594   5.363   4.684   7.351  0.3561 -0.8005 -0.0379
  134MOL   C10945595   5.245   4.762   7.295 -0.9399 -0.0912 -0.3461
  134MOL   C11045596   5.240   4.727   7.143 -0.8300  0.3578 -0.2784
  134MOL   O11145597   5.184   4.791   7.059  0.1781 -0.5220  0.3316
  134MOL   H11245598   5.408   4.539   6.792  1.4544  0.6957 -0.8667
  134MOL   H11345599   5.382   4.693   6.862 -0.6032 -0.4714 -0.1272
  134MOL   H11445600   5.369   4.438   7.023  0.9952  0.9406  0.0466
  134MOL   H11545601   5.331   4.479   7.280  0.9667 -0.1390 -0.7790
  134MOL   H11645602   5.487   4.539   7.245 -0.3185  0.3550 -3.1638
  134MOL   H11745603   5.332   4.658   7.452 -2.1665  3.2765  0.3631
  134MOL   H11845604   5.454   4.742   7.353 -0.8216  1.0680  0.4299
  134MOL   H11945605   5.265   4.869   7.297  0.3806 -0.3425  0.5232
  134MOL   H12045606   5.151   4.726   7.338 -1.7738  1.6362 -0.6768
  134MOL   C12145607   5.178   4.500   6.930 -1.0923 -0.4357  1.0001
  134MOL   C12245608   5.166   4.381   6.832 -0.3304  0.6427 -0.1297
  134MOL   N12345609   5.219   4.258   6.892 -0.0643  0.3111  0.1168
  134MOL   C12445610   5.337   4.202   6.829 -0.0434 -0.1365 -0.0674
  134MOL   C12545611   5.368   4.075   6.895 -0.0598 -0.4799 -0.4402
  134MOL   C12645612   5.238   4.031   6.972  0.4046 -0.1191  0.4669
  134MOL   C12745613   5.162   4.167   6.976 -0.7065  0.5457 -0.3638
  134MOL   O12845614   5.073   4.184   7.046  0.0635 -0.0360 -0.1230
  134MOL   H12945615   5.142   4.582   6.868  0.4275 -0.6467 -0.1569
  134MOL   H13045616   5.108   4.483   7.012  0.8469 -0.9075  2.5956
  134MOL   H13145617   5.218   4.423   6.746  0.3590  0.6394  0.2848
  134MOL   H13245618   5.424   4.265   6.810  2.5280 -3.5945 -0.1831
  134MOL   H13345619   5.297   4.169   6.732 -0.4422 -1.8008  0.6474
  134MOL   H13445620   5.405   3.999   6.827 -0.0830 -1.1653  0.3032
  134MOL   H13545621   5.444   4.089   6.973 -0.4047  2.1754 -0.5441
  134MOL   H13645622   5.173   3.968   6.910 -0.8960  1.2219  0.4285
  134MOL   H13745623   5.249   3.978   7.066 -0.1072 -0.4332  0.3557
  134MOL   C13845624   5.020   4.363   6.784  0.5023  0.3861  0.6176
  134MOL   C13945625   4.976   4.251   6.697  0.0907  0.1896 -0.2948
  134MOL   N14045626   4.826   4.262   6.699  0.3686 -0.2851 -1.1127
  134MOL   C14145627   4.747   4.181   6.792  0.8062 -0.0560  0.6379
  134MOL   C14245628   4.638   4.272   6.842 -0.5001  0.6686 -0.0784
  134MOL   C14345629   4.621   4.375   6.727  0.3988  0.0002  0.3106
  134MOL   C14445630   4.750   4.363   6.645  0.7688  0.4380  0.0920
  134MOL   O14545631   4.784   4.450   6.568 -0.0459 -0.5384  0.6592
  134MOL   H14645632   4.988   4.457   6.739 -0.1318 -0.8407 -1.5368
  134MOL   H14745633   4.948   4.364   6.866  1.0130 -0.1883  1.0747
  134MOL   H14845634   5.011   4.157   6.740 -0.4469 -0.9653 -2.3150
  134MOL   H14945635   4.708   4.099   6.732  2.6065  0.6180 -1.5353
  134MOL   H15045636   4.812   4.142   6.871  0.6372 -0.4821  0.5673
  134MOL   H15145637   4.547   4.212   6.851 -1.7155  2.9382  4.2936
  134MOL   H15245638   4.666   4.311   6.940 -0.5174 -2.8869  1.4197
  134MOL   H15345639   4.607   4.476   6.766 -1.1064 -0.5768  1.3050
  134MOL   H15445640   4.553   4.354   6.645 -0.0299 -0.8067  0.8662
  134MOL   C15545641   5.033   4.258   6.557  0.7617  0.3099  0.3636
  134MOL   C15645642   4.993   4.151   6.454  0.0231 -0.1561  0.0925
  134MOL   N15745643   5.038   4.021   6.489  0.3921  0.3883 -0.0967
  134MOL   C15845644   5.169   3.975   6.435  0.4228 -0.8807 -0.6768
  134MOL   C15945645   5.185   3.829   6.485  0.1016 -0.3812 -0.1468
  134MOL   C16045646   5.063   3.802   6.564  0.0324  0.2747 -0.2156
  134MOL   C16145647   4.977   3.923   6.561  0.0308 -0.1221 -0.1232
  134MOL   O16245648   4.864   3.916   6.604  0.2858 -0.5278 -0.2922
  134MOL   H16345649   5.140   4.243   6.572  0.9510 -4.8995 -4.5163
  134MOL   H16445650   5.020   4.361   6.523 -2.9022 -0.4735 -0.8234
  134MOL   H16545651   5.057   4.180   6.371 -0.3364  0.0073 -0.1334
  134MOL   H16645652   5.176   3.982   6.327 -0.1754  0.0466 -0.6582
  134MOL   H16745653   5.243   4.040   6.481 -2.3234  2.4602 -0.7573
  134MOL   H16845654   5.205   3.759   6.403 -2.5056 -0.7196 -0.5151
  134MOL   H16945655   5.268   3.835   6.555  1.0824  0.4215 -1.3378
  134MOL   H17045656   5.014   3.717   6.517  0.1536 -1.2941  2.4181
  134MOL   H17145657   5.082   3.769   6.666 -0.3427  0.9733  0.0868
  134MOL   C17245658   4.854   4.153   6.394  0.8029 -0.0085 -0.3964
  134MOL   C17345659   4.824   4.074   6.269  0.3076  0.0174  0.0401
  134MOL   N17445660   4.677   4.075   6.241  0.3234  0.4746  0.3142
  134MOL   C17545661   4.594   3.974   6.304  0.1182 -0.0077 -0.2538
  134MOL   C17645662   4.449   4.020   6.271 -0.1424  0.1419 -0.7149
  134MOL   C17745663   4.459   4.159   6.222  0.1382 -0.0022  0.3815
  134MOL   C17845664   4.605   4.178   6.198  0.1401 -0.6851 -0.3407
  134MOL   O17945665   4.646   4.278   6.136  0.7543  0.1353 -0.6636
  134MOL   H18045666   4.817   4.254   6.380 -0.6418 -0.4382  0.2482
  134MOL   H18145667   4.790   4.117   6.475  0.9675 -0.1660 -0.3367
  134MOL   H18245668   4.856   3.972   6.291 -1.6897 -0.3834  1.2846
  134MOL   H18345669   4.622   3.885   6.249 -0.4452 -0.6661  0.5002
  134MOL   H18445670   4.604   3.965   6.412  1.9649  2.5924 -0.1644
  134MOL   H18545671   4.400   4.022   6.368 -1.6609  1.3457 -1.4751
  134MOL   H18645672   4.381   3.956   6.215 -0.2234 -0.4833  0.1048
  134MOL   H18745673   4.412   4.168   6.124 -1.3718 -1.5720  0.9290
  134MOL   H18845674   4.411   4.220   6.299  2.8541 -0.4126  2.5011
  134MOL   C18945675   4.907   4.112   6.144 -0.2308  0.0476 -0.1242
  134MOL   C19045676   4.962   4.004   6.051  0.3392 -0.2896 -0.5704
  134MOL   N19145677   4.842   3.924   5.998 -0.4821  0.3482  0.0709
  134MOL   C19245678   4.835   3.781   6.021  0.1705 -0.2510  0.2261
  134MOL   C19345679   4.706   3.730   5.954  0.3534 -0.4951 -0.1349
  134MOL   C19445680   4.648   3.859   5.902 -0.0373 -1.0458  0.3113
  134MOL   C19545681   4.748   3.965   5.913  0.1170  0.1949 -0.1176
  134MOL   O19645682   4.736   4.070   5.857  0.0649  0.2850 -0.4796
  134MOL   H19745683   4.991   4.179   6.163  0.9674 -1.1724 -0.9881
  134MOL   H19845684   4.844   4.177   6.083 -1.2502 -0.9752 -0.1787
  134MOL   H19945685   5.029   3.947   6.116 -0.4664  0.2483  0.7202
  134MOL   H20045686   4.920   3.726   5.980 -3.0178 -4.0457 -1.5111
  134MOL   H20145687   4.833   3.767   6.129  0.7293  1.0039  0.4173
  134MOL   H20245688   4.717   3.664   5.868  5.6385 -0.9379  0.6732
  134MOL   H20345689   4.633   3.689   6.024 -0.6596  0.7125 -0.4735
  134MOL   H20445690   4.609   3.857   5.800 -0.0863  1.3093  0.2566
  134MOL   H20545691   4.562   3.898   5.957  0.4310 -0.2038  0.4558
  134MOL   C20645692   5.042   4.071   5.939 -0.0147 -0.1705 -0.1435
  134MOL   C20745693   5.196   4.099   5.950 -0.5163  0.6310  0.1624
  134MOL   N20845694   5.242   4.143   5.823 -0.0052  0.3375  1.0870
  134MOL   C20945695   5.290   4.040   5.735  0.2734 -0.2051 -0.6055
  134MOL   C21045696   5.297   4.108   5.598  0.0875  0.0860 -0.2310
  134MOL   C21145697   5.265   4.254   5.621  0.3769 -0.2514 -0.1024
  134MOL   C21245698   5.236   4.266   5.764  0.3941  0.4378 -0.3789
  134MOL   O21345699   5.204   4.373   5.812  0.2127 -0.1505 -0.0840
  134MOL   H21445700   4.983   4.158   5.910 -1.8023 -0.1203  3.2567
  134MOL   H21545701   5.034   3.994   5.862 -1.3441  0.5765 -0.7713
  134MOL   H21645702   5.247   4.003   5.966  1.2334  1.3902 -0.7187
  134MOL   H21745703   5.387   3.998   5.761 -0.2804 -0.0394  1.8260
  134MOL   H21845704   5.213   3.963   5.736 -0.0140  0.0691 -1.1980
  134MOL   H21945705   5.398   4.103   5.558 -0.6108 -2.1904 -1.8023
  134MOL   H22045706   5.234   4.052   5.528 -2.7768  1.4961  1.1111
  134MOL   H22145707   5.343   4.321   5.586  0.3444 -0.5695 -0.7948
  134MOL   H22245708   5.183   4.276   5.552  1.1817  0.9420 -0.6898
  134MOL   C22345709   5.230   4.199   6.062 -0.0433 -0.1701 -0.1033
  134MOL   C22445710   5.372   4.264   6.067 -0.6920  0.0383  0.2042
  134MOL   N22545711   5.389   4.367   6.170 -0.7384 -0.0777  0.1475
  134MOL   C22645712   5.434   4.502   6.134  0.6208 -0.3574 -0.7937
  134MOL   C22745713   5.468   4.567   6.271 -0.0191  0.0361 -0.1446
  134MOL   C22845714   5.396   4.482   6.377  0.8688 -0.7759 -0.2022
  134MOL   C22945715   5.382   4.349   6.302  0.2826 -1.0299  0.6737
  134MOL   O23045716   5.374   4.249   6.370  0.0715 -0.1842 -0.1339
  134MOL   H23145717   5.203   4.147   6.154 -1.9120  1.9396  0.5840
  134MOL   H23245718   5.159   4.281   6.071  0.3060  0.0766  0.4351
  134MOL   H23345719   5.392   4.331   5.983  2.1084 -0.1860  0.6210
  134MOL   H23445720   5.508   4.496   6.054  1.4480 -0.1642 -0.0491
  134MOL   H23545721   5.348   4.556   6.094  1.3536 -0.2574 -2.2691
  134MOL   H23645722   5.575   4.565   6.287  0.6121 -2.2732 -4.0536
  134MOL   H23745723   5.446   4.674   6.284  1.7717  0.3496  0.3614
  134MOL   H23845724   5.457   4.468   6.466  2.1626  2.5918 -0.4849
  134MOL   H23945725   5.300   4.518   6.415  1.0654 -0.8865  0.4083
  134MOL   C24045726   5.494   4.166   6.053 -0.3505 -0.2057 -0.1532
  134MOL   C24145727   5.625   4.229   5.997  0.3370 -0.3227  0.1284
  134MOL   N24245728   5.742   4.153   6.038  0.0387 -0.1792  0.3742
  134MOL   C24345729   5.765   4.018   5.989  0.0828  0.1881 -0.3275
  134MOL   C24445730   5.896   3.974   6.052  0.1429 -0.1107  0.7241
  134MOL   C24545731   5.956   4.096   6.120 -0.4642 -0.0387 -0.8364
  134MOL   C24645732   5.845   4.205   6.107  0.1503 -0.1429 -0.1111
  134MOL   O24745733   5.861   4.324   6.142  0.2598  0.5671  0.2354
  134MOL   H24845734   5.464   4.089   5.981 -3.7363  0.3514  0.5497
  134MOL   H24945735   5.515   4.118   6.148  0.7644  2.3369  0.9250
  134MOL   H25045736   5.629   4.324   6.050  0.6883 -0.7530  0.8786
  134MOL   H25145737   5.691   3.951   6.034  0.7809  0.0579  0.6370
  134MOL   H25245738   5.765   4.004   5.881 -0.4520 -1.3197 -0.1547
  134MOL   H25345739   5.895   3.897   6.129  1.9229 -0.8268  0.0541
  134MOL   H25445740   5.964   3.936   5.976  0.2826 -1.3140  1.4464
  134MOL   H25545741   5.987   4.073   6.222 -0.3424  1.7517 -0.4558
  134MOL   H25645742   6.037   4.135   6.059 -1.1288 -0.7246 -2.1803
  134MOL   C25745743   5.619   4.240   5.841  0.4327 -0.1496  0.1491
  134MOL   C25845744   5.735   4.311   5.778 -0.4287  0.7693 -0.0185
  134MOL   N25945745   5.757   4.273   5.635  0.8646  0.0520  0.3557
  134MOL   C26045746   5.850   4.170   5.604  0.0197  0.4311 -0.3910
  134MOL   C26145747   5.854   4.169   5.452 -1.0852  0.5394  0.6525
  134MOL   C26245748   5.737   4.247   5.403  0.0765  0.0934 -0.2914
  134MOL   C26345749   5.701   4.324   5.527 -1.0337 -0.1644 -0.2499
  134MOL   O26445750   5.640   4.425   5.520  0.0306  0.3679  0.6798
  134MOL   H26545751   5.529   4.292   5.810  2.4349  1.9310 -2.4883
  134MOL   H26645752   5.609   4.142   5.795  2.3016  0.4602 -1.6731
  134MOL   H26745753   5.822   4.275   5.833 -1.5151 -1.1495  0.4606
  134MOL   H26845754   5.946   4.188   5.652 -0.6507 -1.1916  1.6200
  134MOL   H26945755   5.811   4.075   5.639 -0.7470  1.7045  2.2880
  134MOL   H27045756   5.950   4.194   5.408 -1.3092 -0.3322 -0.3408
  134MOL   H27145757   5.824   4.068   5.426  0.8200  0.1415 -0.0311
  134MOL   H27245758   5.738   4.325   5.326  0.2986 -0.5032 -0.8916
  134MOL   H27345759   5.653   4.184   5.374 -0.1540  0.5236 -0.5672
  134MOL   C27445760   5.741   4.469   5.800 -0.3276 -0.0867  0.2863
  134MOL   C27545761   5.874   4.538   5.757 -0.3435  0.1472 -0.6775
  134MOL   N27645762   5.837   4.676   5.719  0.4026  0.3538 -0.4784
  134MOL   C27745763   5.796   4.782   5.807 -0.1702 -0.1367  0.3964
  134MOL   C27845764   5.733   4.884   5.705 -0.1328 -0.2258  0.4686
  134MOL   C27945765   5.809   4.861   5.577 -0.3280  0.7638  0.2069
  134MOL   C28045766   5.851   4.716   5.592 -0.1346 -0.1329  1.3203
  134MOL   O28145767   5.903   4.655   5.501 -0.0820  0.1297 -0.1056
  134MOL   H28245768   5.730   4.492   5.906  0.2475 -1.1113  0.5761
  134MOL   H28345769   5.650   4.511   5.757 -0.3822  1.6966  2.0667
  134MOL   H28445770   5.919   4.495   5.667 -2.6437 -0.7844 -1.4233
  134MOL   H28545771   5.731   4.744   5.887 -2.0944 -0.7008 -1.3845
  134MOL   H28645772   5.883   4.825   5.856  0.1914 -0.1566 -0.2289
  134MOL   H28745773   5.629   4.867   5.676  0.1041  1.2135 -1.3655
  134MOL   H28845774   5.742   4.989   5.733 -0.5382  0.4909 -1.9745
  134MOL   H28945775   5.754   4.871   5.483  1.2918 -0.6264 -0.9104
  134MOL   H29045776   5.895   4.928   5.574  1.4613 -1.4826  0.5613
  134MOL   C29145777   5.983   4.546   5.868 -1.0442  0.2007  0.2554
  134MOL   C29245778   6.128   4.561   5.814 -0.2633 -0.5540  0.2113
  134MOL   N29345779   6.223   4.597   5.925 -0.0958 -0.2913  0.1618
  134MOL   C29445780   6.273   4.740   5.942 -0.6663  1.0841 -0.3873
  134MOL   C29545781   6.343   4.738   6.078 -0.3371  0.4728  0.7048
  134MOL   C29645782   6.355   4.603   6.120 -0.0285 -0.8565 -0.3826
  134MOL   C29745783   6.265   4.522   6.030 -0.1107  0.1988  0.5757
  134MOL   O29845784   6.249   4.400   6.042  0.6528 -0.2293  0.1319
  134MOL   H29945785   5.969   4.467   5.942  2.4620 -1.4058 -0.6981
  134MOL   H30045786   5.973   4.634   5.932 -2.4538  0.4052 -0.2103
  134MOL   H30145787   6.124   4.640   5.739  2.4944  0.4267  1.0201
  134MOL   H30245788   6.332   4.775   5.858 -0.1558 -1.3702 -1.0950
  134MOL   H30345789   6.184   4.803   5.947  0.1974  2.1746  1.8816
  134MOL   H30445790   6.440   4.788   6.086 -0.0568  0.1540 -0.5965
  134MOL   H30545791   6.272   4.785   6.145  0.0918  1.9341  0.1671
  134MOL   H30645792   6.459   4.571   6.113  0.5499  0.9580 -0.2781
  134MOL   H30745793   6.322   4.576   6.220  2.3615 -1.0043  0.4185
  134MOL   C30845794   6.163   4.422   5.748 -0.3624 -0.1545 -0.1857
  134MOL   C30945795   6.313   4.407   5.701 -0.1919  0.5878  0.0753
  134MOL   N31045796   6.330   4.260   5.667 -0.2637  0.0252  0.2356
  134MOL   C31145797   6.402   4.175   5.764  0.3350  0.8264 -0.1052
  134MOL   C31245798   6.409   4.035   5.683 -0.6143 -0.2090 -0.4862
  134MOL   C31345799   6.308   4.049   5.566 -0.2380  0.0330 -0.2731
  134MOL   C31445800   6.280   4.196   5.565  0.0209  0.3306 -0.5786
  134MOL   O31545801   6.206   4.250   5.489  0.4992  0.1359 -0.4148
  134MOL   H31645802   6.102   4.391   5.663 -1.7413 -0.2077  0.8039
  134MOL   H31745803   6.154   4.354   5.832  0.9470 -1.5296 -1.1295
  134MOL   H31845804   6.382   4.426   5.784  0.4323 -0.3490 -0.2232
  134MOL   H31945805   6.495   4.224   5.793  1.6948 -2.4860  1.4711
  134MOL   H32045806   6.335   4.166   5.849 -1.8688  0.4718 -1.8390
  134MOL   H32145807   6.500   4.027   5.623  0.0801 -0.3797  0.5903
  134MOL   H32245808   6.401   3.946   5.746 -1.6785 -0.9309 -1.6072
  134MOL   H32345809   6.349   4.022   5.469  1.8166  1.1698  0.2514
  134MOL   H32445810   6.215   3.999   5.592 -0.0802  0.2375  0.7034
  134MOL   C32545811   6.346   4.504   5.584 -0.2903  0.1431 -0.6908
  134MOL   C32645812   6.493   4.518   5.544  0.0171 -0.9310 -0.1697
  134MOL   N32745813   6.523   4.411   5.449  0.2480 -0.6928 -0.2765
  134MOL   C32845814   6.466   4.417   5.320  0.1920 -0.3346  0.0663
  134MOL   C32945815   6.552   4.328   5.240  0.8741 -0.3146  0.0583
  134MOL   C33045816   6.617   4.229   5.333 -0.0019  0.2563 -0.4398
  134MOL   C33145817   6.595   4.297   5.466  0.0924 -0.0073  0.0716
  134MOL   O33245818   6.635   4.253   5.576  1.0998 -0.1425  0.7179
  134MOL   H33345819   6.325   4.610   5.597  0.9561  0.6994 -2.8801
  134MOL   H33445820   6.282   4.487   5.497 -0.2188  0.3874 -0.7916
  134MOL   H33545821   6.558   4.516   5.632 -0.1259 -1.0272 -0.0670
  134MOL   H33645822   6.359   4.396   5.322  0.1111 -0.3023 -2.3126
  134MOL   H33745823   6.460   4.511   5.265  0.4692 -0.9745 -1.0815
  134MOL   H33845824   6.506   4.281   5.153  1.3933 -0.6094 -0.0629
  134MOL   H33945825   6.632   4.390   5.197 -0.2090  0.1212 -1.3556
  134MOL   H34045826   6.558   4.137   5.329  0.2193  0.1743 -2.1271
  134MOL   H34145827   6.720   4.201   5.311  0.1170  0.0813  0.3295
  134MOL   H34245828   6.500   4.620   5.506 -0.4297 -0.7231  0.2921
  135MOL     C145829   4.355   0.174   0.482  0.1768  0.9291  0.5689
  135MOL     C245830   4.202   0.181   0.463 -0.1783  0.6838 -0.3280
  135MOL     N345831   4.153   0.317   0.457 -0.5030  0.6498  0.0605
  135MOL     C445832   4.092   0.373   0.580  0.4748 -0.1819 -0.0250
  135MOL     C545833   4.064   0.527   0.553  0.0644  0.1522  0.2244
  135MOL     C645834   4.132   0.547   0.415 -1.0958 -0.9951  0.4885
  135MOL     C745835   4.168   0.408   0.363  0.3747  0.4243 -0.4745
  135MOL     O845836   4.213   0.386   0.253 -0.3023  0.0461  0.3169
  135MOL     H945837   4.392   0.247   0.555  0.4102  2.0991 -0.7074
  135MOL    H1045838   4.393   0.075   0.505 -0.2414  0.6257 -0.0636
  135MOL    H1145839   4.159   0.139   0.553  0.8593  0.0365 -0.1285
  135MOL    H1245840   4.002   0.315   0.602 -0.9943  2.2844  0.6500
  135MOL    H1345841   4.153   0.359   0.669  1.7695 -2.8056 -1.2626
  135MOL    H1445842   3.957   0.542   0.538  0.0824  2.9545  2.5639
  135MOL    H1545843   4.098   0.591   0.633 -2.0928  0.3261  1.0272
  135MOL    H1645844   4.084   0.615   0.345 -3.1507  0.1678  2.9389
  135MOL    H1745845   4.225   0.601   0.434 -1.7223  0.7633 -1.2954
  135MOL    H1845846   4.405   0.213   0.393  2.4011 -1.7506  0.5865
  135MOL    C1945847   4.154   0.098   0.343  0.3139 -0.4761  0.0760
  135MOL    C2045848   4.185   7.857   0.345  0.1710  0.2064  0.6289
  135MOL    N2145849   4.143   7.806   0.480 -0.1392 -0.3064 -0.5645
  135MOL    C2245850   4.005   7.810   0.515 -0.2019  0.6541 -0.2753
  135MOL    C2345851   4.001   7.792   0.664  0.2715 -0.1894 -0.3947
  135MOL    C2445852   4.147   7.768   0.710  0.3563 -0.6463 -0.0694
  135MOL    C2545853   4.226   7.770   0.577 -0.7683  0.0030 -0.1463
  135MOL    O2645854   4.345   7.745   0.574 -0.1294  0.0418  0.1215
  135MOL    H2745855   4.184   0.137   0.245  3.1688 -1.5033  0.4932
  135MOL    H2845856   4.047   0.114   0.342  0.2220 -1.0194 -1.6530
  135MOL    H2945857   4.294   7.852   0.339  0.2160  0.9420  0.7862
  135MOL    H3045858   3.947   7.899   0.490  0.0410  1.3689  1.5972
  135MOL    H3145859   3.962   7.721   0.470 -0.6039  0.8440 -0.2686
  135MOL    H3245860   3.954   7.871   0.722  0.5447 -0.4889  0.2396
  135MOL    H3345861   3.943   7.702   0.687 -0.4445  0.1279 -0.9446
  135MOL    H3445862   4.174   7.846   0.781  0.1248  0.5052 -1.2411
  135MOL    H3545863   4.168   7.668   0.750 -2.4451 -0.1458  2.8322
  135MOL    C3645864   4.136   7.766   0.233 -0.1568 -0.3864  0.5722
  135MOL    C3745865   4.165   7.801   0.088  0.1022  0.3157  0.3891
  135MOL    N3845866   4.303   7.827   0.066  0.6006 -0.1422 -0.6423
  135MOL    C3945867   4.342   0.042   7.897 -1.1694 -0.5643 -0.2611
  135MOL    C4045868   4.479   0.019   7.839  0.0839 -0.0055 -0.5157
  135MOL    C4145869   4.531   7.819   0.021 -0.2247 -0.7835 -0.6362
  135MOL    C4245870   4.413   7.752   0.089  0.4027  0.3351  0.0314
  135MOL    O4345871   4.424   7.638   0.130 -0.3192 -0.0466  0.5752
  135MOL    H4445872   4.028   7.772   0.245  0.1544 -0.9586  4.3106
  135MOL    H4545873   4.164   7.662   0.252  1.0309 -0.3864 -1.0815
  135MOL    H4645874   4.108   7.894   0.078 -1.5736 -0.6850  0.4980
  135MOL    H4745875   4.283   0.067   7.809 -1.5487  2.4072  0.7917
  135MOL    H4845876   4.350   0.130   0.055  1.4297 -0.6168 -0.4690
  135MOL    H4945877   4.467   7.895   7.735  0.6285 -1.6523 -0.1281
  135MOL    H5045878   4.550   0.101   7.845 -1.2655  1.1950 -0.9308
  135MOL    H5145879   4.590   7.752   7.864 -0.3159  1.0948 -2.7679
  135MOL    H5245880   4.603   7.847   0.098  0.0467 -2.7554 -0.1412
  135MOL    C5345881   4.111   7.691   7.901  0.3267  0.0081  0.2237
  135MOL    C5445882   4.143   7.695   7.749  0.0153  0.0971  0.3127
  135MOL    N5545883   4.153   7.563   7.682  0.0872  0.6529 -0.5403
  135MOL    C5645884   4.269   7.544   7.587  0.3235  0.9344 -0.3744
  135MOL    C5745885   4.303   7.392   7.612  0.4063  0.6748 -0.6904
  135MOL    C5845886   4.168   7.332   7.654  0.0385 -0.2371 -0.3909
  135MOL    C5945887   4.086   7.449   7.707 -0.2250 -0.4486 -0.2411
  135MOL    O6045888   3.978   7.437   7.760 -0.1772  0.4691 -0.2639
  135MOL    H6145889   4.002   7.684   0.003 -0.0954  3.4040 -1.9363
  135MOL    H6245890   4.143   7.594   0.035 -0.9609 -0.8257 -0.7288
  135MOL    H6345891   4.244   7.736   7.749  0.1079 -0.1302  0.1753
  135MOL    H6445892   4.233   7.544   7.484 -0.8166 -0.7429 -0.0080
  135MOL    H6545893   4.355   7.609   7.598  2.1552 -1.4123 -0.5400
  135MOL    H6645894   4.333   7.355   7.513  0.8143  0.0480 -0.3398
  135MOL    H6745895   4.386   7.379   7.682 -0.6329  0.0391  0.4309
  135MOL    H6845896   4.126   7.292   7.561  1.4163  1.9171 -1.9893
  135MOL    H6945897   4.189   7.248   7.720 -1.1722 -1.1953 -1.2099
  135MOL    C7045898   4.043   7.788   7.669  0.1921  0.0096 -0.3338
  135MOL    C7145899   4.099   7.824   7.526  0.6809 -0.1055 -0.7759
  135MOL    N7245900   3.985   7.901   7.467 -0.4635  0.6376 -0.0476
  135MOL    C7345901   3.880   7.825   7.400 -0.2023 -0.5369 -0.1022
  135MOL    C7445902   3.783   0.028   7.358  1.3279 -0.1679  0.1566
  135MOL    C7545903   3.853   0.158   7.383  0.0429  0.3111 -0.0776
  135MOL    C7645904   3.961   0.124   7.474  0.7351 -0.2973 -0.5283
  135MOL    O7745905   4.027   0.213   7.534  0.1908  0.3201 -0.3508
  135MOL    H7845906   4.013   7.879   7.722  0.1503 -0.1242 -0.1266
  135MOL    H7945907   3.954   7.727   7.652  1.4520 -2.0357  0.1624
  135MOL    H8045908   4.099   7.732   7.468 -2.6908  0.8400 -2.4177
  135MOL    H8145909   3.920   7.769   7.315 -0.0633 -0.6278  0.0243
  135MOL    H8245910   3.844   7.748   7.468 -0.2473  0.8761  1.5045
  135MOL    H8345911   3.747   0.010   7.256 -1.1235 -0.6433  1.0835
  135MOL    H8445912   3.697   0.038   7.424  0.7484 -2.4776 -0.2065
  135MOL    H8545913   3.904   0.200   7.296 -0.9243 -2.0048 -1.8136
  135MOL    H8645914   3.777   0.225   7.424  0.6619  0.5087  0.7541
  135MOL    C8745915   4.235   7.902   7.526 -0.6987 -0.0333 -0.4884
  135MOL    C8845916   4.272   0.053   7.382 -0.1783 -0.4735 -0.5202
  135MOL    N8945917   4.384   0.146   7.400  0.0152  0.0704  0.2812
  135MOL    C9045918   4.338   0.290   7.392  0.1879 -0.1174 -0.0788
  135MOL    C9145919   4.465   0.363   7.441 -0.9359 -0.5160  0.3184
  135MOL    C9245920   4.574   0.255   7.464  0.3004 -0.6408  0.5532
  135MOL    C9345921   4.509   0.123   7.445  0.7287  0.5687 -0.1233
  135MOL    O9445922   4.563   0.013   7.461 -0.4823 -0.1768  0.3303
  135MOL    H9545923   4.314   7.838   7.563  0.7018  1.2078 -1.2750
  135MOL    H9645924   4.221   0.073   7.602 -0.3076  0.4673 -0.9131
  135MOL    H9745925   4.188   0.108   7.339 -0.5360  0.3213  1.1413
  135MOL    H9845926   4.318   0.308   7.287 -1.7989  3.1114  0.7601
  135MOL    H9945927   4.243   0.315   7.440  1.2787  1.0765  1.5087
  135MOL   H10045928   4.497   0.443   7.374 -3.2356 -0.5253 -0.8644
  135MOL   H10145929   4.428   0.404   7.535  0.0535 -1.9976  1.3635
  135MOL   H10245930   4.651   0.267   7.388  1.3112 -0.8551  1.5231
  135MOL   H10345931   4.629   0.254   7.558 -0.4954 -1.2858  1.0297
  135MOL   C10445932   4.298   7.848   7.282 -0.4541  0.5359 -0.1267
  135MOL   C10545933   4.315   7.882   7.127  0.0212  0.3173 -0.1904
  135MOL   N10645934   4.393   7.769   7.074  0.2505 -0.2387  1.1032
  135MOL   C10745935   4.525   7.797   7.028  0.1167 -0.1549 -0.3943
  135MOL   C10845936   4.589   7.663   7.000 -0.1970  0.7049  0.2287
  135MOL   C10945937   4.479   7.556   7.029 -0.1356 -0.5637  0.2032
  135MOL   C11045938   4.360   7.638   7.069 -0.0442  0.2587  0.1723
  135MOL   O11145939   4.250   7.587   7.100  0.1904 -0.0756  0.0313
  135MOL   H11245940   4.220   7.772   7.282 -0.8149  0.9058 -0.5197
  135MOL   H11345941   4.384   7.786   7.307  1.1426  1.5282 -2.9135
  135MOL   H11445942   4.383   0.061   7.115 -0.6081  0.8031 -0.3496
  135MOL   H11545943   4.527   7.863   6.941  2.4676 -0.5757 -0.6814
  135MOL   H11645944   4.577   7.854   7.105  0.3906 -0.9104 -0.0154
  135MOL   H11745945   4.620   7.660   6.896  0.5834  1.1757  0.4428
  135MOL   H11845946   4.673   7.641   7.066  1.0582  2.9661 -0.5315
  135MOL   H11945947   4.496   7.477   7.102 -0.7727 -0.5746  0.3400
  135MOL   H12045948   4.451   7.519   6.930  0.4432 -0.9486  0.1851
  135MOL   C12145949   4.181   0.003   7.056 -0.2359 -0.0884 -0.3661
  135MOL   C12245950   4.175   0.016   6.905 -0.5400 -0.3659  0.4726
  135MOL   N12345951   4.038   0.028   6.862 -0.5896  0.4583  0.0975
  135MOL   C12445952   3.982   7.833   6.776 -0.3963 -0.2981 -0.2426
  135MOL   C12545953   3.839   7.864   6.744  0.2413  0.2393 -0.3043
  135MOL   C12645954   3.813   0.090   6.827 -0.2682 -0.1060  0.1088
  135MOL   C12745955   3.950   0.122   6.887  0.6329  0.0733 -0.7307
  135MOL   O12845956   3.964   0.220   6.955  0.3359  0.0028  0.5833
  135MOL   H12945957   4.143   0.097   7.098 -2.3014 -1.3879  0.7180
  135MOL   H13045958   4.117   7.828   7.091  0.5021 -0.7707 -0.5762
  135MOL   H13145959   4.209   7.827   6.864 -1.2328 -0.1223 -0.7017
  135MOL   H13245960   4.002   7.740   6.828 -4.7886 -0.6391  1.0141
  135MOL   H13345961   4.043   7.834   6.685  3.7904 -0.4727  2.3898
  135MOL   H13445962   3.816   7.868   6.637 -2.5342  0.7402  0.2660
  135MOL   H13545963   3.772   7.786   6.781  0.5767  0.5964  1.0980
  135MOL   H13645964   3.788   0.173   6.761  3.3307  0.1789 -1.0523
  135MOL   H13745965   3.739   0.084   6.906 -1.3902 -0.4826 -0.9569
  135MOL   C13845966   4.255   0.128   6.848 -0.8014 -0.0367 -0.1131
  135MOL   C13945967   4.286   0.119   6.696  0.0056 -0.2301 -0.3341
  135MOL   N14045968   4.364   0.234   6.656  0.1376  0.1077 -0.0525
  135MOL   C14145969   4.306   0.337   6.576 -0.5897 -0.2828 -0.0269
  135MOL   C14245970   4.404   0.452   6.557  0.4696 -0.5566 -0.2748
  135MOL   C14345971   4.533   0.393   6.621 -0.0596 -0.6818 -0.4247
  135MOL   C14445972   4.490   0.267   6.688  0.8549  0.3648 -0.4617
  135MOL   O14545973   4.561   0.215   6.774  0.2000  0.0726  0.0839
  135MOL   H14645974   4.349   0.138   6.902 -1.2179  0.0806  0.5912
  135MOL   H14745975   4.199   0.222   6.855 -1.7770 -0.7804  2.7049
  135MOL   H14845976   4.206   0.119   6.623  2.2656  1.2285 -2.9295
  135MOL   H14945977   4.294   0.291   6.478  0.7707 -0.9159  0.0968
  135MOL   H15045978   4.203   0.363   6.601  0.2691  2.3150  0.9591
  135MOL   H15145979   4.419   0.464   6.449  2.9647 -0.7462  0.0228
  135MOL   H15245980   4.363   0.541   6.604  0.5355  0.7421 -2.5981
  135MOL   H15345981   4.581   0.462   6.692  1.7695 -2.5563  0.2107
  135MOL   H15445982   4.605   0.361   6.546  1.0537 -0.2076  0.4143
  135MOL   C15545983   4.360   7.894   6.664 -0.2343  0.4528 -0.0983
  135MOL   C15645984   4.436   7.882   6.532 -0.2387 -0.1468  0.1556
  135MOL   N15745985   4.503   7.748   6.519  0.3861 -0.2272 -0.6556
  135MOL   C15845986   4.642   7.734   6.516  0.5027 -0.0134  0.6027
  135MOL   C15945987   4.674   7.587   6.553  0.0983  0.0688 -0.3199
  135MOL   C16045988   4.539   7.515   6.542 -0.7713 -0.1195  0.7087
  135MOL   C16145989   4.443   7.629   6.514 -0.0881  0.4519 -0.1988
  135MOL   O16245990   4.318   7.613   6.509 -0.3346  0.2040  0.0951
  135MOL   H16345991   4.280   7.821   6.651 -0.1830  0.8473 -2.8876
  135MOL   H16445992   4.430   7.858   6.740 -1.4405  0.4734  1.0358
  135MOL   H16545993   4.522   0.042   6.535 -0.8969  0.6899  1.1755
  135MOL   H16645994   4.687   7.756   6.420  0.8733 -0.0011  0.7770
  135MOL   H16745995   4.691   7.810   6.577 -0.6044  0.7231  0.5971
  135MOL   H16845996   4.746   7.544   6.483 -0.6841  0.4544 -1.3721
  135MOL   H16945997   4.715   7.576   6.653 -0.7166 -0.1342 -0.0032
  135MOL   H17045998   4.541   7.439   6.463 -0.5323  0.9875 -0.3576
  135MOL   H17145999   4.499   7.465   6.630 -1.4386 -2.9405 -1.1207
  135MOL   C17246000   4.352   0.012   6.407 -0.2119 -0.0660  0.0846
  135MOL   C17346001   4.444   0.028   6.280 -0.7135 -0.2112  0.0789
  135MOL   N17446002   4.371   0.038   6.152  0.1990  0.3756 -0.3941
  135MOL   C17546003   4.241   0.108   6.136 -0.0755  0.1207  0.1712
  135MOL   C17646004   4.198   0.077   5.995 -0.2950 -0.0848 -0.0406
  135MOL   C17746005   4.308   7.904   5.929 -0.1534  0.0274 -0.2467
  135MOL   C17846006   4.407   7.878   6.042  0.6074  0.6018  0.9723
  135MOL   O17946007   4.498   7.798   6.032 -0.1367 -0.1962  0.2327
  135MOL   H18046008   4.287   0.098   6.424 -0.0157  0.2897 -0.9491
  135MOL   H18146009   4.290   7.831   6.386  0.1728 -0.4035  0.3209
  135MOL   H18246010   4.504   7.843   6.275 -2.3916 -1.4143  1.3432
  135MOL   H18346011   4.163   0.076   6.205  0.0232 -1.5504 -0.4772
  135MOL   H18446012   4.263   0.211   6.162 -0.3454  0.2932 -0.2844
  135MOL   H18546013   4.184   0.174   5.946  1.0616  0.8009  1.2665
  135MOL   H18646014   4.104   0.024   6.008 -0.4145  0.2441  0.5081
  135MOL   H18746015   4.267   7.814   5.885 -2.0447  0.7344  0.0305
  135MOL   H18846016   4.342   0.059   5.845  0.1508  2.5604  1.6452
  135MOL   C18946017   4.549   0.147   6.295 -0.0075  1.1057 -0.2483
  135MOL   C19046018   4.630   0.203   6.179 -0.2221  0.5486  0.1818
  135MOL   N19146019   4.556   0.283   6.079 -0.1914 -0.8897  0.2694
  135MOL   C19246020   4.577   0.261   5.934 -0.6740 -0.1140  0.2216
  135MOL   C19346021   4.466   0.339   5.860 -0.2304 -0.4437  0.2781
  135MOL   C19446022   4.407   0.430   5.972  0.1201 -0.1205  1.3875
  135MOL   C19546023   4.484   0.392   6.096 -0.0078 -0.6071  0.0496
  135MOL   O19646024   4.452   0.445   6.202 -0.4738 -0.1291  0.4407
  135MOL   H19746025   4.625   0.105   6.360 -1.3137 -1.5474 -0.3988
  135MOL   H19846026   4.514   0.231   6.356 -1.9093  1.4530 -1.7695
  135MOL   H19946027   4.660   0.115   6.123  0.0420  0.5819  0.2715
  135MOL   H20046028   4.672   0.302   5.902 -1.0401  0.7321  0.1999
  135MOL   H20146029   4.562   0.155   5.918 -3.4765 -0.0489  2.0151
  135MOL   H20246030   4.507   0.404   5.783 -2.2941  1.4606  0.7653
  135MOL   H20346031   4.386   0.275   5.822  0.1807 -1.1866  0.6395
  135MOL   H20446032   4.414   0.538   5.955 -0.3954 -0.0265  1.7508
  135MOL   H20546033   4.303   0.396   5.978  0.9089 -3.2919 -1.5516
  135MOL   C20646034   4.754   0.274   6.229 -0.0874  0.7898  0.6265
  135MOL   C20746035   4.872   0.281   6.132 -0.3176  0.3476  0.1333
  135MOL   N20846036   4.942   0.408   6.149 -0.3043  0.3834  0.6487
  135MOL   C20946037   4.938   0.514   6.049  0.2590 -0.7467  0.0244
  135MOL   C21046038   5.035   0.621   6.097  0.1446  0.0278  0.0234
  135MOL   C21146039   5.106   0.557   6.222  0.2644 -0.1422  0.4544
  135MOL   C21246040   5.037   0.431   6.245 -0.5325 -0.9385 -0.5376
  135MOL   O21346041   5.074   0.361   6.335  0.3060  0.2744  0.0006
  135MOL   H21446042   4.803   0.241   6.321 -0.5570  0.6606  0.8315
  135MOL   H21546043   4.723   0.371   6.269 -1.0259  1.6673 -2.1216
  135MOL   H21646044   4.828   0.276   6.032  0.1444  2.0755 -0.1670
  135MOL   H21746045   4.982   0.486   5.953  1.2434  0.3591  0.1424
  135MOL   H21846046   4.833   0.545   6.041  0.1602 -0.7142  1.3314
  135MOL   H21946047   5.104   0.645   6.017 -0.5659 -0.3564 -0.7222
  135MOL   H22046048   4.987   0.717   6.115  1.1491  0.0681  2.7672
  135MOL   H22146049   5.210   0.526   6.210 -0.6193 -2.4746 -1.4869
  135MOL   H22246050   5.105   0.627   6.306 -0.0274  1.7123 -1.0490
  135MOL   C22346051   4.965   0.163   6.135  0.1730 -0.7714  0.1293
  135MOL   C22446052   5.076   0.159   6.025  0.2342 -1.3027 -0.5610
  135MOL   N22546053   5.196   0.084   6.066  0.0326 -0.2166  0.5743
  135MOL   C22646054   5.184   7.882   6.160 -0.5959 -0.0001 -0.7597
  135MOL   C22746055   5.322   7.826   6.180 -0.3685  0.2903 -0.1161
  135MOL   C22846056   5.422   0.003   6.095 -0.0850  0.1126  0.1322
  135MOL   C22946057   5.320   0.108   6.034 -0.2340  0.3310 -0.0998
  135MOL   O23046058   5.366   0.208   5.979 -0.3235 -0.2927  0.2894
  135MOL   H23146059   4.901   0.077   6.114 -1.7531  0.9361 -1.0445
  135MOL   H23246060   5.005   0.146   6.236  1.3866 -1.3004 -0.4257
  135MOL   H23346061   5.112   0.262   6.023  2.5200 -2.0849 -0.0567
  135MOL   H23446062   5.162   0.028   6.254  0.1006  0.9003 -1.0902
  135MOL   H23546063   5.096   7.819   6.146 -1.9880  1.6893  0.1493
  135MOL   H23646064   5.343   7.829   6.287  1.3597  1.6594 -0.4762
  135MOL   H23746065   5.321   7.725   6.140  4.6781  0.3089 -0.5050
  135MOL   H23846066   5.496   0.060   6.151  0.6490 -0.2024 -0.5092
  135MOL   H23946067   5.467   7.855   6.011  1.2298  0.0391  0.8685
  135MOL   C24046068   5.032   0.127   5.881  0.0038 -0.4274  0.1177
  135MOL   C24146069   4.986   7.879   5.850 -0.0203 -0.1959  0.1575
  135MOL   N24246070   4.876   7.868   5.752 -0.2194  0.1697  0.0921
  135MOL   C24346071   4.744   7.827   5.790 -0.2110  0.3928 -0.3245
  135MOL   C24446072   4.648   7.849   5.670  0.3390 -0.1696  0.2204
  135MOL   C24546073   4.733   0.009   5.562 -0.6250 -0.3582 -0.2390
  135MOL   C24646074   4.876   0.008   5.622  0.3441  0.7361 -0.3064
  135MOL   O24746075   4.971   0.057   5.569  0.5193  1.2027  0.2166
  135MOL   H24846076   5.106   0.161   5.809 -0.7580  1.7511  0.3097
  135MOL   H24946077   4.944   0.186   5.853 -1.4690 -2.5857  0.0980
  135MOL   H25046078   4.950   7.835   5.943 -0.2015  2.2395  1.2655
  135MOL   H25146079   4.742   7.722   5.818  0.3531  0.4350 -0.1231
  135MOL   H25246080   4.710   7.870   5.884 -1.8846  0.1030 -0.7679
  135MOL   H25346081   4.601   7.759   5.631  0.7423 -1.1709  1.9926
  135MOL   H25446082   4.556   7.902   5.696 -1.7178 -4.4326  2.1814
  135MOL   H25546083   4.737   7.842   5.481 -1.1145 -0.6608  0.0057
  135MOL   H25646084   4.691   0.104   5.528 -0.1956 -1.2957 -3.5688
  135MOL   C25746085   5.111   7.788   5.805  0.5071  0.4002  0.6027
  135MOL   C25846086   5.077   7.647   5.792  0.7129  0.0087  0.1327
  135MOL   N25946087   5.179   7.587   5.709 -0.7008  0.2982  0.2854
  135MOL   C26046088   5.142   7.528   5.586 -0.5076  0.4631  0.3428
  135MOL   C26146089   5.270   7.527   5.501 -0.4825  0.4439  0.6189
  135MOL   C26246090   5.384   7.541   5.600  0.1739  0.5312 -0.7814
  135MOL   C26346091   5.312   7.585   5.727 -0.0613 -0.0728  0.9958
  135MOL   O26446092   5.378   7.616   5.828  0.6296  0.3486  0.6760
  135MOL   H26546093   5.200   7.805   5.865  1.4401  0.6481 -0.8047
  135MOL   H26646094   5.143   7.822   5.706  1.1172 -1.8546  0.0048
  135MOL   H26746095   4.979   7.631   5.746  0.4416 -0.1980  0.7827
  135MOL   H26846096   5.107   7.425   5.591  2.1214 -0.4493  0.6235
  135MOL   H26946097   5.057   7.578   5.539 -2.3141 -1.3320  1.6177
  135MOL   H27046098   5.287   7.440   5.437 -0.4392 -0.6888  2.1471
  135MOL   H27146099   5.263   7.606   5.426  1.5529  0.1097  0.0316
  135MOL   H27246100   5.461   7.464   5.611 -0.5549 -0.1753 -0.5881
  135MOL   H27346101   5.441   7.630   5.575  0.4957  0.8457  0.9680
  135MOL   C27446102   5.071   7.574   5.930  0.6590  0.3823 -0.0762
  135MOL   C27546103   4.998   7.443   5.929 -0.5521 -0.1318  0.0310
  135MOL   N27646104   5.032   7.359   6.039 -0.4762  0.5328  0.6771
  135MOL   C27746105   5.095   7.227   6.005 -0.2259  0.2179  0.3562
  135MOL   C27846106   5.085   7.142   6.139 -1.0598  1.0540 -0.0008
  135MOL   C27946107   5.049   7.243   6.244  0.4800 -0.3085  0.0700
  135MOL   C28046108   5.010   7.374   6.171 -0.5699  0.8691 -0.1084
  135MOL   O28146109   4.965   7.472   6.234  0.7106  0.1421 -0.4610
  135MOL   H28246110   5.028   7.636   6.009 -2.1167  2.3840 -3.0032
  135MOL   H28346111   5.174   7.550   5.954  0.2957 -0.9952  0.1699
  135MOL   H28446112   5.030   7.398   5.835  1.0712  1.1146 -0.0261
  135MOL   H28546113   5.054   7.172   5.920  2.5575  0.1305 -0.9827
  135MOL   H28646114   5.197   7.238   5.969 -1.5656  0.8887 -3.4887
  135MOL   H28746115   5.005   7.069   6.131  0.6129 -0.7099 -1.0506
  135MOL   H28846116   5.175   7.080   6.147 -1.4652  0.6691  1.7884
  135MOL   H28946117   4.962   7.210   6.301  0.5388 -3.4047 -1.4999
  135MOL   H29046118   5.120   7.255   6.326  2.3929 -1.4853 -1.3825
  135MOL   C29146119   4.840   7.446   5.906 -0.2728 -0.1856  0.4401
  135MOL   C29246120   4.753   7.319   5.895 -0.7023  0.4096  0.2606
  135MOL   N29346121   4.606   7.340   5.901  0.2050  0.3355 -0.2895
  135MOL   C29446122   4.523   7.270   5.994  0.0878  0.4507 -0.6694
  135MOL   C29546123   4.389   7.342   5.982  0.6835  0.1678 -0.2055
  135MOL   C29646124   4.388   7.427   5.858 -0.4535  0.0358  0.0768
  135MOL   C29746125   4.538   7.432   5.830 -0.2327 -0.8576  0.7891
  135MOL   O29846126   4.586   7.508   5.746  0.3463 -0.8298 -0.0138
  135MOL   H29946127   4.823   7.498   5.811  0.7014  1.2111  1.0011
  135MOL   H30046128   4.801   7.519   5.977 -0.6145  1.2728 -1.1933
  135MOL   H30146129   4.788   7.258   5.978  5.3785  2.7976 -0.3070
  135MOL   H30246130   4.522   7.163   5.974 -1.8346  0.6214 -1.5872
  135MOL   H30346131   4.564   7.272   6.095 -1.5931 -1.0545  0.0612
  135MOL   H30446132   4.315   7.263   5.978  0.9304 -0.2772  3.1036
  135MOL   H30546133   4.372   7.410   6.065  0.3218 -0.8517  0.5649
  135MOL   H30646134   4.342   7.372   5.775 -0.4062  2.8279 -1.8874
  135MOL   H30746135   4.337   7.521   5.878  0.5688  0.7778 -0.7266
  135MOL   C30846136   4.786   7.239   5.766  0.4297  0.1971  0.3586
  135MOL   C30946137   4.731   7.091   5.767 -0.4981  0.0883 -0.5180
  135MOL   N31046138   4.724   7.028   5.629  0.5630  0.0971 -0.6401
  135MOL   C31146139   4.597   6.980   5.572  0.4292 -0.1828  0.1094
  135MOL   C31246140   4.635   6.899   5.444  0.3670 -0.6877  0.4667
  135MOL   C31346141   4.784   6.943   5.415  0.6570  0.4508 -0.2439
  135MOL   C31446142   4.823   7.002   5.545 -0.3978 -0.2821 -0.2322
  135MOL   O31546143   4.939   7.035   5.561 -0.6463  0.2661  0.0405
  135MOL   H31646144   4.893   7.228   5.750  0.1705 -1.7470 -0.2014
  135MOL   H31746145   4.743   7.290   5.680 -0.7237 -0.9423  0.2351
  135MOL   H31846146   4.626   7.084   5.795 -0.3366 -0.8290 -0.1021
  135MOL   H31946147   4.536   6.916   5.635 -1.4451  1.3740 -0.0719
  135MOL   H32046148   4.537   7.067   5.547 -2.1752 -1.6847  0.9665
  135MOL   H32146149   4.629   6.792   5.462 -1.9462 -1.1384 -2.6107
  135MOL   H32246150   4.566   6.917   5.361  0.2610  0.6475  0.8333
  135MOL   H32346151   4.838   6.856   5.377  2.1016  0.6891  1.2254
  135MOL   H32446152   4.800   7.026   5.346  1.6909 -1.1541 -2.0053
  135MOL   C32546153   4.801   7.005   5.871  0.7806  0.0363 -0.3237
  135MOL   C32646154   4.756   6.860   5.867  0.3872  0.8289  0.1647
  135MOL   N32746155   4.828   6.784   5.962 -0.3240 -0.2020  0.1414
  135MOL   C32846156   4.963   6.726   5.939  0.6314 -0.1566  0.0874
  135MOL   C32946157   4.984   6.637   6.060  0.5818 -0.0690  0.2012
  135MOL   C33046158   4.873   6.671   6.164  0.0229  0.0759 -0.2163
  135MOL   C33146159   4.776   6.754   6.085  0.3074  0.3930  0.6656
  135MOL   O33246160   4.676   6.807   6.137  0.0413 -0.6436 -0.2346
  135MOL   H33346161   4.770   7.043   5.968  0.1476 -3.3851  0.8967
  135MOL   H33446162   4.908   7.002   5.853  0.5197 -2.0479 -1.7122
  135MOL   H33546163   4.780   6.817   5.770  0.3984  0.9057  0.1329
  135MOL   H33646164   4.978   6.682   5.840  0.1969 -2.4465  1.0192
  135MOL   H33746165   5.040   6.803   5.933  2.6933 -2.2422 -1.2574
  135MOL   H33846166   4.967   6.534   6.027 -0.0948 -0.0583  0.5128
  135MOL   H33946167   5.085   6.644   6.102  0.5801  0.2410  0.1562
  135MOL   H34046168   4.820   6.581   6.194 -1.9675  0.7358 -1.6482
  135MOL   H34146169   4.912   6.728   6.249  1.4590 -0.2574 -0.6281
  135MOL   H34246170   4.647   6.862   5.877  0.1920  1.3931 -1.8930
  136MOL     C146171   6.819   6.614   5.606 -0.3529 -0.2922 -0.3182
  136MOL     C246172   6.920   6.533   5.519  0.1287 -0.3853 -0.0929
  136MOL     N346173   7.015   6.446   5.599 -0.2824  0.6673 -0.0177
  136MOL     C446174   6.976   6.315   5.653 -0.5622 -0.4945  0.0586
  136MOL     C546175   7.106   6.252   5.697  0.4960 -0.0418 -0.2257
  136MOL     C646176   7.212   6.361   5.684  0.2135 -0.4613 -0.2831
  136MOL     C746177   7.144   6.480   5.628 -0.2476 -0.1244 -0.6719
  136MOL     O846178   7.197   6.586   5.621  0.0515 -0.0708 -0.3738
  136MOL     H946179   6.771   6.681   5.534 -1.2037 -1.1456 -0.5574
  136MOL    H1046180   6.736   6.550   5.637  0.3604  0.0906  2.5222
  136MOL    H1146181   6.976   6.609   5.463  0.9040 -1.0933 -0.2814
  136MOL    H1246182   6.921   6.319   5.747  0.7263 -1.5368  0.8748
  136MOL    H1346183   6.919   6.246   5.591 -1.3360 -1.5034  1.8314
  136MOL    H1446184   7.101   6.210   5.798 -1.0153 -1.1841 -0.7583
  136MOL    H1546185   7.133   6.167   5.635 -1.4151 -1.7016  1.1441
  136MOL    H1646186   7.262   6.373   5.780  0.1842  1.6118 -0.5122
  136MOL    H1746187   7.280   6.337   5.603 -0.3394 -0.4105 -0.7658
  136MOL    H1846188   6.869   6.672   5.684 -0.2725 -0.2739 -0.3835
  136MOL    C1946189   6.844   6.452   5.413  0.5761 -0.3309  0.0544
  136MOL    C2046190   6.778   6.531   5.300  0.7532 -0.0794 -0.4675
  136MOL    N2146191   6.874   6.619   5.230  0.2497 -0.3616 -0.4375
  136MOL    C2246192   6.856   6.764   5.225  0.3003 -0.0631 -0.4220
  136MOL    C2346193   6.952   6.815   5.122 -0.3374  0.4067  0.8634
  136MOL    C2446194   7.052   6.702   5.101  0.8351  0.5890  0.4434
  136MOL    C2546195   6.982   6.577   5.164  1.2052 -0.5130  1.0783
  136MOL    O2646196   7.031   6.469   5.159 -0.0149  0.5330  0.5900
  136MOL    H2746197   6.772   6.384   5.459  0.7060 -1.5143 -1.4253
  136MOL    H2846198   6.917   6.381   5.372  0.5770  0.8434 -2.0438
  136MOL    H2946199   6.698   6.596   5.335  1.4118  0.1288  0.6673
  136MOL    H3046200   6.757   6.788   5.188 -0.4280 -3.6644 -0.9925
  136MOL    H3146201   6.866   6.808   5.325 -0.1173  2.3787 -1.4124
  136MOL    H3246202   6.893   6.832   5.033 -1.8780  1.6238  2.0977
  136MOL    H3346203   6.996   6.912   5.143 -0.1208  0.3060  0.8855
  136MOL    H3446204   7.081   6.692   4.996  1.9148 -0.3410  0.8093
  136MOL    H3546205   7.141   6.717   5.163  0.3775  1.4606  0.9016
  136MOL    C3646206   6.712   6.437   5.198  0.6770  1.0751 -0.1533
  136MOL    C3746207   6.555   6.418   5.213 -0.0901  0.2221 -0.2959
  136MOL    N3846208   6.483   6.533   5.156 -0.0378 -0.2263  0.2746
  136MOL    C3946209   6.385   6.607   5.237 -0.5414 -0.2394  0.3017
  136MOL    C4046210   6.339   6.723   5.144 -0.7727 -0.6098  0.9624
  136MOL    C4146211   6.397   6.694   5.002  0.5791 -0.9293  0.1912
  136MOL    C4246212   6.494   6.580   5.026  0.5120  0.1385 -1.2689
  136MOL    O4346213   6.578   6.542   4.943 -0.0425 -0.4070 -0.3494
  136MOL    H4446214   6.757   6.338   5.206  0.3957  0.9902  0.3599
  136MOL    H4546215   6.731   6.467   5.095 -0.9422 -2.1115 -1.4668
  136MOL    H4646216   6.541   6.407   5.320 -1.6465 -0.8841 -0.5858
  136MOL    H4746217   6.301   6.539   5.255 -0.3106 -0.7327 -0.4479
  136MOL    H4846218   6.411   6.649   5.334 -0.4291  2.8784 -1.0160
  136MOL    H4946219   6.231   6.716   5.137 -0.9658 -0.1222  2.9830
  136MOL    H5046220   6.376   6.823   5.169  0.1823 -0.4259 -1.0924
  136MOL    H5146221   6.319   6.664   4.932  0.2200  1.3902 -0.4424
  136MOL    H5246222   6.450   6.778   4.958  0.6953 -0.1911  1.6998
  136MOL    C5346223   6.516   6.283   5.144  0.6889  0.0224  0.5276
  136MOL    C5446224   6.530   6.160   5.231 -0.6705 -0.0083 -0.0013
  136MOL    N5546225   6.437   6.160   5.349 -0.3083 -0.2701 -0.1564
  136MOL    C5646226   6.498   6.181   5.475 -0.4271 -0.9480 -0.3978
  136MOL    C5746227   6.379   6.180   5.571  0.2405 -0.6449  0.5501
  136MOL    C5846228   6.256   6.223   5.484 -0.2963 -0.5125  0.0121
  136MOL    C5946229   6.309   6.200   5.350  0.1464 -0.2278  0.1783
  136MOL    O6046230   6.242   6.219   5.249  1.0268 -0.1875  0.0346
  136MOL    H6146231   6.592   6.259   5.069 -2.1229 -2.1009 -1.7400
  136MOL    H6246232   6.423   6.291   5.089  0.2630  0.4578  1.3050
  136MOL    H6346233   6.624   6.168   5.285 -2.4950  0.3921  3.2519
  136MOL    H6446234   6.566   6.101   5.505  0.0801 -0.4363 -0.1792
  136MOL    H6546235   6.559   6.271   5.479 -1.4327 -0.2065 -1.4634
  136MOL    H6646236   6.375   6.075   5.601  0.9076 -0.0029  2.9659
  136MOL    H6746237   6.390   6.227   5.668  1.4434 -2.3153  1.2328
  136MOL    H6846238   6.166   6.163   5.483  0.4066 -1.5665 -1.3076
  136MOL    H6946239   6.232   6.329   5.492  0.2121 -0.4371  0.6323
  136MOL    C7046240   6.528   6.022   5.147  1.2985  0.2135 -0.2507
  136MOL    C7146241   6.650   5.987   5.060 -0.3115  0.0978 -0.1509
  136MOL    N7246242   6.779   5.990   5.134  0.1671 -0.0831  1.0202
  136MOL    C7346243   6.894   6.045   5.065 -0.4565 -0.6628  0.1324
  136MOL    C7446244   7.005   6.071   5.168  0.1982 -0.3470  0.4115
  136MOL    C7546245   6.954   5.990   5.294  0.4603  0.3509  0.0843
  136MOL    C7646246   6.811   5.953   5.258 -0.1034 -0.1004  0.1206
  136MOL    O7746247   6.731   5.912   5.340  0.5946 -0.3219  0.5437
  136MOL    H7846248   6.436   6.019   5.089  2.6154 -1.8671 -2.3188
  136MOL    H7946249   6.507   5.948   5.224  0.2430  1.1475  0.3785
  136MOL    H8046250   6.655   6.065   4.984  1.7452  0.3836  0.2556
  136MOL    H8146251   6.934   5.976   4.991  0.8363 -0.3375  0.5083
  136MOL    H8246252   6.854   6.134   5.015  0.4302  0.9593  2.2209
  136MOL    H8346253   7.102   6.032   5.138  1.0468  2.2279 -0.2516
  136MOL    H8446254   7.013   6.176   5.194 -3.3503 -0.5089  2.5263
  136MOL    H8546255   7.014   5.904   5.324  0.8088  0.9511  1.1389
  136MOL    H8646256   6.959   6.051   5.384  0.6680  0.7162 -0.1740
  136MOL    C8746257   6.634   5.843   5.007 -0.1552 -0.1355 -0.5531
  136MOL    C8846258   6.673   5.843   4.860 -0.3957  0.9004 -0.5657
  136MOL    N8946259   6.710   5.698   4.832 -0.3341 -0.3460  0.2174
  136MOL    C9046260   6.846   5.655   4.809 -0.3135 -0.8341 -0.5291
  136MOL    C9146261   6.836   5.513   4.753 -0.1191 -0.0260 -0.1448
  136MOL    C9246262   6.716   5.465   4.835  0.0885  0.2556 -0.2790
  136MOL    C9346263   6.630   5.589   4.834 -0.2301  0.6189 -0.3935
  136MOL    O9446264   6.504   5.590   4.844 -0.0343  0.2154  0.4671
  136MOL    H9546265   6.529   5.813   5.002 -0.6357  1.5390 -1.0449
  136MOL    H9646266   6.677   5.758   5.060  0.2164  1.3657  1.5987
  136MOL    H9746267   6.762   5.904   4.846 -0.8215  1.5971 -0.2545
  136MOL    H9846268   6.892   5.724   4.739  0.5211  1.9904  2.6425
  136MOL    H9946269   6.903   5.674   4.901 -0.7108  0.8654 -0.6117
  136MOL   H10046270   6.808   5.517   4.648  1.8372 -0.9020 -0.7187
  136MOL   H10146271   6.924   5.449   4.758  0.6254  0.9630 -0.3682
  136MOL   H10246272   6.664   5.382   4.785  0.0152  0.5985 -0.7737
  136MOL   H10346273   6.739   5.437   4.937 -0.3384  1.5034  0.1651
  136MOL   C10446274   6.556   5.892   4.772  0.2129 -0.2001  0.0363
  136MOL   C10546275   6.588   5.988   4.660 -0.1944  0.5821  0.5321
  136MOL   N10646276   6.701   5.940   4.573 -0.4682  0.0036  0.0486
  136MOL   C10746277   6.827   6.012   4.550  0.4742 -0.5914 -0.1278
  136MOL   C10846278   6.928   5.906   4.504 -0.1065  0.3720 -0.0598
  136MOL   C10946279   6.841   5.785   4.463  0.0077  0.1693 -0.0151
  136MOL   C11046280   6.697   5.827   4.506  0.1685  0.4395  0.5653
  136MOL   O11146281   6.600   5.755   4.492 -0.1776  0.2293  0.5617
  136MOL   H11246282   6.482   5.943   4.833  0.7851  0.2524  0.3616
  136MOL   H11346283   6.496   5.814   4.726 -2.1804  2.1302 -0.8830
  136MOL   H11446284   6.620   6.085   4.699 -1.4047  1.5429 -0.8098
  136MOL   H11546285   6.810   6.083   4.469 -1.3774 -2.0706 -1.1084
  136MOL   H11646286   6.853   6.079   4.632 -3.2153 -0.1291  0.7498
  136MOL   H11746287   6.973   5.942   4.412  1.0690 -0.4866  0.1748
  136MOL   H11846288   6.996   5.884   4.585  0.8180  1.2998 -0.5795
  136MOL   H11946289   6.873   5.690   4.507  0.9454  0.7791  0.6461
  136MOL   H12046290   6.838   5.769   4.356 -0.2723  1.3434 -0.1965
  136MOL   C12146291   6.463   6.021   4.575 -0.3847  0.2487  0.7150
  136MOL   C12246292   6.411   6.159   4.621  0.0422 -0.1748 -0.6587
  136MOL   N12346293   6.489   6.271   4.569 -0.2545 -0.4025  0.2265
  136MOL   C12446294   6.516   6.391   4.660 -0.5741  0.1013 -0.4848
  136MOL   C12546295   6.585   6.499   4.573  0.4504  0.7149  0.6170
  136MOL   C12646296   6.596   6.440   4.431  0.3640 -0.4147 -0.5453
  136MOL   C12746297   6.534   6.307   4.444  0.0762 -0.3272  1.1052
  136MOL   O12846298   6.511   6.243   4.343  0.2018 -0.1595 -0.1364
  136MOL   H12946299   6.395   5.936   4.580 -1.4116  0.8633 -2.0108
  136MOL   H13046300   6.487   6.015   4.469  1.6056  1.9065  1.0275
  136MOL   H13146301   6.412   6.161   4.730 -1.0671  2.5339 -0.6442
  136MOL   H13246302   6.587   6.357   4.736 -0.5609  0.3611 -0.3804
  136MOL   H13346303   6.427   6.420   4.715 -1.1553  0.6923 -1.7395
  136MOL   H13446304   6.513   6.579   4.593 -0.9824  0.1024 -1.8298
  136MOL   H13546305   6.684   6.522   4.612  0.3504  2.1475  0.0850
  136MOL   H13646306   6.547   6.505   4.358 -0.2660 -0.7398 -0.4117
  136MOL   H13746307   6.702   6.434   4.405  0.6520 -1.2070  0.7719
  136MOL   C13846308   6.265   6.186   4.569 -0.0469  0.2781 -0.2212
  136MOL   C13946309   6.152   6.093   4.609  0.2573  0.3586 -0.1236
  136MOL   N14046310   6.147   6.072   4.759  0.5039 -0.5542  0.0033
  136MOL   C14146311   6.160   5.940   4.808 -0.0761 -0.0036 -0.5073
  136MOL   C14246312   6.161   5.947   4.960  0.3402  0.3893 -0.0126
  136MOL   C14346313   6.157   6.099   4.994  0.1254  0.3661  0.3542
  136MOL   C14446314   6.133   6.166   4.858  0.5193  0.3569  0.5951
  136MOL   O14546315   6.111   6.284   4.836 -0.2162  0.1750  0.0237
  136MOL   H14646316   6.266   6.192   4.460 -1.0310  2.5630 -0.1598
  136MOL   H14746317   6.237   6.288   4.596  0.6596 -0.1302  2.1181
  136MOL   H14846318   6.177   5.994   4.570  1.7339  1.1665 -1.2778
  136MOL   H14946319   6.078   5.880   4.768  0.8340  0.5309 -3.2065
  136MOL   H15046320   6.257   5.910   4.769  0.7311  0.7306  0.8690
  136MOL   H15146321   6.082   5.889   5.008  1.2041 -0.3990  0.4762
  136MOL   H15246322   6.250   5.901   5.003  0.1434 -2.4363 -2.5324
  136MOL   H15346323   6.253   6.136   5.030 -0.1868  1.5641 -0.0084
  136MOL   H15446324   6.091   6.124   5.077  0.8165 -0.4993  1.1672
  136MOL   C15546325   6.013   6.144   4.564 -0.4354 -0.4487  0.0775
  136MOL   C15646326   5.981   6.138   4.408 -0.7450  0.0402 -0.0579
  136MOL   N15746327   5.953   6.000   4.357  0.2371 -0.0055  0.2568
  136MOL   C15846328   6.000   5.968   4.222 -0.5574 -0.7430  0.1291
  136MOL   C15946329   5.953   5.827   4.202 -0.2843 -0.0610 -0.1094
  136MOL   C16046330   5.839   5.803   4.296  0.1051  0.6071 -0.6373
  136MOL   C16146331   5.867   5.910   4.402  0.1596  0.1686 -0.9689
  136MOL   O16246332   5.796   5.911   4.507 -0.5270 -0.8798 -0.5585
  136MOL   H16346333   6.014   6.250   4.588  1.1346 -0.1120 -1.3602
  136MOL   H16446334   5.929   6.099   4.617 -1.2372 -1.1026 -1.6724
  136MOL   H16546335   6.066   6.173   4.349 -0.6749  1.8629  1.1120
  136MOL   H16646336   5.951   6.032   4.149 -1.3355 -1.5953 -0.0922
  136MOL   H16746337   6.108   5.987   4.218 -0.6589  0.2237  1.6004
  136MOL   H16846338   5.920   5.806   4.100 -0.5807  1.2299 -0.2822
  136MOL   H16946339   6.032   5.755   4.226 -1.2436 -1.3772 -0.8633
  136MOL   H17046340   5.737   5.818   4.259  0.0882 -1.9816 -1.7333
  136MOL   H17146341   5.834   5.701   4.334 -0.6171  2.1024  3.5722
  136MOL   C17246342   5.862   6.228   4.367  0.2697 -0.7985  0.5587
  136MOL   C17346343   5.891   6.383   4.377  1.0160 -0.0768 -0.3135
  136MOL   N17446344   6.018   6.422   4.316  0.4006  0.6705  0.4797
  136MOL   C17546345   6.105   6.506   4.391  0.1141  0.0332  0.4372
  136MOL   C17646346   6.211   6.552   4.293  0.4030  0.2051 -0.1990
  136MOL   C17746347   6.205   6.447   4.180 -0.8403 -0.4733  0.1452
  136MOL   C17846348   6.064   6.393   4.194  1.1418  0.1544  0.7016
  136MOL   O17946349   6.013   6.328   4.104  0.0079  0.0762 -0.4414
  136MOL   H18046350   5.768   6.207   4.417  0.4373 -0.7442  0.9008
  136MOL   H18146351   5.840   6.213   4.262 -0.8315 -0.0557  0.6739
  136MOL   H18246352   5.880   6.426   4.476 -2.1842  1.5193 -1.2850
  136MOL   H18346353   6.059   6.581   4.456 -0.1177  0.0205  0.2881
  136MOL   H18446354   6.147   6.443   4.470  0.7895  2.0676  1.7533
  136MOL   H18546355   6.305   6.550   4.347  0.6866  1.9499 -0.6294
  136MOL   H18646356   6.188   6.657   4.280  3.9639  0.6403 -3.7776
  136MOL   H18746357   6.213   6.492   4.081 -0.1224 -1.5130 -0.2766
  136MOL   H18846358   6.277   6.365   4.189 -1.1886 -1.0073 -1.6650
  136MOL   C18946359   5.774   6.459   4.311  0.0990  0.3524  0.4553
  136MOL   C19046360   5.788   6.608   4.276  0.4913  0.1598 -0.4013
  136MOL   N19146361   5.695   6.640   4.168 -0.4799 -0.2262 -0.0631
  136MOL   C19246362   5.747   6.643   4.031 -0.5623 -0.3912  0.0644
  136MOL   C19346363   5.618   6.676   3.945 -0.1566 -0.4050 -0.5851
  136MOL   C19446364   5.508   6.696   4.048  0.1052  0.1945 -0.2168
  136MOL   C19546365   5.568   6.667   4.180  0.2888  0.0610 -0.0629
  136MOL   O19646366   5.500   6.673   4.282 -0.3118 -0.4354  0.1854
  136MOL   H19746367   5.686   6.454   4.375 -1.5074 -0.2791 -1.7465
  136MOL   H19846368   5.762   6.406   4.216  2.7841  0.5457 -0.0286
  136MOL   H19946369   5.884   6.623   4.228  0.9021  1.0798  0.6767
  136MOL   H20046370   5.827   6.715   4.016 -1.0066 -0.0128 -0.5413
  136MOL   H20146371   5.780   6.544   4.002 -1.1441 -0.6230  0.1792
  136MOL   H20246372   5.627   6.767   3.885  1.2009  0.9424  1.5978
  136MOL   H20346373   5.585   6.596   3.878  0.5517  0.5194 -2.0634
  136MOL   H20446374   5.462   6.794   4.051  0.0060  0.1442 -0.1115
  136MOL   H20546375   5.432   6.622   4.024  1.0806  0.1839 -3.5835
  136MOL   C20646376   5.791   6.707   4.395 -0.0690  0.7017 -0.1463
  136MOL   C20746377   5.822   6.853   4.355 -0.2862  0.6113 -0.5281
  136MOL   N20846378   5.720   6.942   4.414  0.0181  0.2453  0.0508
  136MOL   C20946379   5.639   7.024   4.328  0.6164 -0.5208  0.2080
  136MOL   C21046380   5.604   7.136   4.416  0.4194 -0.2265  0.3220
  136MOL   C21146381   5.631   7.092   4.567  0.2720  0.0482  0.1397
  136MOL   C21246382   5.701   6.963   4.546 -0.5061 -0.3502 -0.3667
  136MOL   O21346383   5.751   6.896   4.634  0.3888 -0.1043  0.1353
  136MOL   H21446384   5.862   6.671   4.469 -0.3180 -0.2100 -0.3461
  136MOL   H21546385   5.705   6.703   4.462 -0.6539 -4.6739 -1.0029
  136MOL   H21646386   5.832   6.865   4.247  0.9456  0.8200 -0.4028
  136MOL   H21746387   5.698   7.045   4.239 -1.8399 -0.5455 -1.4970
  136MOL   H21846388   5.550   6.964   4.307 -0.3113  0.8982 -0.0027
  136MOL   H21946389   5.666   7.220   4.381  1.2829 -0.4693  1.2378
  136MOL   H22046390   5.500   7.162   4.397  0.8776  0.6968 -1.0766
  136MOL   H22146391   5.694   7.165   4.616 -0.8549  0.8767  0.3805
  136MOL   H22246392   5.537   7.077   4.620 -1.1712  0.0138 -2.3476
  136MOL   C22346393   5.969   6.888   4.406  0.0008 -0.4469  0.0655
  136MOL   C22446394   6.025   7.029   4.386 -0.3599 -0.1075 -0.1992
  136MOL   N22546395   6.145   7.037   4.464 -0.1525  0.1415 -0.3288
  136MOL   C22646396   6.123   7.120   4.584  0.0707  0.6912  0.5155
  136MOL   C22746397   6.262   7.116   4.655 -0.0693  0.5065 -0.1583
  136MOL   C22846398   6.349   7.028   4.569 -0.1193 -0.3161 -0.0348
  136MOL   C22946399   6.264   6.975   4.454 -0.5714 -0.1951 -0.0413
  136MOL   O23046400   6.302   6.899   4.372  0.2150 -0.2066 -0.0559
  136MOL   H23146401   6.036   6.818   4.355  3.2071  0.2327  3.1388
  136MOL   H23246402   5.982   6.869   4.512  3.0441 -3.1427 -0.6891
  136MOL   H23346403   5.951   7.091   4.437 -0.8909 -2.4470  1.9752
  136MOL   H23446404   6.083   7.218   4.561 -2.5752 -0.7228 -1.1096
  136MOL   H23546405   6.048   7.078   4.651 -1.1950 -1.2029 -2.0180
  136MOL   H23646406   6.302   7.217   4.656 -0.1441  0.5924 -2.7936
  136MOL   H23746407   6.257   7.088   4.760 -0.8874  0.2173 -0.2700
  136MOL   H23846408   6.440   7.071   4.527  1.8883 -1.7309  2.6807
  136MOL   H23946409   6.372   6.934   4.619  0.6871  0.6724  1.4836
  136MOL   C24046410   6.041   7.082   4.245  0.0582  0.2021 -0.3582
  136MOL   C24146411   6.055   7.231   4.224 -0.8277 -0.3759  0.2586
  136MOL   N24246412   6.055   7.270   4.077  0.1750 -0.4502  0.4676
  136MOL   C24346413   6.180   7.329   4.016 -0.3319 -0.6382 -0.1909
  136MOL   C24446414   6.133   7.354   3.870 -0.2510 -0.2024  0.4917
  136MOL   C24546415   6.006   7.281   3.845 -0.1613  0.2852 -0.2143
  136MOL   C24646416   5.960   7.242   3.980 -0.5215 -0.1649  0.7579
  136MOL   O24746417   5.852   7.179   3.993 -0.7529  0.5371  0.0566
  136MOL   H24846418   5.952   7.062   4.187  0.7529 -0.7124 -1.1225
  136MOL   H24946419   6.126   7.035   4.196  0.2316  1.0100 -0.8293
  136MOL   H25046420   6.154   7.260   4.260 -1.3455 -0.2193  1.5947
  136MOL   H25146421   6.205   7.423   4.065 -1.9496  0.2372 -0.9908
  136MOL   H25246422   6.270   7.268   4.021  1.1917  1.6299  0.5457
  136MOL   H25346423   6.121   7.461   3.855  0.6817 -0.0214  1.0126
  136MOL   H25446424   6.208   7.329   3.796 -0.8796 -1.7149  0.3364
  136MOL   H25546425   5.934   7.341   3.791 -0.4328  0.4316  0.3040
  136MOL   H25646426   6.039   7.196   3.786  1.8167 -0.3853  1.7578
  136MOL   C25746427   5.947   7.314   4.294  0.3185  0.0517  0.2065
  136MOL   C25846428   5.968   7.469   4.291 -0.1455  0.5007  0.2790
  136MOL   N25946429   5.843   7.542   4.305  0.3630  0.3128 -0.4292
  136MOL   C26046430   5.803   7.634   4.195  0.1043  0.0281  0.4058
  136MOL   C26146431   5.685   7.707   4.249 -0.5229 -0.1009 -0.0415
  136MOL   C26246432   5.637   7.635   4.378  0.2677 -0.2636  0.2082
  136MOL   C26346433   5.756   7.542   4.409  0.1401 -0.2630 -0.6457
  136MOL   O26446434   5.752   7.461   4.500 -0.8136  0.2282 -0.0004
  136MOL   H26546435   5.924   7.284   4.396 -0.4661 -1.3712 -0.3845
  136MOL   H26646436   5.852   7.287   4.248 -0.6249 -0.2118  2.2420
  136MOL   H26746437   6.006   7.503   4.194  2.6203  0.7396  1.3954
  136MOL   H26846438   5.877   7.711   4.175 -1.8611  1.3593 -2.0071
  136MOL   H26946439   5.774   7.571   4.111 -2.5884 -1.2226  2.1796
  136MOL   H27046440   5.712   7.809   4.275  0.1565 -0.4868  0.7705
  136MOL   H27146441   5.614   7.706   4.166 -1.0028  3.3027  0.2817
  136MOL   H27246442   5.617   7.713   4.452 -0.0101 -0.9959  0.9109
  136MOL   H27346443   5.550   7.570   4.370  0.1830 -0.1512  0.2212
  136MOL   C27446444   6.079   7.513   4.396  0.2600  0.2629  0.0166
  136MOL   C27546445   6.115   7.662   4.401 -0.0088 -0.5888 -0.3309
  136MOL   N27646446   6.085   7.722   4.536  0.2346  0.7949  0.0341
  136MOL   C27746447   5.980   7.822   4.543  0.0326  0.6052  0.2791
  136MOL   C27846448   5.967   7.865   4.682 -0.0621  0.5890  0.3437
  136MOL   C27946449   6.095   7.814   4.747 -0.1782 -0.3695  0.2647
  136MOL   C28046450   6.159   7.722   4.650  0.1192  0.7810 -0.1039
  136MOL   O28146451   6.252   7.642   4.679  0.3329  0.5195  0.5297
  136MOL   H28246452   6.178   7.468   4.394  1.2471  2.3464  0.3653
  136MOL   H28346453   6.028   7.475   4.484  1.2928  1.2942  1.0802
  136MOL   H28446454   6.046   7.712   4.333 -0.9366  1.0294  1.7449
  136MOL   H28546455   6.008   0.003   4.484 -1.3670  1.3343  0.6632
  136MOL   H28646456   5.888   7.785   4.498  0.8564 -0.1413 -0.8213
  136MOL   H28746457   5.957   0.067   4.691  2.0075  0.9799 -1.5506
  136MOL   H28846458   5.883   7.823   4.737 -1.2808  1.3387 -0.9304
  136MOL   H28946459   6.160   7.900   4.766 -1.0957  0.6571 -1.1822
  136MOL   H29046460   6.081   7.753   4.837 -0.0025  0.4314  0.8429
  136MOL   C29146461   6.272   7.686   4.376  0.0574  0.7820  0.1919
  136MOL   C29246462   6.290   7.666   4.219 -0.3557  0.5424  0.0899
  136MOL   N29346463   6.238   7.781   4.146 -0.3383  0.5050 -0.2953
  136MOL   C29446464   6.282   0.012   4.183  0.5111  0.6881 -0.4920
  136MOL   C29546465   6.226   0.107   4.080 -0.3563  0.1356 -0.0479
  136MOL   C29646466   6.151   0.011   3.982  0.2654 -0.8502  0.3218
  136MOL   C29746467   6.161   7.781   4.038  0.2595  0.0894  0.1054
  136MOL   O29846468   6.104   7.685   3.980  0.7989 -0.1545  0.0177
  136MOL   H29946469   6.326   7.608   4.429 -1.5427 -0.0338  0.6374
  136MOL   H30046470   6.312   7.782   4.408  3.1148 -0.7971  1.3524
  136MOL   H30146471   6.229   7.581   4.190 -1.9256  0.8090  2.5356
  136MOL   H30246472   6.250   0.032   4.286 -1.2332 -1.0228 -0.6766
  136MOL   H30346473   6.391   0.021   4.183  0.4059  2.0854 -1.6185
  136MOL   H30446474   6.149   0.174   4.118 -0.3495  0.3707 -0.4503
  136MOL   H30546475   6.295   0.181   4.040  0.5407  0.2431  1.6327
  136MOL   H30646476   6.051   0.051   3.966  1.9977  3.9290  0.7045
  136MOL   H30746477   6.202   0.012   3.886  1.1611 -1.1244  0.7882
  136MOL   C30846478   6.438   7.644   4.197 -0.0669  0.3687 -0.0655
  136MOL   C30946479   6.494   7.580   4.063 -0.4794 -0.3412  0.7287
  136MOL   N31046480   6.477   7.669   3.949 -0.0601 -0.1424 -0.4184
  136MOL   C31146481   6.422   7.609   3.826  0.8858  0.6038 -0.2134
  136MOL   C31246482   6.459   7.705   3.710  0.1986  0.4149 -0.6949
  136MOL   C31346483   6.501   7.830   3.786  0.4678 -0.5179  0.5348
  136MOL   C31446484   6.517   7.794   3.932 -0.4213  0.0488  0.1089
  136MOL   O31546485   6.559   7.872   4.012  0.2312  0.2704  0.0288
  136MOL   H31646486   6.467   7.575   4.276  1.2348  0.1289 -0.7436
  136MOL   H31746487   6.493   7.737   4.205  0.8851 -0.2843  1.1008
  136MOL   H31846488   6.445   7.484   4.047  0.4329 -0.6591 -0.2014
  136MOL   H31946489   6.460   7.508   3.811 -0.7290 -0.3894  2.0412
  136MOL   H32046490   6.315   7.596   3.843  0.1762  1.9981 -3.3861
  136MOL   H32146491   6.544   7.666   3.653  0.5243  0.2543 -0.1123
  136MOL   H32246492   6.381   7.716   3.636 -2.0917  0.6102  1.6779
  136MOL   H32346493   6.585   7.874   3.732  1.6921 -3.2814  0.1172
  136MOL   H32446494   6.428   0.005   3.787  1.0853  0.0384  1.9700
  136MOL   C32546495   6.645   7.545   4.081 -0.4383 -0.7665  0.3454
  136MOL   C32646496   6.688   7.435   4.181 -0.4489  1.0406  0.4798
  136MOL   N32746497   6.616   7.304   4.152  0.1522 -0.8856  0.1547
  136MOL   C32846498   6.661   7.215   4.044  0.0003 -0.0801  0.5029
  136MOL   C32946499   6.583   7.085   4.073  0.5159 -0.2515  0.1744
  136MOL   C33046500   6.491   7.113   4.195  0.4009  0.6866  0.9353
  136MOL   C33146501   6.524   7.253   4.233 -0.0985  0.5644  0.1125
  136MOL   O33246502   6.475   7.303   4.331 -0.4740 -0.4240 -0.4577
  136MOL   H33346503   6.696   7.634   4.120 -0.7521 -0.0104 -0.9422
  136MOL   H33446504   6.685   7.519   3.983  2.6593 -1.1189  1.6484
  136MOL   H33546505   6.659   7.471   4.279 -0.2843  2.4468  0.0193
  136MOL   H33646506   6.626   7.273   3.958  0.9450  0.9807  0.8139
  136MOL   H33746507   6.764   7.193   4.017  0.2612  0.3155  1.1560
  136MOL   H33846508   6.533   7.049   3.983  0.5450  2.3247 -0.9128
  136MOL   H33946509   6.652   7.002   4.090  2.5985  1.5166  0.5313
  136MOL   H34046510   6.388   7.105   4.160  1.4335  0.7896 -2.2321
  136MOL   H34146511   6.504   7.050   4.283 -0.4256 -0.8943 -0.0399
  136MOL   H34246512   6.795   7.425   4.194 -0.4839  1.4317  1.0810
  137MOL     C146513   5.700   5.329   2.012 -0.4579  0.8530  0.3588
  137MOL     C246514   5.767   5.335   2.148 -0.1055 -0.3021  0.0288
  137MOL     N346515   5.731   5.216   2.237 -0.4453  0.0325  0.1382
  137MOL     C446516   5.619   5.218   2.331  0.1399 -0.3092  0.2648
  137MOL     C546517   5.619   5.084   2.400  0.0838  0.9026 -0.3302
  137MOL     C646518   5.688   4.990   2.303 -0.5120 -0.0375 -0.1987
  137MOL     C746519   5.777   5.089   2.227 -0.1050 -0.7129 -0.2724
  137MOL     O846520   5.861   5.051   2.145 -0.4483 -0.2609 -0.3768
  137MOL     H946521   5.737   5.250   1.947 -0.1240  0.6473  0.7985
  137MOL    H1046522   5.594   5.317   2.034 -0.0955 -0.0943  1.5988
  137MOL    H1146523   5.712   5.415   2.199 -1.9276  0.0949 -2.4902
  137MOL    H1246524   5.609   5.303   2.397 -1.6448 -1.8097  1.9986
  137MOL    H1346525   5.535   5.226   2.261  0.9151  0.6284 -0.5782
  137MOL    H1446526   5.680   5.104   2.488 -0.0021  0.8443 -0.2575
  137MOL    H1546527   5.524   5.039   2.432  0.0339 -0.4575 -2.2999
  137MOL    H1646528   5.735   4.906   2.355 -2.7074  0.5064  2.7977
  137MOL    H1746529   5.616   4.948   2.232 -0.9782  2.6163 -1.3401
  137MOL    H1846530   5.700   5.419   1.950 -0.9220  0.5070 -0.1542
  137MOL    C1946531   5.913   5.372   2.132 -0.1385 -0.2280 -0.3249
  137MOL    C2046532   5.990   5.392   2.260 -0.3213  0.7774 -0.3096
  137MOL    N2146533   6.135   5.405   2.250  0.3011  0.2728 -0.3294
  137MOL    C2246534   6.234   5.308   2.304  0.5392  0.0548 -0.0157
  137MOL    C2346535   6.375   5.354   2.249 -0.4251  0.4893 -0.3603
  137MOL    C2446536   6.346   5.476   2.163 -0.1834  0.3092 -0.4949
  137MOL    C2546537   6.200   5.503   2.179 -0.4320 -0.1140  0.5015
  137MOL    O2646538   6.149   5.601   2.130  0.4044  0.2123  0.0815
  137MOL    H2746539   5.926   5.462   2.072 -0.4675 -0.4195 -0.6793
  137MOL    H2846540   5.959   5.286   2.084  1.2885 -0.5063  1.4531
  137MOL    H2946541   5.979   5.297   2.311  1.6636  1.5908  1.7052
  137MOL    H3046542   6.236   5.310   2.413  0.3808 -2.0181  0.0570
  137MOL    H3146543   6.207   5.209   2.267  1.8253  0.6552 -2.6671
  137MOL    H3246544   6.452   5.379   2.321  0.1298 -0.6983 -0.5169
  137MOL    H3346545   6.413   5.276   2.183 -1.6861 -0.7004  0.2988
  137MOL    H3446546   6.413   5.556   2.193  1.9280 -2.2179  1.7487
  137MOL    H3546547   6.367   5.450   2.060  2.0967 -1.5602  0.3885
  137MOL    C3646548   5.924   5.510   2.345 -0.9572  0.0881  0.4781
  137MOL    C3746549   5.986   5.535   2.486  0.2867  0.1334 -0.1702
  137MOL    N3846550   5.923   5.647   2.550  0.3068  0.4438 -0.6350
  137MOL    C3946551   5.989   5.778   2.543  0.1460 -0.4229  0.4750
  137MOL    C4046552   5.898   5.866   2.636  0.5619  0.6696 -0.1494
  137MOL    C4146553   5.785   5.780   2.678 -0.5579 -0.3356  0.4855
  137MOL    C4246554   5.804   5.646   2.608 -0.4815  0.1513  0.3877
  137MOL    O4346555   5.721   5.558   2.618  0.0526  0.5958 -0.5187
  137MOL    H4446556   5.823   5.478   2.370 -0.3328 -1.6291  0.8671
  137MOL    H4546557   5.918   5.603   2.288  1.0305 -0.4351 -0.6374
  137MOL    H4646558   6.093   5.557   2.479  0.1501  0.5744 -1.0512
  137MOL    H4746559   6.090   5.765   2.583  0.9161 -1.3535 -1.7127
  137MOL    H4846560   5.983   5.804   2.438 -0.8331 -0.1176  0.5967
  137MOL    H4946561   5.965   5.898   2.717  0.9220  0.9557 -0.5580
  137MOL    H5046562   5.860   5.949   2.576 -1.9432 -1.9172 -2.2443
  137MOL    H5146563   5.778   5.771   2.786 -0.6344 -0.1081  0.4989
  137MOL    H5246564   5.693   5.830   2.647  0.0306  0.5407  0.1463
  137MOL    C5346565   5.984   5.400   2.575 -0.2648  0.0004  0.2148
  137MOL    C5446566   6.087   5.405   2.692  0.0794 -0.4349 -1.0639
  137MOL    N5546567   6.029   5.457   2.818  0.5146  0.3772  0.1489
  137MOL    C5646568   6.090   5.572   2.895 -0.0482  0.0866 -0.1573
  137MOL    C5746569   6.002   5.595   3.020 -0.6468  0.5754 -0.0693
  137MOL    C5846570   5.887   5.502   3.002  0.5578  0.6159  0.3773
  137MOL    C5946571   5.910   5.419   2.876  0.0382  0.0583  0.2995
  137MOL    O6046572   5.839   5.323   2.838 -0.3394 -0.0615 -0.0471
  137MOL    H6146573   6.013   5.324   2.502 -3.9303 -0.8644 -0.4573
  137MOL    H6246574   5.884   5.359   2.590 -0.0879 -0.6364 -0.2884
  137MOL    H6346575   6.169   5.472   2.669  0.2600 -0.8965 -1.7779
  137MOL    H6446576   6.193   5.562   2.928  0.4447 -1.8582 -2.1499
  137MOL    H6546577   6.078   5.652   2.822 -0.4543 -0.2944 -0.5098
  137MOL    H6646578   6.052   5.554   3.107 -1.1512  0.6779  0.2715
  137MOL    H6746579   5.967   5.699   3.014 -1.2055  0.3291 -1.3215
  137MOL    H6846580   5.892   5.437   3.089  0.5854 -1.5448 -1.1988
  137MOL    H6946581   5.791   5.551   3.015 -0.3247 -0.9115 -0.2230
  137MOL    C7046582   6.156   5.264   2.710  0.1101  0.2839 -0.9287
  137MOL    C7146583   6.278   5.234   2.809  0.2403  0.8416 -0.7449
  137MOL    N7246584   6.318   5.092   2.794 -0.1742  0.2535 -0.3577
  137MOL    C7346585   6.265   4.988   2.888 -0.0748  0.4689  0.2150
  137MOL    C7446586   6.328   4.856   2.839  0.7021 -0.3354 -0.8222
  137MOL    C7546587   6.408   4.888   2.710 -0.0347 -0.1779  0.3214
  137MOL    C7646588   6.388   5.035   2.691  0.0592 -0.0622 -0.2572
  137MOL    O7746589   6.442   5.086   2.593 -0.1215  0.4199  0.1255
  137MOL    H7846590   6.190   5.238   2.610  0.3108 -1.4591 -0.4240
  137MOL    H7946591   6.086   5.186   2.741  0.5162 -0.4254 -1.7965
  137MOL    H8046592   6.236   5.235   2.909  1.8442  0.6889 -0.0687
  137MOL    H8146593   6.276   5.010   2.994  0.1245 -1.4523  0.6021
  137MOL    H8246594   6.160   4.978   2.862 -0.3710 -1.3963  1.9981
  137MOL    H8346595   6.406   4.826   2.909  0.1239 -0.7150 -0.3388
  137MOL    H8446596   6.249   4.781   2.829 -0.4351  0.6207  0.8119
  137MOL    H8546597   6.513   4.862   2.722 -0.1392  0.0193  1.7160
  137MOL    H8646598   6.379   4.828   2.623 -0.6813  0.0453  0.3794
  137MOL    C8746599   6.396   5.337   2.802  0.2347 -0.1961  0.2036
  137MOL    C8846600   6.527   5.302   2.871 -0.1365  0.0380 -0.1305
  137MOL    N8946601   6.642   5.391   2.849 -0.3589 -0.2145  0.5107
  137MOL    C9046602   6.661   5.517   2.927  0.1400  0.1127  0.6211
  137MOL    C9146603   6.783   5.589   2.859 -0.4193 -0.4630  0.0040
  137MOL    C9246604   6.835   5.490   2.758  0.2749 -0.5538  0.1034
  137MOL    C9346605   6.738   5.379   2.757 -0.5738  0.3114 -0.0517
  137MOL    O9446606   6.749   5.288   2.670  0.4781  1.0838  0.5930
  137MOL    H9546607   6.364   5.434   2.840 -0.7366 -0.4989  0.1615
  137MOL    H9646608   6.423   5.360   2.699 -1.0587  2.8005  0.4715
  137MOL    H9746609   6.549   5.209   2.819 -2.6218 -0.1558 -0.9112
  137MOL    H9846610   6.580   5.589   2.917  1.8886  1.8322 -1.6688
  137MOL    H9946611   6.685   5.507   3.033 -0.5069  0.7441  0.8328
  137MOL   H10046612   6.753   5.681   2.807 -0.9579 -1.9582 -2.4255
  137MOL   H10146613   6.856   5.617   2.934 -0.7351  0.3260  0.0275
  137MOL   H10246614   6.842   5.529   2.656  0.9197  1.2920  0.8258
  137MOL   H10346615   6.929   5.451   2.795 -0.6525 -2.1351  0.8512
  137MOL   C10446616   6.512   5.252   3.016  0.0971 -0.2230  0.4299
  137MOL   C10546617   6.589   5.122   3.049 -0.2712 -0.2045 -0.1825
  137MOL   N10646618   6.728   5.123   3.009  0.0797  0.6509  0.6364
  137MOL   C10746619   6.773   5.020   2.916  0.2804 -0.4742  0.3607
  137MOL   C10846620   6.926   5.032   2.915  0.1362 -0.5873 -0.4269
  137MOL   C10946621   6.954   5.156   2.995 -0.1405 -0.3084 -0.5512
  137MOL   C11046622   6.825   5.203   3.057 -0.1749  0.3818  0.4847
  137MOL   O11146623   6.817   5.300   3.134  0.2916  0.7363 -0.1622
  137MOL   H11246624   6.407   5.226   3.028 -0.0078  0.8409  2.0451
  137MOL   H11346625   6.525   5.329   3.093  1.4391 -1.0444  1.0512
  137MOL   H11446626   6.547   5.036   2.995 -0.6970 -1.9116  2.7377
  137MOL   H11546627   6.731   4.927   2.954 -0.1150 -1.1044 -1.5450
  137MOL   H11646628   6.722   5.048   2.824  0.1207 -2.5895 -0.2147
  137MOL   H11746629   7.001   4.959   2.946  0.2473  0.2489  1.3350
  137MOL   H11846630   6.958   5.054   2.813 -0.0822  1.1201 -0.1399
  137MOL   H11946631   7.003   5.235   2.938  0.5171  0.4953  1.1011
  137MOL   H12046632   7.035   5.139   3.066 -1.4638 -0.6762  0.8831
  137MOL   C12146633   6.568   5.085   3.203  1.0993 -0.1267  0.2425
  137MOL   C12246634   6.423   5.076   3.243  0.3625  0.3241 -0.1758
  137MOL   N12346635   6.398   4.944   3.315  0.0765  0.2013 -0.0920
  137MOL   C12446636   6.362   4.823   3.241 -0.6837 -0.9170  0.6804
  137MOL   C12546637   6.370   4.713   3.342 -0.6876  0.2135  0.6263
  137MOL   C12646638   6.391   4.775   3.480  1.0041 -0.5053 -0.6090
  137MOL   C12746639   6.409   4.919   3.447  0.1939 -0.2853 -0.1805
  137MOL   O12846640   6.442   4.997   3.537 -0.6223  0.3157  0.0038
  137MOL   H12946641   6.616   5.151   3.276  2.2600  0.2693 -0.8681
  137MOL   H13046642   6.614   4.988   3.220  1.3731 -0.0708 -0.1833
  137MOL   H13146643   6.374   5.061   3.147  0.8276  0.9597 -0.5129
  137MOL   H13246644   6.424   4.798   3.155 -1.7189 -0.8173 -0.1014
  137MOL   H13346645   6.263   4.820   3.197 -1.0663  1.7521  1.2721
  137MOL   H13446646   6.280   4.652   3.343 -1.6727  1.6415  0.5078
  137MOL   H13546647   6.457   4.650   3.321 -1.2902 -0.5894  0.4816
  137MOL   H13646648   6.304   4.759   3.543  0.1937 -1.0000 -1.8346
  137MOL   H13746649   6.477   4.731   3.531  1.3287  0.9775  0.1303
  137MOL   C13846650   6.359   5.204   3.302  0.3045 -0.5337  0.3403
  137MOL   C13946651   6.209   5.203   3.337 -0.0345  0.4590  0.6297
  137MOL   N14046652   6.185   5.328   3.415  0.1805  0.2861  0.2700
  137MOL   C14146653   6.164   5.322   3.555 -0.1860 -0.2695  0.2405
  137MOL   C14246654   6.179   5.466   3.612 -0.4586  0.2627 -0.1408
  137MOL   C14346655   6.209   5.545   3.495 -0.4760 -0.0085 -0.2173
  137MOL   C14446656   6.206   5.456   3.373  0.4059  0.3115  0.3778
  137MOL   O14546657   6.236   5.489   3.257  0.0050  0.9364  0.3797
  137MOL   H14646658   6.376   5.283   3.229 -1.2914  0.3265  0.8843
  137MOL   H14746659   6.413   5.237   3.390 -0.5838  1.3383  0.1960
  137MOL   H14846660   6.191   5.121   3.406  0.8594 -0.2476  0.0445
  137MOL   H14946661   6.063   5.284   3.571 -0.5077 -0.0580 -1.1966
  137MOL   H15046662   6.229   5.248   3.602  0.2389 -0.6523 -0.9158
  137MOL   H15146663   6.094   5.501   3.670 -0.0992 -0.3620  0.7666
  137MOL   H15246664   6.266   5.473   3.678  0.2985  2.8423 -1.3491
  137MOL   H15346665   6.305   5.592   3.515  1.1273 -2.8923 -0.7498
  137MOL   H15446666   6.129   5.616   3.477  0.9072  1.0964 -2.0777
  137MOL   C15546667   6.118   5.196   3.212 -0.2826 -0.3016  0.1957
  137MOL   C15646668   6.016   5.075   3.219 -0.3187 -0.3455 -0.0080
  137MOL   N15746669   5.931   5.063   3.336 -0.0862  0.1852 -0.6000
  137MOL   C15846670   5.953   4.949   3.422  0.0292  0.2015  0.4905
  137MOL   C15946671   5.873   4.995   3.545 -0.3804  0.1299  0.1905
  137MOL   C16046672   5.786   5.118   3.505  0.0046  0.0454  0.2164
  137MOL   C16146673   5.847   5.159   3.376  0.1003 -0.4652  0.1706
  137MOL   O16246674   5.811   5.265   3.323  0.2970  0.1117 -0.2425
  137MOL   H16346675   6.177   5.182   3.122 -0.6669  2.4367 -0.5372
  137MOL   H16446676   6.063   5.290   3.217  0.9891  0.4751 -0.3705
  137MOL   H16546677   6.078   4.985   3.218  1.2264  0.7311 -1.5963
  137MOL   H16646678   5.906   4.871   3.363 -0.4505  2.7266 -2.5973
  137MOL   H16746679   6.055   4.923   3.449 -0.4939 -0.1176  2.2236
  137MOL   H16846680   5.808   4.924   3.595  0.2605 -0.1580  0.6232
  137MOL   H16946681   5.930   5.039   3.627 -0.3948  1.1557 -0.3492
  137MOL   H17046682   5.683   5.083   3.495  0.9405 -3.2968  1.3013
  137MOL   H17146683   5.792   5.210   3.563 -3.5192  1.5009 -1.6123
  137MOL   C17246684   5.934   5.068   3.089 -0.1307 -0.1599  0.3504
  137MOL   C17346685   5.866   4.932   3.052 -0.3205 -0.6130 -0.7530
  137MOL   N17446686   5.769   4.950   2.945  0.3457 -0.6502  0.0181
  137MOL   C17546687   5.631   4.925   2.978  0.4249 -0.3439 -0.1320
  137MOL   C17646688   5.545   4.929   2.852 -0.4567  0.4890 -0.6107
  137MOL   C17746689   5.640   4.983   2.748  0.1346  0.7014 -0.6846
  137MOL   C17846690   5.777   4.987   2.817 -0.0818 -0.4948  0.6449
  137MOL   O17946691   5.879   5.028   2.763 -0.3146  0.5142  0.5547
  137MOL   H18046692   5.996   5.094   3.003 -0.1499  0.5266  0.5398
  137MOL   H18146693   5.850   5.138   3.083  1.2708  1.5756  0.6311
  137MOL   H18246694   5.804   4.916   3.141  1.3048 -0.3978  0.4369
  137MOL   H18346695   5.622   4.829   3.028 -2.0357  0.0585  0.2789
  137MOL   H18446696   5.608   4.998   3.056 -0.2887 -0.0498 -0.6099
  137MOL   H18546697   5.462   4.997   2.871  1.3471  3.0940 -1.6850
  137MOL   H18646698   5.498   4.833   2.831  3.3409 -1.8334  0.7693
  137MOL   H18746699   5.661   4.916   2.665  1.4608 -0.3536  0.4773
  137MOL   H18846700   5.626   5.087   2.719 -2.0701  0.4272 -0.6305
  137MOL   C18946701   5.961   4.810   3.027  0.0097 -0.4704  0.4529
  137MOL   C19046702   5.883   4.674   3.011  0.6143 -0.1792 -0.0177
  137MOL   N19146703   5.972   4.579   2.947 -0.1863 -1.1955  0.7329
  137MOL   C19246704   5.938   4.533   2.818 -0.5860  0.5399  0.3143
  137MOL   C19346705   6.041   4.425   2.786  0.6878 -0.4767 -0.4813
  137MOL   C19446706   6.162   4.451   2.878 -0.6599  0.2790 -0.0513
  137MOL   C19546707   6.098   4.538   2.983  0.2830 -0.3605 -0.5743
  137MOL   O19646708   6.153   4.570   3.087  0.3336 -0.0150 -0.2733
  137MOL   H19746709   6.042   4.802   3.100 -0.8275 -0.0626  1.4413
  137MOL   H19846710   6.018   4.824   2.935 -0.2580  2.3195  0.6776
  137MOL   H19946711   5.804   4.687   2.937 -0.4183  0.6604  1.1997
  137MOL   H20046712   5.839   4.489   2.814  0.3048 -1.4548 -1.0298
  137MOL   H20146713   5.941   4.618   2.750 -0.6062  0.2364 -0.0663
  137MOL   H20246714   5.995   4.332   2.820 -0.9211  0.0018 -1.3179
  137MOL   H20346715   6.061   4.411   2.680  2.2011 -0.2250 -0.2398
  137MOL   H20446716   6.202   4.364   2.930 -1.5849 -0.1670 -0.0742
  137MOL   H20546717   6.244   4.499   2.825  1.1501 -2.5432  0.0868
  137MOL   C20646718   5.828   4.618   3.147  0.2357  0.3260  0.4910
  137MOL   C20746719   5.754   4.480   3.129  0.5045 -0.3414  0.8589
  137MOL   N20846720   5.789   4.384   3.236 -0.3898  0.0215  0.0514
  137MOL   C20946721   5.858   4.266   3.196 -0.1534  0.2084 -0.3721
  137MOL   C21046722   5.863   4.187   3.330 -0.0872  0.3618 -0.3810
  137MOL   C21146723   5.817   4.283   3.447  0.0039 -0.0011 -0.0328
  137MOL   C21246724   5.758   4.400   3.363  0.2676 -0.8851 -0.0730
  137MOL   O21346725   5.688   4.488   3.403  0.5693  0.0832 -0.3003
  137MOL   H21446726   5.768   4.683   3.209  0.5165 -1.0945  2.2964
  137MOL   H21546727   5.922   4.597   3.199  1.0727 -0.8546 -1.4300
  137MOL   H21646728   5.789   4.422   3.043  2.0868  1.5514  0.1951
  137MOL   H21746729   5.794   4.205   3.131  1.4173 -0.5431 -1.2561
  137MOL   H21846730   5.953   4.281   3.146  0.8623 -0.5913  1.2929
  137MOL   H21946731   5.802   4.099   3.314  1.4902 -0.3789 -2.4407
  137MOL   H22046732   5.965   4.153   3.348 -1.0255 -1.1023  2.4916
  137MOL   H22146733   5.735   4.241   3.505 -0.4318  2.6643  1.3559
  137MOL   H22246734   5.898   4.319   3.510  1.1445 -1.0283 -0.8638
  137MOL   C22346735   5.597   4.500   3.092  0.2636  0.3159  0.7959
  137MOL   C22446736   5.526   4.366   3.061  0.3744 -0.1368 -0.0029
  137MOL   N22546737   5.375   4.388   3.063  0.2885 -0.3094 -0.1149
  137MOL   C22646738   5.299   4.275   3.117 -0.5233 -0.7709 -0.1008
  137MOL   C22746739   5.155   4.301   3.077 -0.3102 -0.3938 -0.1270
  137MOL   C22846740   5.151   4.457   3.051 -0.2326 -0.9401  0.0504
  137MOL   C22946741   5.297   4.491   3.026  0.5666  0.1188 -0.2373
  137MOL   O23046742   5.328   4.603   2.977 -0.1557  0.2059 -0.2966
  137MOL   H23146743   5.596   4.562   3.003  0.9486 -1.3318 -0.4004
  137MOL   H23246744   5.541   4.532   3.180  0.8663  1.6375  0.7093
  137MOL   H23346745   5.546   4.292   3.138  0.8166  0.8989  0.8833
  137MOL   H23446746   5.331   4.173   3.099  0.4131 -0.1614 -2.0117
  137MOL   H23546747   5.304   4.268   3.226  0.7711  1.0713 -0.0302
  137MOL   H23646748   5.125   4.250   2.986 -1.0085  1.4043 -0.9276
  137MOL   H23746749   5.089   4.262   3.155 -0.8701 -0.0455 -0.4259
  137MOL   H23846750   5.084   4.476   2.967  1.6082  0.7445 -1.0824
  137MOL   H23946751   5.124   4.518   3.136 -0.2085 -0.2958 -0.3991
  137MOL   C24046752   5.560   4.318   2.916 -0.3774  0.2681  0.2687
  137MOL   C24146753   5.506   4.177   2.871 -0.7576  0.5675  0.4186
  137MOL   N24246754   5.560   4.150   2.735  0.5161 -0.0569 -0.0620
  137MOL   C24346755   5.472   4.153   2.619 -0.1988  0.3481 -1.2233
  137MOL   C24446756   5.555   4.178   2.493 -0.1946  0.0395  0.0806
  137MOL   C24546757   5.692   4.146   2.536  0.3023 -0.3465  0.8630
  137MOL   C24646758   5.683   4.135   2.686 -0.6253 -0.5471 -0.4380
  137MOL   O24746759   5.786   4.124   2.751 -0.2753 -0.5017  0.1446
  137MOL   H24846760   5.668   4.317   2.899 -0.5350 -1.2266 -0.7028
  137MOL   H24946761   5.529   4.396   2.847  1.8256 -0.2840 -1.4264
  137MOL   H25046762   5.397   4.173   2.874 -0.6782 -1.2999  1.9124
  137MOL   H25146763   5.431   4.052   2.617 -0.1579  0.3582 -2.5113
  137MOL   H25246764   5.396   4.231   2.625 -1.4488 -0.9613  0.8798
  137MOL   H25346765   5.532   4.114   2.408 -3.2423  0.5468  0.4688
  137MOL   H25446766   5.550   4.284   2.467  4.1610  0.2658 -0.1084
  137MOL   H25546767   5.718   4.050   2.491  3.0879  0.7941 -0.0905
  137MOL   H25646768   5.767   4.216   2.500 -0.6425  0.3391  0.2327
  137MOL   C25746769   5.559   4.062   2.962  0.0100  0.4496  0.6834
  137MOL   C25846770   5.506   3.915   2.933  0.3074 -0.5760 -0.5571
  137MOL   N25946771   5.601   3.815   2.971  0.2375  0.1796 -0.5289
  137MOL   C26046772   5.671   3.746   2.867  0.2014 -0.4306 -0.1760
  137MOL   C26146773   5.767   3.647   2.945 -0.2669  0.1649  0.4853
  137MOL   C26246774   5.746   3.668   3.088 -0.5773 -0.4772  0.3884
  137MOL   C26346775   5.647   3.779   3.087  0.0082 -0.4088  0.3030
  137MOL   O26446776   5.608   3.832   3.194 -0.2757  0.0860  0.0211
  137MOL   H26546777   5.541   4.076   3.069  1.1736 -1.3915  1.1527
  137MOL   H26646778   5.668   4.062   2.962  0.0343 -1.4381  0.0894
  137MOL   H26746779   5.494   3.902   2.826  0.3127  1.6705 -0.8431
  137MOL   H26846780   5.594   3.692   2.812 -0.9385 -1.0722  1.9859
  137MOL   H26946781   5.720   3.805   2.790  1.7157 -2.1124 -0.5379
  137MOL   H27046782   5.741   3.548   2.908  0.4565  0.3515 -0.5344
  137MOL   H27146783   5.867   3.675   2.911 -0.6409 -0.4356 -1.1525
  137MOL   H27246784   5.694   3.589   3.142  0.4367 -1.6390 -0.3324
  137MOL   H27346785   5.835   3.689   3.147 -0.6552  1.5454 -0.1695
  137MOL   C27446786   5.365   3.883   2.997 -0.7319  1.1770 -0.1020
  137MOL   C27546787   5.231   3.933   2.923 -0.6703 -0.0371  0.2400
  137MOL   N27646788   5.190   3.866   2.799 -0.5584  0.4577  0.5660
  137MOL   C27746789   5.236   3.735   2.745 -0.3778  0.1218  0.1922
  137MOL   C27846790   5.163   3.709   2.615  0.2689 -0.0437  1.1622
  137MOL   C27946791   5.108   3.842   2.569  0.1884 -0.1838  0.2542
  137MOL   C28046792   5.132   3.928   2.695  0.4640  0.7835  0.4281
  137MOL   O28146793   5.107   4.050   2.691  0.1924  0.4009 -0.6699
  137MOL   H28246794   5.363   3.923   3.098  0.3329  0.0493  0.3852
  137MOL   H28346795   5.351   3.776   3.013  2.8870  0.8814  1.6028
  137MOL   H28446796   5.249   4.038   2.899  0.8200  0.1756  2.1172
  137MOL   H28546797   5.342   3.739   2.720  0.0827  0.1157  2.0597
  137MOL   H28646798   5.221   3.656   2.818  1.0995 -0.1245  0.2423
  137MOL   H28746799   5.224   3.664   2.537 -2.7160 -3.2229  0.5336
  137MOL   H28846800   5.092   3.632   2.643 -2.4647  1.7491 -0.6239
  137MOL   H28946801   5.164   3.894   2.492  0.4908  0.8887  1.1908
  137MOL   H29046802   5.003   3.831   2.543  0.5940 -1.7924 -0.7907
  137MOL   C29146803   5.107   3.926   3.020  0.3558 -0.2184 -0.1860
  137MOL   C29246804   5.052   3.788   3.067 -0.5788  0.5703 -0.1476
  137MOL   N29346805   5.153   3.698   3.133 -0.0318  0.2395 -0.1087
  137MOL   C29446806   5.166   3.564   3.094 -0.0771  0.9793 -0.3505
  137MOL   C29546807   5.223   3.478   3.210 -0.0338 -0.0433  0.0955
  137MOL   C29646808   5.276   3.591   3.311 -0.7394 -0.2272 -1.0103
  137MOL   C29746809   5.212   3.715   3.254  0.7445 -0.7578  1.1391
  137MOL   O29846810   5.194   3.820   3.314  0.2435 -0.0574  0.0740
  137MOL   H29946811   5.023   3.987   2.987  0.5097 -0.0949 -0.3531
  137MOL   H30046812   5.136   3.969   3.116 -0.0753 -1.6069  0.5775
  137MOL   H30146813   5.024   3.739   2.974  2.5800 -1.1965 -0.2446
  137MOL   H30246814   5.070   3.520   3.066 -0.8536  1.4891  1.4255
  137MOL   H30346815   5.239   3.553   3.014  2.6660 -2.4150  2.4367
  137MOL   H30446816   5.150   3.410   3.253  0.8616 -1.0276  0.0663
  137MOL   H30546817   5.295   3.400   3.188 -0.1174  0.3706 -1.6628
  137MOL   H30646818   5.236   3.586   3.413  1.8788  2.9324  0.2537
  137MOL   H30746819   5.382   3.606   3.331 -1.1116  0.3475  0.7019
  137MOL   C30846820   4.929   3.796   3.156 -0.6579 -0.5982 -0.3597
  137MOL   C30946821   4.803   3.855   3.096 -0.5506  0.2713  0.3045
  137MOL   N31046822   4.771   3.806   2.963  0.0037 -0.4055  0.3261
  137MOL   C31146823   4.727   3.903   2.863 -0.6047  0.1485  0.0086
  137MOL   C31246824   4.668   3.835   2.744  0.0697  0.8340 -0.5464
  137MOL   C31346825   4.682   3.682   2.770 -0.4013 -0.2613 -0.1085
  137MOL   C31446826   4.744   3.685   2.916  0.7828  0.2104 -1.0040
  137MOL   O31546827   4.758   3.582   2.979 -0.0584 -0.3266 -0.1378
  137MOL   H31646828   4.953   3.857   3.243 -0.9077 -2.3698  0.9606
  137MOL   H31746829   4.903   3.698   3.196 -0.5503 -0.3227  0.3956
  137MOL   H31846830   4.810   3.963   3.085 -1.6118  0.0537 -3.1551
  137MOL   H31946831   4.655   3.969   2.912  1.0345  0.9818  1.3630
  137MOL   H32046832   4.807   3.973   2.838 -0.8796  1.2909  2.1992
  137MOL   H32146833   4.568   3.868   2.717 -0.4767 -0.6282 -0.3547
  137MOL   H32246834   4.717   3.858   2.650  0.7413 -0.1943 -0.4655
  137MOL   H32346835   4.580   3.643   2.762 -0.6460  0.6043 -1.2790
  137MOL   H32446836   4.755   3.638   2.701 -1.6163 -0.2082 -1.4644
  137MOL   C32546837   4.684   3.820   3.180 -0.2524 -0.7499 -0.1815
  137MOL   C32646838   4.687   3.872   3.327 -1.0318  0.2965 -0.0658
  137MOL   N32746839   4.610   3.991   3.358  0.1896  0.0844 -0.5652
  137MOL   C32846840   4.555   4.000   3.493  0.3426 -0.0326  0.6979
  137MOL   C32946841   4.473   4.130   3.492 -0.0233  0.0757  0.4153
  137MOL   C33046842   4.528   4.209   3.378  0.5965  0.6862 -0.8735
  137MOL   C33146843   4.605   4.110   3.294 -0.6895  0.7316  0.0101
  137MOL   O33246844   4.647   4.136   3.179 -0.1577 -0.5446  0.3304
  137MOL   H33346845   4.681   3.713   3.199  2.5208 -0.7215  0.6166
  137MOL   H33446846   4.596   3.847   3.122 -0.7178 -3.7100 -0.9334
  137MOL   H33546847   4.789   3.877   3.365 -0.8414  1.8164 -0.7524
  137MOL   H33646848   4.489   3.915   3.511  0.7759  0.0313  2.7656
  137MOL   H33746849   4.629   3.998   3.574 -0.7988 -0.1165  1.7522
  137MOL   H33846850   4.371   4.111   3.459  0.1140  0.8176 -0.4466
  137MOL   H33946851   4.472   4.187   3.585 -0.1150  2.0863 -0.7773
  137MOL   H34046852   4.448   4.265   3.331  1.8196  1.2407 -2.3348
  137MOL   H34146853   4.595   4.290   3.405  0.4256  0.5982 -0.1776
  137MOL   H34246854   4.632   3.793   3.378 -3.5446  0.6129 -2.1757
  138MOL     C146855   6.907   5.445   5.642 -0.1425  1.1751  0.0401
  138MOL     C246856   6.949   5.543   5.536  0.4714 -0.3224  0.4179
  138MOL     N346857   6.903   5.514   5.402 -0.1536  0.1094 -0.3542
  138MOL     C446858   6.999   5.542   5.297 -0.5182 -0.1253  0.4003
  138MOL     C546859   6.922   5.510   5.167 -0.1651 -0.0588 -0.0820
  138MOL     C646860   6.798   5.444   5.214 -0.6103 -0.2832  0.5468
  138MOL     C746861   6.779   5.476   5.359 -0.0980  0.0638 -0.4584
  138MOL     O846862   6.675   5.488   5.423 -0.1793  0.3965 -0.5979
  138MOL     H946863   6.932   5.343   5.615  1.3396  1.5759 -0.1389
  138MOL    H1046864   6.960   5.459   5.736  0.3298 -1.2597  0.1646
  138MOL    H1146865   7.058   5.538   5.534  0.4861  0.2403 -0.1217
  138MOL    H1246866   7.038   5.644   5.297  0.0209 -0.3159  1.5608
  138MOL    H1346867   7.081   5.470   5.309 -3.3111 -3.3397  0.9193
  138MOL    H1446868   6.884   5.594   5.109 -1.6779 -0.3994  0.3871
  138MOL    H1546869   6.979   5.446   5.100  0.2014 -0.8387  0.9670
  138MOL    H1646870   6.706   5.475   5.165 -0.6237 -0.0955  0.6906
  138MOL    H1746871   6.812   5.337   5.206  0.1481 -0.0963 -0.8467
  138MOL    H1846872   6.802   5.448   5.671 -0.6687 -1.4859 -1.4270
  138MOL    C1946873   6.914   5.688   5.574 -0.5758  0.0145  0.5526
  138MOL    C2046874   7.000   5.754   5.682  0.5357 -0.4740  0.3847
  138MOL    N2146875   7.149   5.747   5.649  0.3230 -0.4952  0.2206
  138MOL    C2246876   7.217   5.818   5.540  0.3158  0.2796  0.2564
  138MOL    C2346877   7.362   5.771   5.533 -0.2875  0.7007  0.5151
  138MOL    C2446878   7.380   5.672   5.646  0.5500  0.4551 -0.2341
  138MOL    C2546879   7.238   5.669   5.708 -0.1149 -0.0342  0.2268
  138MOL    O2646880   7.209   5.593   5.803  0.2368 -0.1282  0.2892
  138MOL    H2746881   6.812   5.682   5.612 -0.1098  0.3224  1.8965
  138MOL    H2846882   6.912   5.750   5.485  0.8747 -1.9184 -0.8543
  138MOL    H2946883   6.987   5.689   5.769 -2.1323 -1.6119 -0.7899
  138MOL    H3046884   7.166   5.810   5.444 -2.3800  0.3504  1.6336
  138MOL    H3146885   7.219   5.923   5.569 -0.8646  0.5660 -0.6644
  138MOL    H3246886   7.380   5.729   5.434 -2.2181 -0.3981  0.6114
  138MOL    H3346887   7.426   5.854   5.563  2.0930 -0.7491 -0.3788
  138MOL    H3446888   7.410   5.576   5.604 -0.3174  1.5614 -3.5077
  138MOL    H3546889   7.439   5.710   5.730  0.6889 -3.1627  1.3836
  138MOL    C3646890   6.949   5.900   5.710  0.0465  0.0284 -0.5197
  138MOL    C3746891   6.829   5.906   5.808 -0.1019 -0.8568  0.7279
  138MOL    N3846892   6.856   5.841   5.940  0.0075 -0.8885 -0.2968
  138MOL    C3946893   6.776   5.718   5.973  0.6786 -0.4459  0.4113
  138MOL    C4046894   6.819   5.688   6.117 -0.3187 -0.5394  0.2758
  138MOL    C4146895   6.951   5.767   6.150  0.1358 -0.3275  0.0016
  138MOL    C4246896   6.956   5.866   6.030  0.3058 -0.3238 -0.3510
  138MOL    O4346897   7.048   5.949   6.023  0.2898  0.3454 -0.3775
  138MOL    H4446898   6.916   5.943   5.616 -1.5655 -0.7848 -0.3530
  138MOL    H4546899   7.031   5.958   5.752 -0.2414 -0.7730  1.1940
  138MOL    H4646900   6.743   5.851   5.769 -0.8938 -0.2524  1.6081
  138MOL    H4746901   6.668   5.737   5.976  0.5491 -1.0072 -0.5550
  138MOL    H4846902   6.778   5.636   5.901 -1.5686  1.4176 -1.8694
  138MOL    H4946903   6.741   5.706   6.191 -0.9513  1.9023 -0.9320
  138MOL    H5046904   6.847   5.582   6.116  1.1478 -0.2171  2.5581
  138MOL    H5146905   6.928   5.829   6.237 -0.5442  0.1400 -0.5102
  138MOL    H5246906   7.043   5.711   6.167  0.4121  0.5796  1.6884
  138MOL    C5346907   6.784   6.056   5.820  0.3017 -0.0638 -0.1204
  138MOL    C5446908   6.675   6.086   5.922  0.0116 -0.3872  0.5439
  138MOL    N5546909   6.677   6.229   5.956  0.4784 -0.2107 -0.0333
  138MOL    C5646910   6.738   6.282   6.077 -1.0344 -0.1707 -0.3395
  138MOL    C5746911   6.732   6.430   6.066  0.2765 -0.8482 -0.7502
  138MOL    C5846912   6.676   6.468   5.939  0.3064  0.2085  0.0827
  138MOL    C5946913   6.641   6.331   5.878  0.1074 -0.2572  0.2166
  138MOL    O6046914   6.599   6.325   5.763 -0.0501  0.0352 -0.4411
  138MOL    H6146915   6.754   6.100   5.725 -1.6755  1.1004  1.0065
  138MOL    H6246916   6.872   6.105   5.865  1.2525 -3.0110  1.3447
  138MOL    H6346917   6.701   6.047   6.021  0.1628 -1.0324  0.2500
  138MOL    H6446918   6.685   6.242   6.164  2.9591  1.9140  3.2103
  138MOL    H6546919   6.838   6.242   6.082 -1.3139 -0.9072 -0.6625
  138MOL    H6646920   6.662   6.456   6.145  0.1403 -1.4099 -0.6830
  138MOL    H6746921   6.827   6.482   6.080  0.0932 -1.0889  1.7648
  138MOL    H6846922   6.579   6.517   5.951 -0.3269 -0.9178 -0.3183
  138MOL    H6946923   6.736   6.523   5.867 -0.0126 -1.3610 -1.4360
  138MOL    C7046924   6.536   6.036   5.882  0.3065  0.6431 -0.4889
  138MOL    C7146925   6.424   6.063   5.988  0.0947 -0.4813  0.4128
  138MOL    N7246926   6.293   6.061   5.912 -0.2891 -0.2444 -0.1836
  138MOL    C7346927   6.209   6.181   5.914 -0.1499 -0.3419  0.4866
  138MOL    C7446928   6.077   6.145   5.847 -1.0432  0.0632 -0.4808
  138MOL    C7546929   6.109   6.018   5.772 -0.3008  0.3661 -0.0024
  138MOL    C7646930   6.222   5.963   5.849 -1.0449 -0.3415  0.0918
  138MOL    O7746931   6.253   5.847   5.849 -0.0537 -0.5312 -0.1720
  138MOL    H7846932   6.540   5.929   5.862  0.3598  0.7764 -1.2241
  138MOL    H7946933   6.499   6.083   5.791 -1.8026  1.6750  0.8624
  138MOL    H8046934   6.433   6.166   6.021 -1.5981  0.5430 -2.2187
  138MOL    H8146935   6.195   6.223   6.014  2.1477 -0.6888  0.9999
  138MOL    H8246936   6.267   6.263   5.872 -0.7917  0.9695  2.0926
  138MOL    H8346937   6.005   6.126   5.926  1.1742  1.9840  2.0908
  138MOL    H8446938   6.040   6.219   5.775  1.8163  0.6787 -1.3730
  138MOL    H8546939   6.028   5.946   5.764  1.2004 -1.3061 -0.4404
  138MOL    H8646940   6.140   6.046   5.671  2.1012  0.2183  0.6571
  138MOL    C8746941   6.428   5.952   6.094 -0.0076 -0.2523  0.3003
  138MOL    C8846942   6.334   5.977   6.212  0.1502  0.5594  0.1951
  138MOL    N8946943   6.327   5.863   6.312  0.0824 -0.1054 -0.1323
  138MOL    C9046944   6.209   5.779   6.324 -0.0599  0.2684  0.6783
  138MOL    C9146945   6.241   5.695   6.440  0.7905 -0.0942  0.1404
  138MOL    C9246946   6.363   5.737   6.513 -0.9511  0.9272 -0.2645
  138MOL    C9346947   6.414   5.839   6.416  0.4248  0.7412  0.8177
  138MOL    O9446948   6.524   5.896   6.434  0.3785 -0.6145  0.0142
  138MOL    H9546949   6.527   5.933   6.136 -0.7745 -2.3498  1.2446
  138MOL    H9646950   6.407   5.849   6.064  2.2690 -1.2934  2.1555
  138MOL    H9746951   6.239   5.984   6.160  0.9713 -0.0818 -1.4085
  138MOL    H9846952   6.118   5.839   6.327 -0.1546  0.1543  0.1037
  138MOL    H9946953   6.207   5.720   6.233 -0.9263  1.6327 -0.2106
  138MOL   H10046954   6.163   5.708   6.516  0.7182 -0.1509  0.0760
  138MOL   H10146955   6.249   5.592   6.406 -1.9918 -0.5800  0.8132
  138MOL   H10246956   6.330   5.774   6.609  0.0109  0.2102  0.3576
  138MOL   H10346957   6.431   5.652   6.521 -0.0797  1.5815 -0.6093
  138MOL   C10446958   6.355   6.118   6.268  0.0401 -0.7712 -0.4412
  138MOL   C10546959   6.297   6.157   6.404 -0.0773  0.2528  0.6502
  138MOL   N10646960   6.355   6.288   6.444  0.0064  0.2679 -0.1734
  138MOL   C10746961   6.425   6.280   6.576 -0.4299  0.2487  0.2757
  138MOL   C10846962   6.502   6.418   6.590  0.0592 -0.0570  0.8260
  138MOL   C10946963   6.476   6.486   6.451 -0.3014 -0.7577  1.0030
  138MOL   C11046964   6.380   6.401   6.378 -0.7188  0.3193  0.2274
  138MOL   O11146965   6.327   6.424   6.268 -0.2543  0.2059 -0.0824
  138MOL   H11246966   6.310   6.194   6.204  1.2620 -0.2086 -0.6258
  138MOL   H11346967   6.462   6.134   6.276 -0.2061 -0.4675  2.8377
  138MOL   H11446968   6.333   6.093   6.484  3.2807 -0.3301 -1.2500
  138MOL   H11546969   6.355   6.273   6.660 -1.8029  1.1802 -0.7646
  138MOL   H11646970   6.499   6.200   6.574  0.6116  1.2327 -0.5232
  138MOL   H11746971   6.453   6.463   6.676  0.5558 -0.3340  1.2555
  138MOL   H11846972   6.610   6.405   6.602 -0.4222 -1.9841  3.3618
  138MOL   H11946973   6.567   6.494   6.391  0.8289 -0.1082  2.7736
  138MOL   H12046974   6.428   6.582   6.466 -2.3061 -1.5993  0.1706
  138MOL   C12146975   6.149   6.163   6.398  0.4196 -0.4005  0.1897
  138MOL   C12246976   6.070   6.182   6.527 -0.1828  0.8747 -0.0345
  138MOL   N12346977   5.921   6.203   6.499  0.1777 -0.6597 -0.4329
  138MOL   C12446978   5.872   6.342   6.499  0.0840  0.2036 -0.6156
  138MOL   C12546979   5.719   6.337   6.468  0.2002  0.1628  0.0147
  138MOL   C12646980   5.691   6.190   6.423 -0.5416  0.7989 -0.1217
  138MOL   C12746981   5.824   6.117   6.464  0.1177 -0.3652  0.1950
  138MOL   O12846982   5.831   5.994   6.467 -0.6806  0.1297 -0.0340
  138MOL   H12946983   6.120   6.071   6.347 -1.0057  0.2631 -0.2126
  138MOL   H13046984   6.118   6.244   6.333  1.8030 -1.5595 -1.9496
  138MOL   H13146985   6.113   6.268   6.579 -1.3459  0.6330  1.3742
  138MOL   H13246986   5.918   6.395   6.416 -1.7640  1.6619 -0.7477
  138MOL   H13346987   5.881   6.399   6.592  1.9594 -0.4851 -0.3586
  138MOL   H13446988   5.653   6.355   6.553  0.1526  2.5988 -0.5080
  138MOL   H13546989   5.694   6.407   6.389 -0.4814 -0.7362 -0.5622
  138MOL   H13646990   5.604   6.138   6.463  0.3041  0.4596  1.3107
  138MOL   H13746991   5.674   6.189   6.315 -3.8847  0.0276  0.3372
  138MOL   C13846992   6.101   6.055   6.612  0.0919 -0.0805  0.0698
  138MOL   C13946993   6.040   6.049   6.751 -0.3082 -0.5693  0.2222
  138MOL   N14046994   6.041   5.904   6.793  0.1713  0.2130  0.2139
  138MOL   C14146995   5.927   5.817   6.759 -0.1416  0.1629 -0.6945
  138MOL   C14246996   5.919   5.728   6.870  0.7048  0.0851  0.1536
  138MOL   C14346997   6.065   5.710   6.909 -0.5058 -0.5888  0.0985
  138MOL   C14446998   6.135   5.838   6.863 -0.2095 -0.3717  0.1637
  138MOL   O14546999   6.252   5.876   6.890  0.3160  0.9347  0.2290
  138MOL   H14647000   6.206   6.036   6.634  0.2897  1.7032  0.7371
  138MOL   H14747001   6.063   5.969   6.557  0.5012  1.2048 -2.2766
  138MOL   H14847002   5.939   6.087   6.739 -0.3386 -0.4128  0.9592
  138MOL   H14947003   5.847   5.891   6.755 -0.3079  0.0638  0.4564
  138MOL   H15047004   5.939   5.775   6.659 -0.5991  1.2292 -1.2023
  138MOL   H15147005   5.869   5.788   6.947  1.4448  1.6165 -0.5243
  138MOL   H15247006   5.872   5.632   6.854 -1.9978  0.8799  2.8377
  138MOL   H15347007   6.092   5.627   6.844 -2.5250 -0.8141 -0.4731
  138MOL   H15447008   6.068   5.682   7.015  1.3012  1.6545  0.6784
  138MOL   C15547009   6.088   6.158   6.859 -0.2208 -0.0870  0.2725
  138MOL   C15647010   6.015   6.151   6.993 -0.6127 -0.8174  0.0064
  138MOL   N15747011   6.101   6.105   7.101  0.0539 -0.5926 -0.4206
  138MOL   C15847012   6.221   6.168   7.157 -0.5945 -0.0315 -0.6211
  138MOL   C15947013   6.253   6.106   7.293  0.3440  0.3502 -0.2148
  138MOL   C16047014   6.185   5.972   7.283 -0.0030 -0.2399 -0.6982
  138MOL   C16147015   6.080   5.994   7.179 -0.1318 -0.7814  0.1043
  138MOL   O16247016   5.981   5.925   7.172  0.1000  0.0753 -0.1297
  138MOL   H16347017   6.066   6.254   6.813  1.6149  1.8349  3.2471
  138MOL   H16447018   6.197   6.155   6.867 -0.1319  1.9258  0.1160
  138MOL   H16547019   5.935   6.076   7.001 -0.2442 -1.2418 -0.2468
  138MOL   H16647020   6.302   6.142   7.089  0.9727 -1.6967  1.7594
  138MOL   H16747021   6.212   6.276   7.150  0.0046 -0.0463 -1.8070
  138MOL   H16847022   6.357   6.107   7.324  0.2842 -0.8574  0.0717
  138MOL   H16947023   6.194   6.157   7.370 -0.3462  0.7920 -1.0321
  138MOL   H17047024   6.258   5.896   7.253  1.5772  0.2232  1.7779
  138MOL   H17147025   6.156   5.942   7.384 -0.7912 -0.7305 -1.0682
  138MOL   C17247026   5.949   6.294   7.020 -0.0346 -0.0177  0.8213
  138MOL   C17347027   5.819   6.334   6.942 -0.0473 -0.0453  0.3274
  138MOL   N17447028   5.718   6.232   6.964 -0.3573 -0.4746 -0.1819
  138MOL   C17547029   5.658   6.166   6.846  0.1546 -0.0450 -0.2283
  138MOL   C17647030   5.594   6.053   6.904 -0.4318 -0.2458 -0.2832
  138MOL   C17747031   5.593   6.069   7.061 -0.4648  0.1442 -0.7345
  138MOL   C17847032   5.667   6.196   7.084 -0.1303  0.1239  0.6070
  138MOL   O17947033   5.686   6.241   7.199  0.4666 -0.2958 -0.1295
  138MOL   H18047034   6.022   6.375   7.024 -2.0237  1.8356  0.1981
  138MOL   H18147035   5.925   6.285   7.126 -0.3158 -2.3566  0.5941
  138MOL   H18247036   5.847   6.330   6.837 -0.0669 -1.1254  0.3599
  138MOL   H18347037   5.587   6.219   6.783 -0.8721  1.1329  1.8694
  138MOL   H18447038   5.738   6.137   6.778  1.1886 -0.6347  1.2046
  138MOL   H18547039   5.657   5.965   6.893  0.4757  0.1767  1.3041
  138MOL   H18647040   5.497   6.035   6.859 -0.7890  1.3470 -0.1745
  138MOL   H18747041   5.488   6.080   7.089 -0.5963  1.0664 -1.5667
  138MOL   H18847042   5.638   5.982   7.109  0.4277 -0.2403 -2.2304
  138MOL   C18947043   5.787   6.481   6.982  0.3959 -0.7010  0.4762
  138MOL   C19047044   5.645   6.541   6.988  0.3311  0.2186  0.2055
  138MOL   N19147045   5.633   6.671   7.062 -1.0068  0.4010 -0.5842
  138MOL   C19247046   5.606   6.661   7.205 -0.0720  1.0932  0.5304
  138MOL   C19347047   5.593   6.811   7.249  0.4088  1.0014  0.0645
  138MOL   C19447048   5.634   6.897   7.133  0.5362  0.2171  0.2963
  138MOL   C19547049   5.658   6.796   7.018  0.2998  0.2945 -0.0898
  138MOL   O19647050   5.692   6.828   6.909  0.4749 -0.0866  0.1926
  138MOL   H19747051   5.855   6.547   6.928 -0.2522  0.8127  1.4811
  138MOL   H19847052   5.813   6.475   7.088 -0.8392  2.0259  0.9763
  138MOL   H19947053   5.587   6.467   7.042  0.0718 -0.1991 -0.6334
  138MOL   H20047054   5.532   6.586   7.233  0.3981  0.3540 -0.1781
  138MOL   H20147055   5.699   6.620   7.244 -0.7516  1.1140  2.2082
  138MOL   H20247056   5.492   6.836   7.281  0.1584  0.3494 -0.2196
  138MOL   H20347057   5.661   6.825   7.333  1.4262  1.9694 -0.9086
  138MOL   H20447058   5.560   6.971   7.104  0.4666  0.3500  0.8052
  138MOL   H20547059   5.728   6.949   7.152 -0.3578  1.8812  0.2187
  138MOL   C20647060   5.568   6.532   6.852 -0.8199  0.3828 -0.1840
  138MOL   C20747061   5.411   6.528   6.862  0.0754  0.0665 -0.2101
  138MOL   N20847062   5.354   6.546   6.732 -0.1241 -0.3297 -0.5422
  138MOL   C20947063   5.293   6.671   6.697 -0.4769  0.2197 -0.1206
  138MOL   C21047064   5.204   6.634   6.580  0.2607  0.2724 -0.5023
  138MOL   C21147065   5.260   6.503   6.523 -0.4122  0.2577  0.3073
  138MOL   C21247066   5.347   6.455   6.636 -0.1394  0.2091 -0.3519
  138MOL   O21347067   5.400   6.347   6.628 -0.7762  0.5413 -0.3555
  138MOL   H21447068   5.614   6.455   6.790 -0.9190  1.4292 -1.5736
  138MOL   H21547069   5.593   6.623   6.798 -0.4309 -0.2358 -1.0595
  138MOL   H21647070   5.387   6.618   6.918  1.0500 -0.3805  0.9539
  138MOL   H21747071   5.238   6.719   6.778  1.1089 -3.1818  3.1025
  138MOL   H21847072   5.377   6.733   6.667 -0.3844 -0.3342 -0.9934
  138MOL   H21947073   5.107   6.602   6.618  0.8063 -4.0795 -2.5010
  138MOL   H22047074   5.197   6.709   6.500 -1.3895  1.2361  0.5183
  138MOL   H22147075   5.183   6.427   6.509  0.7044 -0.4820 -2.1085
  138MOL   H22247076   5.322   6.531   6.438 -2.2127 -1.0470 -1.4900
  138MOL   C22347077   5.347   6.401   6.926 -0.0747 -0.0704  0.3917
  138MOL   C22447078   5.190   6.398   6.927  0.5483 -0.4933 -0.8993
  138MOL   N22547079   5.136   6.266   6.964 -0.1317  1.6326 -0.0191
  138MOL   C22647080   5.126   6.166   6.858 -0.8166  0.2876  0.3352
  138MOL   C22747081   5.041   6.054   6.915  0.6558 -0.3353  0.3227
  138MOL   C22847082   5.050   6.076   7.069 -0.1458 -0.1751 -0.1571
  138MOL   C22947083   5.103   6.214   7.082 -0.6914 -0.6046 -0.5018
  138MOL   O23047084   5.126   6.272   7.191  0.0165 -0.1190 -0.2560
  138MOL   H23147085   5.375   6.390   7.031 -1.7496  0.1283  0.8758
  138MOL   H23247086   5.402   6.324   6.873  1.9614  1.5677  0.0248
  138MOL   H23347087   5.169   6.394   6.820  1.2021  0.5404 -1.0713
  138MOL   H23447088   5.082   6.210   6.769  1.0379  0.3657 -0.5635
  138MOL   H23547089   5.224   6.122   6.838  0.3996  3.1749 -0.2711
  138MOL   H23647090   4.932   6.060   6.906  0.6720  3.4018  1.5578
  138MOL   H23747091   5.071   5.953   6.889 -0.8072 -0.6294 -0.2866
  138MOL   H23847092   4.958   6.069   7.128  2.1168 -0.9492  3.4158
  138MOL   H23947093   5.126   6.019   7.122  0.5091  1.5026  0.7522
  138MOL   C24047094   5.124   6.523   7.000 -0.7077 -0.2475  0.4712
  138MOL   C24147095   4.966   6.525   6.978 -0.3093 -0.3187  0.4366
  138MOL   N24247096   4.904   6.610   7.080 -0.0977  0.3050  0.1919
  138MOL   C24347097   4.842   6.543   7.196  0.3676 -0.4057  0.4507
  138MOL   C24447098   4.777   6.662   7.283 -0.5828 -0.0281  0.6244
  138MOL   C24547099   4.829   6.793   7.221  0.2362  0.5148 -0.2175
  138MOL   C24647100   4.901   6.744   7.095 -0.1932 -0.5597  0.2526
  138MOL   O24747101   4.959   6.823   7.026  0.4086 -0.6413  0.2621
  138MOL   H24847102   5.168   6.618   6.971 -3.0516  1.3265  1.8120
  138MOL   H24947103   5.147   6.517   7.107 -1.0465  0.7299  0.6075
  138MOL   H25047104   4.917   6.429   6.993 -1.4376  0.1375 -0.2873
  138MOL   H25147105   4.765   6.473   7.162  0.2569  0.6578 -1.5445
  138MOL   H25247106   4.925   6.492   7.245  0.0736 -1.2599  0.0725
  138MOL   H25347107   4.668   6.657   7.288 -0.4657 -1.3889  1.7348
  138MOL   H25447108   4.814   6.656   7.385  1.1542  1.0771  0.0750
  138MOL   H25547109   4.748   6.864   7.206 -1.6227 -1.2684  1.0310
  138MOL   H25647110   4.911   6.832   7.281  0.5848  1.1747 -1.1153
  138MOL   C25747111   4.938   6.564   6.834  0.1140  0.7828 -0.5703
  138MOL   C25847112   4.800   6.539   6.784  0.1326 -0.0203 -0.2381
  138MOL   N25947113   4.707   6.641   6.833 -0.5871  0.3458 -0.0547
  138MOL   C26047114   4.593   6.591   6.908 -1.1421  0.2675 -0.2028
  138MOL   C26147115   4.485   6.700   6.897  0.6907 -0.5949 -0.2409
  138MOL   C26247116   4.561   6.820   6.848 -0.1445 -0.0877 -0.4467
  138MOL   C26347117   4.698   6.768   6.805  0.2160 -1.1383 -0.2417
  138MOL   O26447118   4.785   6.833   6.754 -0.0579 -0.0985  0.3301
  138MOL   H26547119   4.996   6.503   6.765  2.7489  0.7363  1.5984
  138MOL   H26647120   4.983   6.661   6.813  0.6169  0.2564 -1.9845
  138MOL   H26747121   4.759   6.447   6.826 -0.4748  0.3405 -0.0343
  138MOL   H26847122   4.560   6.490   6.886 -1.4462  0.3671 -0.2112
  138MOL   H26947123   4.642   6.581   7.005 -0.2110  2.3525 -0.4219
  138MOL   H27047124   4.408   6.681   6.822  0.7650  0.0972 -0.4928
  138MOL   H27147125   4.431   6.714   6.990  0.5682 -1.0284 -0.2442
  138MOL   H27247126   4.498   6.869   6.773  0.6405  1.4300 -0.1471
  138MOL   H27347127   4.573   6.883   6.937 -0.6222  0.7354 -0.9527
  138MOL   C27447128   4.785   6.524   6.631 -0.8005 -0.2562 -0.1311
  138MOL   C27547129   4.829   6.384   6.581  0.0327 -0.8223 -0.6806
  138MOL   N27647130   4.731   6.276   6.620  0.3268  0.7240  0.4034
  138MOL   C27747131   4.771   6.172   6.707  0.1767 -0.4661  0.2593
  138MOL   C27847132   4.640   6.081   6.730 -0.2855 -0.5424  0.0271
  138MOL   C27947133   4.525   6.153   6.650 -0.4310 -0.0187 -0.4812
  138MOL   C28047134   4.602   6.269   6.587  0.5554  0.1395 -0.0224
  138MOL   O28147135   4.541   6.350   6.513  0.0917 -0.3102 -0.6317
  138MOL   H28247136   4.850   6.598   6.585 -1.2489 -0.1193 -0.5551
  138MOL   H28347137   4.683   6.554   6.602 -0.5925  0.4053 -0.1904
  138MOL   H28447138   4.925   6.363   6.628 -0.7730 -0.4431  1.1496
  138MOL   H28547139   4.849   6.133   6.641  1.0807  2.1666 -0.2645
  138MOL   H28647140   4.818   6.218   6.794 -1.3796 -0.0329  0.8751
  138MOL   H28747141   4.653   5.977   6.700  0.4645 -0.8779  1.4632
  138MOL   H28847142   4.600   6.076   6.832 -0.2683 -1.1350  0.0074
  138MOL   H28947143   4.478   6.093   6.572 -0.1731 -1.5490  0.5220
  138MOL   H29047144   4.464   6.208   6.721 -1.1340  0.6128 -1.5584
  138MOL   C29147145   4.857   6.389   6.428  0.4912  0.1628  0.3902
  138MOL   C29247146   4.907   6.252   6.361 -0.0636  0.1616 -0.6508
  138MOL   N29347147   4.796   6.164   6.326 -0.1756  0.1520 -0.4528
  138MOL   C29447148   4.694   6.216   6.239 -0.3375  0.1901  0.2401
  138MOL   C29547149   4.598   6.100   6.233  0.4300 -0.2807 -0.4234
  138MOL   C29647150   4.666   5.974   6.278  0.1227 -0.4177  0.1523
  138MOL   C29747151   4.779   6.039   6.355 -0.3933 -0.0037  0.1348
  138MOL   O29847152   4.845   5.975   6.436 -0.1579  0.1185  0.1545
  138MOL   H29947153   4.929   6.466   6.401 -0.0539  0.2270 -0.8969
  138MOL   H30047154   4.759   6.411   6.386 -0.4231 -0.4781  2.1484
  138MOL   H30147155   4.978   6.199   6.424 -1.8890 -1.0274  0.4381
  138MOL   H30247156   4.644   6.307   6.272  2.7348  1.5967  1.1811
  138MOL   H30347157   4.732   6.239   6.139 -0.3948 -0.0483  0.1640
  138MOL   H30447158   4.508   6.126   6.289  0.4075 -0.9554 -0.1416
  138MOL   H30547159   4.555   6.090   6.133  0.0308 -1.1663 -0.1725
  138MOL   H30647160   4.601   5.922   6.349  0.7012 -0.4773  0.6443
  138MOL   H30747161   4.705   5.901   6.206  0.9270 -0.1119  0.2715
  138MOL   C30847162   4.997   6.294   6.241  0.6526 -0.5128  0.0126
  138MOL   C30947163   5.064   6.195   6.146  0.1418  0.0273 -0.6010
  138MOL   N31047164   5.134   6.278   6.044 -0.0921  0.4953 -0.0227
  138MOL   C31147165   5.110   6.233   5.909 -0.3263 -0.3666  0.3575
  138MOL   C31247166   5.229   6.293   5.829  0.5576 -0.1308  0.8078
  138MOL   C31347167   5.305   6.388   5.930  0.0308  0.5019  0.1740
  138MOL   C31447168   5.225   6.369   6.053  0.7047  0.6941 -0.1210
  138MOL   O31547169   5.264   6.430   6.156 -0.4023 -0.2666 -0.5381
  138MOL   H31647170   5.080   6.353   6.280  1.7306 -1.0658 -1.4130
  138MOL   H31747171   4.946   6.372   6.185 -0.4897 -0.5889  0.9111
  138MOL   H31847172   4.984   6.146   6.090  1.3964 -1.4265 -1.1885
  138MOL   H31947173   5.102   6.125   5.897  1.1319 -0.4276 -0.1432
  138MOL   H32047174   5.017   6.284   5.882 -0.1422 -0.2333 -0.0276
  138MOL   H32147175   5.302   6.218   5.797  1.1927  0.0702  1.7498
  138MOL   H32247176   5.197   6.344   5.739  0.7724 -2.7873 -0.8305
  138MOL   H32347177   5.410   6.363   5.948  0.3632  1.9066  0.2579
  138MOL   H32447178   5.303   6.495   5.912  0.1066  0.4330 -0.2543
  138MOL   C32547179   5.151   6.087   6.211  0.1939  0.2582  0.3851
  138MOL   C32647180   5.277   6.136   6.285  0.4124  0.2283 -0.5216
  138MOL   N32747181   5.307   6.041   6.387  0.4377 -0.5763  0.0894
  138MOL   C32847182   5.403   5.934   6.369  0.5601 -0.0678 -0.5012
  138MOL   C32947183   5.417   5.875   6.507 -0.9890  0.3841 -0.3328
  138MOL   C33047184   5.308   5.928   6.598 -0.3758 -0.9056  0.3114
  138MOL   C33147185   5.258   6.046   6.516  0.0460  0.3136  0.2251
  138MOL   O33247186   5.170   6.121   6.553 -0.4428  0.2500  0.3042
  138MOL   H33347187   5.184   6.019   6.132  0.4075 -1.1003  1.6151
  138MOL   H33447188   5.081   6.038   6.279 -0.3284  2.5844  1.5585
  138MOL   H33547189   5.247   6.234   6.323 -0.2406 -0.1398 -0.0854
  138MOL   H33647190   5.367   5.859   6.298  1.8514 -1.1688 -0.0312
  138MOL   H33747191   5.496   5.961   6.319  1.0284 -2.4686 -0.9822
  138MOL   H33847192   5.404   5.767   6.495 -3.4658  0.6870 -0.6296
  138MOL   H33947193   5.516   5.884   6.552 -1.6600  1.4084  0.9413
  138MOL   H34047194   5.220   5.866   6.613 -0.7185 -0.6922 -0.8108
  138MOL   H34147195   5.344   5.970   6.692 -1.6334  0.1116  0.3459
  138MOL   H34247196   5.363   6.155   6.221  0.0840 -1.3234 -1.4364
  139MOL     C147197   7.251   6.480   3.577 -0.9003 -0.9145  0.6241
  139MOL     C247198   7.382   6.402   3.585 -0.4263 -0.5366 -0.1208
  139MOL     N347199   7.381   6.284   3.504 -0.2261  0.4558  0.2680
  139MOL     C447200   7.388   6.148   3.561  0.3005 -0.2954  0.2177
  139MOL     C547201   7.404   6.056   3.439  0.6817  0.3562  0.3643
  139MOL     C647202   7.376   6.139   3.316  0.1330  1.1288 -0.5305
  139MOL     C747203   7.384   6.276   3.368  0.4562  0.0114 -0.0303
  139MOL     O847204   7.383   6.367   3.289 -0.2816 -0.3670 -0.0878
  139MOL     H947205   7.245   6.568   3.641 -0.2720 -1.2807  1.1893
  139MOL    H1047206   7.237   6.536   3.484 -1.3207 -2.7003 -0.4129
  139MOL    H1147207   7.371   6.382   3.692 -2.6853  1.0341 -0.0125
  139MOL    H1247208   7.473   6.123   3.625 -0.1119  0.4307  1.0532
  139MOL    H1347209   7.308   6.119   3.629  1.7413 -0.6116  1.8265
  139MOL    H1447210   7.506   6.022   3.420  1.5585  2.3807  1.2721
  139MOL    H1547211   7.340   5.968   3.439  0.6036  0.4126  0.4403
  139MOL    H1647212   7.428   6.119   3.223  3.4627 -0.4395  1.5556
  139MOL    H1747213   7.272   6.116   3.290  0.2694  1.0217 -0.9858
  139MOL    H1847214   7.156   6.425   3.579 -1.0162 -0.9746 -2.9562
  139MOL    C1947215   7.517   6.475   3.561  0.3427 -0.2234 -0.5316
  139MOL    C2047216   7.645   6.391   3.587 -0.1328  0.1604  0.5974
  139MOL    N2147217   7.714   6.354   3.459  0.0608  0.1185  0.0964
  139MOL    C2247218   7.756   6.218   3.433 -0.5368 -0.6252 -0.2483
  139MOL    C2347219   7.777   6.209   3.286  0.1068 -0.0889  0.6726
  139MOL    C2447220   7.829   6.350   3.247 -0.0423  0.2363 -0.6980
  139MOL    C2547221   7.770   6.433   3.361  0.5050  0.4756 -0.3070
  139MOL    O2647222   7.763   6.557   3.360  0.2890 -0.2754 -0.1829
  139MOL    H2747223   7.524   6.552   3.638  0.1653 -0.1469 -0.5916
  139MOL    H2847224   7.521   6.532   3.468  1.3411  2.2052  0.9323
  139MOL    H2947225   7.620   6.296   3.633  0.2332  0.6280  1.7681
  139MOL    H3047226   7.855   6.200   3.476 -0.2561 -1.0163 -1.0614
  139MOL    H3147227   7.680   6.151   3.473 -1.6229  0.8467  0.1945
  139MOL    H3247228   7.836   6.128   3.244  3.7829  1.3368  2.8542
  139MOL    H3347229   7.674   6.187   3.258 -0.9290  4.1506  0.8206
  139MOL    H3447230   0.030   6.367   3.237  0.0748 -0.0008  0.1547
  139MOL    H3547231   7.778   6.380   3.155 -2.6785  1.3284  1.0643
  139MOL    C3647232   7.747   6.470   3.684  0.0018  0.6620  0.1059
  139MOL    C3747233   7.704   6.468   3.840  0.2366  0.4130  1.1884
  139MOL    N3847234   7.666   6.336   3.883 -0.1747 -0.2907 -0.2078
  139MOL    C3947235   7.540   6.320   3.948 -0.5271  0.1484  0.5124
  139MOL    C4047236   7.525   6.173   3.963 -0.8702 -0.2272  0.5212
  139MOL    C4147237   7.661   6.109   3.935 -0.1471  0.2454  1.2334
  139MOL    C4247238   7.740   6.227   3.900 -0.4280  0.0819  0.2821
  139MOL    O4347239   7.859   6.216   3.872 -0.0501 -0.1378 -0.5948
  139MOL    H4447240   7.758   6.571   3.646 -0.2886  0.9492  0.7934
  139MOL    H4547241   7.842   6.420   3.664 -0.5233 -0.2768 -0.0759
  139MOL    H4647242   7.619   6.537   3.844  0.6165  1.0300 -0.8813
  139MOL    H4747243   7.535   6.377   4.041  0.9401 -1.5181  1.6637
  139MOL    H4847244   7.452   6.350   3.891  1.6230  0.6774 -2.6857
  139MOL    H4947245   7.491   6.151   4.064 -1.8146 -0.2390  0.2116
  139MOL    H5047246   7.449   6.138   3.893  0.3105 -2.1399  0.1704
  139MOL    H5147247   7.706   6.062   4.022  2.6239 -0.6280 -0.5889
  139MOL    H5247248   7.652   6.041   3.849 -1.9184  1.1855  0.6665
  139MOL    C5347249   7.807   6.526   3.933  0.7370 -0.4972 -0.8909
  139MOL    C5447250   7.806   6.673   3.946  0.2304  0.1685 -0.2856
  139MOL    N5547251   7.675   6.738   3.983 -0.0442  0.1014 -0.4902
  139MOL    C5647252   7.616   6.849   3.917 -0.0466  0.4363 -0.2498
  139MOL    C5747253   7.477   6.870   3.980  0.4808  0.0090 -0.4561
  139MOL    C5847254   7.466   6.768   4.092 -0.4722  0.0701  0.2190
  139MOL    C5947255   7.600   6.700   4.091 -0.1065 -0.4863  0.4890
  139MOL    O6047256   7.626   6.609   4.170  0.3433  0.6463  0.0916
  139MOL    H6147257   0.002   6.486   3.940  0.9876  0.2062 -0.3873
  139MOL    H6247258   7.781   6.484   4.031  0.5374 -0.4827 -0.9384
  139MOL    H6347259   7.820   6.724   3.850  0.2402  1.2683  0.2962
  139MOL    H6447260   7.669   6.944   3.917 -0.7209  0.8207  0.1009
  139MOL    H6547261   7.592   6.827   3.813  0.7949  2.1557 -0.8296
  139MOL    H6647262   7.471   6.969   4.026  0.7366  1.1201 -2.7676
  139MOL    H6747263   7.400   6.867   3.904 -0.3911 -0.2112  0.4193
  139MOL    H6847264   7.454   6.824   4.184 -1.5723 -0.6830  0.5503
  139MOL    H6947265   7.381   6.703   4.070 -0.7777  0.0928  1.3158
  139MOL    C7047266   0.015   6.727   4.038 -0.1447  0.3710 -0.4706
  139MOL    C7147267   0.161   6.720   3.973 -0.1295  0.1326  0.5831
  139MOL    N7247268   0.162   6.777   3.834  0.0343  0.2940  0.1594
  139MOL    C7347269   0.195   6.694   3.727 -0.4205 -0.2574 -0.2383
  139MOL    C7447270   0.165   6.778   3.602 -0.0684 -0.6852  0.5878
  139MOL    C7547271   0.123   6.919   3.651 -0.0837 -0.5761  0.4349
  139MOL    C7647272   0.122   6.900   3.799 -0.3339 -0.0572 -0.2998
  139MOL    O7747273   0.073   6.986   3.870  0.2155 -0.3181  0.3325
  139MOL    H7847274   0.020   6.682   4.137  0.9000  2.1884  0.3259
  139MOL    H7947275   7.894   6.829   4.062  3.0426  0.2533  4.3106
  139MOL    H8047276   0.178   6.614   3.953  0.1578  0.3883 -0.5613
  139MOL    H8147277   0.303   6.680   3.738 -0.4571  1.6323  2.9885
  139MOL    H8247278   0.149   6.595   3.731 -0.0401 -0.3983  0.8172
  139MOL    H8347279   0.245   6.777   3.528  0.8168  0.9940  1.5029
  139MOL    H8447280   0.077   6.733   3.556 -0.4601  1.5979 -0.9776
  139MOL    H8547281   0.187   7.005   3.629 -0.4905 -0.3591  0.0811
  139MOL    H8647282   0.025   6.954   3.618  0.0557  0.0627  0.6917
  139MOL    C8747283   0.280   6.777   4.052  0.1755  0.0525  0.6825
  139MOL    C8847284   0.336   6.689   4.163 -0.5277 -0.0723 -1.1435
  139MOL    N8947285   0.391   6.567   4.107  0.2895  0.3481 -0.1924
  139MOL    C9047286   0.334   6.442   4.153 -0.1548 -0.8836  0.8973
  139MOL    C9147287   0.398   6.340   4.056  0.4915  0.5069  0.3466
  139MOL    C9247288   0.490   6.412   3.962  0.3743  0.4024  0.2044
  139MOL    C9347289   0.488   6.552   4.023 -0.4778  0.5331  0.1348
  139MOL    O9447290   0.557   6.645   3.983  0.7483  0.0455  0.9068
  139MOL    H9547291   0.245   6.871   4.097 -0.1058  1.6727 -2.7422
  139MOL    H9647292   0.362   6.802   3.986 -0.0440 -0.4164  0.2332
  139MOL    H9747293   0.265   6.666   4.243 -0.5930  0.4108 -1.0642
  139MOL    H9847294   0.352   6.422   4.259  0.7471 -0.7174  0.7766
  139MOL    H9947295   0.226   6.445   4.139 -0.1215 -0.2252  0.7705
  139MOL   H10047296   0.449   6.271   4.123  2.0036  1.2805  0.0236
  139MOL   H10147297   0.329   6.280   3.996 -0.0484 -0.5982  2.0453
  139MOL   H10247298   0.593   6.376   3.958  0.5333  0.8013  0.5940
  139MOL   H10347299   0.441   6.425   3.866 -0.7007  0.5370  0.7640
  139MOL   C10447300   0.437   6.766   4.254 -0.0788  0.1321  0.2044
  139MOL   C10547301   0.396   6.901   4.314  0.2940  0.7125  0.6731
  139MOL   N10647302   0.279   6.887   4.402 -0.5362  0.0327  0.4013
  139MOL   C10747303   0.149   6.911   4.354 -0.1864  0.2472  0.3942
  139MOL   C10847304   0.063   6.913   4.477  0.2855  0.1439  0.2137
  139MOL   C10947305   0.141   6.846   4.585  0.2474  0.1166  0.9074
  139MOL   C11047306   0.278   6.836   4.527 -0.0327  0.2064 -0.1399
  139MOL   O11147307   0.371   6.778   4.586  0.2546  0.2213 -0.2747
  139MOL   H11247308   0.528   6.786   4.199 -1.3589 -0.1039 -2.0778
  139MOL   H11347309   0.463   6.695   4.332 -0.8609  0.1628  0.5000
  139MOL   H11447310   0.366   6.960   4.227  0.2919 -0.2967 -0.0271
  139MOL   H11547311   0.134   7.007   4.305 -1.3462 -0.4267 -0.6217
  139MOL   H11647312   0.119   6.824   4.296 -0.2009  1.2034 -1.0654
  139MOL   H11747313   0.055   7.020   4.497 -2.2337 -0.0648  0.4224
  139MOL   H11847314   7.869   6.872   4.464  1.1647 -1.3427 -2.1534
  139MOL   H11947315   0.112   6.741   4.593  0.3176  0.0053 -0.3138
  139MOL   H12047316   0.121   6.891   4.682 -1.9078 -1.0164  1.0297
  139MOL   C12147317   0.507   6.972   4.382 -0.4918  0.3965 -0.7009
  139MOL   C12247318   0.643   6.998   4.303 -1.0853  0.3224  0.2822
  139MOL   N12347319   0.619   7.084   4.185  0.9562 -0.1495 -0.4885
  139MOL   C12447320   0.628   7.029   4.051  0.3841 -0.2177 -0.2547
  139MOL   C12547321   0.602   7.143   3.961 -0.0593 -0.2410 -0.1118
  139MOL   C12647322   0.587   7.266   4.042 -0.1543 -0.4691  0.0237
  139MOL   C12747323   0.594   7.214   4.187 -0.4254  0.3758  0.1987
  139MOL   O12847324   0.577   7.285   4.285  0.3131  0.1863 -0.5653
  139MOL   H12947325   0.538   6.908   4.464 -2.1052 -0.8493 -1.0377
  139MOL   H13047326   0.472   7.072   4.410 -0.1872 -0.1093  1.5138
  139MOL   H13147327   0.683   6.913   4.248 -1.3063 -0.4303  1.2598
  139MOL   H13247328   0.549   6.958   4.026 -0.0787  0.7543 -1.5727
  139MOL   H13347329   0.730   6.997   4.031  0.9929  1.0494  0.7934
  139MOL   H13447330   0.695   7.164   3.909  0.8669  0.9499  1.9416
  139MOL   H13547331   0.522   7.139   3.887 -0.1342 -2.7018  0.0352
  139MOL   H13647332   0.662   7.345   4.031  0.6521 -1.2074  0.1673
  139MOL   H13747333   0.492   7.320   4.039 -0.3411 -0.7314  0.9257
  139MOL   C13847334   0.767   7.050   4.386 -0.0023 -0.1021  0.5413
  139MOL   C13947335   0.820   6.946   4.485 -0.0707  0.4164 -0.3391
  139MOL   N14047336   0.837   6.820   4.416  0.2585  0.3811  0.4177
  139MOL   C14147337   0.761   6.706   4.455  0.2569  0.6371  0.2627
  139MOL   C14247338   0.805   6.594   4.360 -0.1495  0.1909  0.3033
  139MOL   C14347339   0.927   6.649   4.284  0.4118  0.7379  0.4803
  139MOL   C14447340   0.931   6.788   4.323  0.6895  0.6880 -0.2891
  139MOL   O14547341   1.009   6.864   4.280 -0.8041 -1.1279  0.3636
  139MOL   H14647342   0.744   7.137   4.447  1.0671 -0.8938  2.1312
  139MOL   H14747343   0.848   7.080   4.319 -1.1360  0.8098 -0.4362
  139MOL   H14847344   0.738   6.926   4.555  1.0110  1.2984  1.2279
  139MOL   H14947345   0.790   6.677   4.556 -2.6624 -1.1872  0.6280
  139MOL   H15047346   0.656   6.734   4.447  0.9226  3.2405  0.1288
  139MOL   H15147347   0.827   6.502   4.414 -0.6641 -0.1661 -0.0875
  139MOL   H15247348   0.733   6.569   4.282 -0.9542 -0.1948  1.1715
  139MOL   H15347349   0.924   6.639   4.176  0.8080 -1.4790  0.6480
  139MOL   H15447350   1.019   6.606   4.323 -0.1658 -0.8255  0.1533
  139MOL   C15547351   0.941   7.002   4.568 -0.7556  0.4030 -0.8072
  139MOL   C15647352   0.984   6.914   4.688  0.7212 -0.0941  0.0907
  139MOL   N15747353   1.074   6.804   4.646 -0.1527  0.2613 -0.0726
  139MOL   C15847354   1.187   6.813   4.560 -0.7740  0.4091  0.7957
  139MOL   C15947355   1.238   6.663   4.539 -0.3262 -0.1717 -0.3640
  139MOL   C16047356   1.158   6.577   4.634 -0.0769  0.3592 -0.2847
  139MOL   C16147357   1.069   6.677   4.699 -0.4245 -0.8358  0.3101
  139MOL   O16247358   0.992   6.642   4.788  0.2465 -0.7826  0.0386
  139MOL   H16347359   0.911   7.102   4.598 -0.9983 -0.4543  1.9789
  139MOL   H16447360   1.025   7.027   4.503 -0.0053 -0.4484 -0.1870
  139MOL   H16547361   0.889   6.870   4.719 -0.8120  1.5300 -2.1329
  139MOL   H16647362   1.166   6.859   4.464  2.0001  0.7738  0.3094
  139MOL   H16747363   1.256   6.879   4.612 -1.0620 -0.2152  1.9950
  139MOL   H16847364   1.231   6.633   4.434  1.8453  0.5222 -0.7332
  139MOL   H16947365   1.343   6.671   4.565 -0.5020 -2.2885  1.0860
  139MOL   H17047366   1.090   6.506   4.586 -1.6686  2.7032 -1.5971
  139MOL   H17147367   1.219   6.526   4.708  0.0141  2.4431  1.1407
  139MOL   C17247368   1.049   6.996   4.803 -0.4146  0.2396 -0.3375
  139MOL   C17347369   0.969   7.115   4.874  0.8311 -0.0262  0.4155
  139MOL   N17447370   0.835   7.076   4.915 -0.1204 -0.2621 -0.0803
  139MOL   C17547371   0.815   6.958   4.993 -0.2429  0.2717  0.2615
  139MOL   C17647372   0.669   6.957   5.035 -0.0442 -0.8216  0.7652
  139MOL   C17747373   0.602   7.070   4.951  0.4366 -0.0832 -0.7812
  139MOL   C17847374   0.718   7.132   4.883 -0.9609  0.5737  0.4166
  139MOL   O17947375   0.704   7.227   4.807 -0.2501  0.3292  0.2575
  139MOL   H18047376   1.148   7.026   4.767  0.0737 -0.0596  0.7224
  139MOL   H18147377   1.071   6.922   4.879 -0.1464  1.6759  1.0182
  139MOL   H18247378   0.960   7.193   4.798  0.5599 -2.6459 -2.3590
  139MOL   H18347379   0.850   6.870   4.939  0.3727  1.0473 -0.6251
  139MOL   H18447380   0.877   6.992   5.076 -2.2214  1.3995  1.3106
  139MOL   H18547381   0.656   6.996   5.136 -2.8784  1.1481 -0.2693
  139MOL   H18647382   0.622   6.859   5.033 -2.0155  0.0615  1.3215
  139MOL   H18747383   0.545   7.026   4.870  1.6854  0.9258 -2.2544
  139MOL   H18847384   0.554   7.147   5.011 -0.1446 -1.2421  0.2416
  139MOL   C18947385   1.053   7.175   4.994 -0.5997 -0.4055 -0.0652
  139MOL   C19047386   1.022   7.321   5.031 -0.1793 -0.0289 -0.0471
  139MOL   N19147387   0.895   7.324   5.111  0.1148 -0.0032 -0.3086
  139MOL   C19247388   0.880   7.248   5.237  0.2708 -0.3319 -0.0405
  139MOL   C19347389   0.728   7.273   5.277  0.0328 -0.5966  0.0518
  139MOL   C19447390   0.671   7.375   5.176 -0.0510  0.1620  0.4710
  139MOL   C19547391   0.786   7.396   5.082 -0.2199 -0.5461  0.1162
  139MOL   O19647392   0.800   7.483   4.996 -0.2374 -0.4459  0.4192
  139MOL   H19747393   1.157   7.182   4.960 -0.5948  1.8362  0.3331
  139MOL   H19847394   1.064   7.110   5.081  4.2305 -0.1583 -0.3518
  139MOL   H19947395   1.008   7.374   4.937 -1.6661 -0.4011 -0.0467
  139MOL   H20047396   0.907   7.143   5.242 -0.0590 -0.4119  0.1006
  139MOL   H20147397   0.931   7.306   5.315 -1.1025 -0.5034  1.0043
  139MOL   H20247398   0.669   7.182   5.289 -1.6656  0.3888 -0.6326
  139MOL   H20347399   0.732   7.322   5.374  1.3372  0.8770 -0.7367
  139MOL   H20447400   0.587   7.338   5.117 -0.7481 -1.7480  2.5617
  139MOL   H20547401   0.654   7.474   5.217 -1.7695 -0.1672  0.5818
  139MOL   C20647402   1.137   7.395   5.103  0.2681  0.5770 -0.3889
  139MOL   C20747403   1.152   7.543   5.058  0.1813  0.0110  0.0943
  139MOL   N20847404   1.232   7.611   5.163 -0.4767  0.5439  0.0628
  139MOL   C20947405   1.152   7.708   5.237 -0.0252  0.1334 -0.2252
  139MOL   C21047406   1.245   7.760   5.350  0.2983  0.1690  0.2216
  139MOL   C21147407   1.380   7.683   5.335 -0.0547 -0.0222  0.1437
  139MOL   C21247408   1.347   7.587   5.223  0.5016 -0.6087  0.4084
  139MOL   O21347409   1.423   7.489   5.207  0.1298  0.7115  0.4156
  139MOL   H21447410   1.235   7.348   5.092 -0.4943 -1.5237  1.2746
  139MOL   H21547411   1.121   7.395   5.211  0.8729  0.7047 -0.2998
  139MOL   H21647412   1.050   7.582   5.056 -0.2925 -1.2262 -2.6246
  139MOL   H21747413   1.134   7.797   5.176  1.3129  0.0027 -0.8312
  139MOL   H21847414   1.059   7.667   5.276  0.0653  0.8049  0.7108
  139MOL   H21947415   1.249   7.868   5.365 -0.6497  0.4234 -1.2240
  139MOL   H22047416   1.206   7.732   5.448 -0.7483 -0.5895 -0.3986
  139MOL   H22147417   1.452   7.757   5.301 -1.1361  1.2224  0.5254
  139MOL   H22247418   1.409   7.640   5.431  1.9945  0.2661 -0.3436
  139MOL   C22347419   1.232   7.552   4.923  0.5436  0.5198  0.3269
  139MOL   C22447420   1.159   7.530   4.782  0.2897  1.2338 -0.0291
  139MOL   N22547421   1.031   7.599   4.768 -0.4910 -0.4218 -0.6291
  139MOL   C22647422   0.932   7.532   4.686  0.1625  0.1803  0.0054
  139MOL   C22747423   0.809   7.618   4.700  0.0126 -0.5246  0.1548
  139MOL   C22847424   0.849   7.737   4.785  0.3482  0.5575  0.3017
  139MOL   C22947425   0.990   7.716   4.817  0.8287  0.0810 -0.2739
  139MOL   O23047426   1.059   7.788   4.890  0.0397 -0.8930  0.0027
  139MOL   H23147427   1.313   7.478   4.920  1.9657  2.0030  1.1459
  139MOL   H23247428   1.282   7.649   4.915  1.3713 -0.0225 -1.3460
  139MOL   H23347429   1.146   7.422   4.774 -1.2335  1.0999  3.5698
  139MOL   H23447430   0.960   7.527   4.580  0.1082  1.5405 -0.0854
  139MOL   H23547431   0.910   7.428   4.709 -0.4214  0.1942 -0.4624
  139MOL   H23647432   0.765   7.652   4.607  2.6194  0.8372 -0.6378
  139MOL   H23747433   0.733   7.563   4.755  1.4066 -1.2484  1.4015
  139MOL   H23847434   0.835   7.827   4.725 -0.8789  0.3554  0.2794
  139MOL   H23947435   0.805   7.750   4.884 -0.9758 -0.5409 -0.1284
  139MOL   C24047436   1.246   7.592   4.671 -0.2282 -0.3680  0.2249
  139MOL   C24147437   1.383   7.533   4.647  0.0007  0.2351  0.9921
  139MOL   N24247438   1.378   7.390   4.627 -0.1800  0.6291  0.1905
  139MOL   C24347439   1.443   7.300   4.715 -0.4675  0.1898 -0.1231
  139MOL   C24447440   1.406   7.156   4.667  0.9601  0.1115  0.3704
  139MOL   C24547441   1.309   7.165   4.554 -0.4886  0.5910  0.1214
  139MOL   C24647442   1.315   7.319   4.530 -0.2406  0.1965  0.0319
  139MOL   O24747443   1.242   7.364   4.434  0.2462  0.1964 -0.4120
  139MOL   H24847444   1.268   7.697   4.689  1.9989 -0.9598  1.1036
  139MOL   H24947445   1.195   7.593   4.575 -0.5047  1.2608  0.3690
  139MOL   H25047446   1.438   7.545   4.740  0.0257  0.9554  0.8855
  139MOL   H25147447   1.550   7.317   4.722 -0.3297 -0.2025 -1.2206
  139MOL   H25247448   1.401   7.292   4.815 -1.0469  1.4530 -0.2606
  139MOL   H25347449   1.496   7.100   4.642 -0.2594 -1.5933 -0.2673
  139MOL   H25447450   1.363   7.102   4.751  1.7894 -0.3936  0.4867
  139MOL   H25547451   1.338   7.100   4.471  0.4432 -0.4470  1.2543
  139MOL   H25647452   1.210   7.133   4.584 -0.2625  0.7228  1.0287
  139MOL   C25747453   1.465   7.606   4.531 -0.0630 -0.1648  0.0478
  139MOL   C25847454   1.550   7.720   4.577 -1.0097 -0.1851 -0.8895
  139MOL   N25947455   1.646   7.673   4.680  0.0315 -0.1776  0.4704
  139MOL   C26047456   1.652   7.746   4.809  0.1833  0.1900  0.4122
  139MOL   C26147457   1.764   7.672   4.879  0.0111  0.9747 -0.7979
  139MOL   C26247458   1.828   7.571   4.788  0.6176  0.5770 -0.7207
  139MOL   C26347459   1.747   7.586   4.663 -0.1975  0.3605 -0.3428
  139MOL   O26447460   1.776   7.525   4.561 -0.4803 -0.1497  0.4058
  139MOL   H26547461   1.398   7.645   4.455  0.0108 -0.2693 -0.0722
  139MOL   H26647462   1.532   7.541   4.474  0.3573  1.1040 -0.9439
  139MOL   H26747463   1.484   7.793   4.624  1.7578  1.2385  0.8715
  139MOL   H26847464   1.675   7.851   4.791 -0.8099  0.0400 -1.8989
  139MOL   H26947465   1.566   7.735   4.876 -1.4589 -0.9942 -1.8124
  139MOL   H27047466   1.849   7.736   4.903  0.2956  0.1941  0.3122
  139MOL   H27147467   1.733   7.619   4.969  2.5110 -1.2925 -1.2122
  139MOL   H27247468   1.936   7.577   4.772  0.4471  3.0253 -1.1273
  139MOL   H27347469   1.803   7.470   4.820 -3.8657  1.2347 -1.8237
  139MOL   C27447470   1.608   7.803   4.456  0.0631 -0.1583 -0.5006
  139MOL   C27547471   1.698   0.021   4.479  0.3810  0.0476 -0.0097
  139MOL   N27647472   1.840   7.890   4.458  0.6179 -1.0420  0.1003
  139MOL   C27747473   1.932   7.898   4.569  0.0103  0.1148  0.2790
  139MOL   C27847474   2.062   7.845   4.520 -0.0047  0.5210  0.7344
  139MOL   C27947475   2.049   7.837   4.370 -0.0009 -0.3270  0.2443
  139MOL   C28047476   1.900   7.875   4.338  0.0103 -0.3651  0.5081
  139MOL   O28147477   1.841   7.873   4.230  0.2809 -0.2825  0.1494
  139MOL   H28247478   1.518   7.824   4.398 -0.8106  0.5248  1.0692
  139MOL   H28347479   1.658   7.733   4.389  0.5896  1.4860 -1.8431
  139MOL   H28447480   1.681   0.054   4.581 -1.1403 -0.5962 -0.0331
  139MOL   H28547481   1.948   0.095   4.602  0.0983  0.8624 -1.9999
  139MOL   H28647482   1.904   7.848   4.662  2.3717 -0.8996  0.4952
  139MOL   H28747483   2.151   7.899   4.553  1.0655 -0.5114 -0.4108
  139MOL   H28847484   2.063   7.742   4.556 -0.7125 -0.0951 -0.9739
  139MOL   H28947485   2.115   0.006   4.325 -0.6672  1.7799  2.6441
  139MOL   H29047486   2.083   7.740   4.334  0.1975 -0.2385  0.1949
  139MOL   C29147487   1.655   0.139   4.388 -0.4890  0.0335  0.3847
  139MOL   C29247488   1.525   0.221   4.441 -0.6508  0.1435 -0.3217
  139MOL   N29347489   1.517   0.342   4.359  0.2349  0.2132 -0.7980
  139MOL   C29447490   1.563   0.474   4.409 -0.3010 -0.4416  0.5349
  139MOL   C29547491   1.539   0.573   4.296 -0.0223 -0.3571 -0.2210
  139MOL   C29647492   1.464   0.490   4.182  0.3705 -1.0736 -0.7163
  139MOL   C29747493   1.471   0.349   4.228  0.2400  0.2402  0.3355
  139MOL   O29847494   1.457   0.256   4.154 -0.3607 -0.7284 -0.2835
  139MOL   H29947495   1.640   0.105   4.285 -0.6564 -0.1628  0.4760
  139MOL   H30047496   1.739   0.209   4.380 -1.7332  1.6857  1.3662
  139MOL   H30147497   1.553   0.249   4.542 -0.6722  0.1936 -0.3301
  139MOL   H30247498   1.513   0.497   4.503  0.1111 -1.6810  1.0689
  139MOL   H30347499   1.672   0.465   4.413  0.0714  3.0625 -0.3538
  139MOL   H30447500   1.472   0.653   4.326  0.6791  0.4804 -0.8521
  139MOL   H30547501   1.631   0.621   4.263 -0.0626 -0.0430  0.1181
  139MOL   H30647502   1.361   0.525   4.176  0.3110 -0.4669  2.7049
  139MOL   H30747503   1.524   0.504   4.092  0.3644 -0.6850 -0.6626
  139MOL   C30847504   1.403   0.133   4.453 -0.1805 -0.0836 -0.4606
  139MOL   C30947505   1.270   0.196   4.501 -0.4509 -0.0309  0.0570
  139MOL   N31047506   1.147   0.126   4.461  0.5030  0.5230 -0.9719
  139MOL   C31147507   1.016   0.199   4.449 -0.3800 -1.0766 -0.9438
  139MOL   C31247508   0.905   0.086   4.437 -0.8745  0.0640  0.2526
  139MOL   C31347509   0.987   7.864   4.428  0.6879  0.2821  0.1737
  139MOL   C31447510   1.134   7.905   4.430  0.6508  0.3668 -0.1210
  139MOL   O31547511   1.218   7.821   4.444  0.1167  0.1040 -0.0971
  139MOL   H31647512   1.413   0.057   4.531 -3.1856  0.3347  0.4078
  139MOL   H31747513   1.394   0.074   4.362 -1.8547 -0.5808  0.0018
  139MOL   H31847514   1.265   0.292   4.449 -2.4824 -0.0599  0.1497
  139MOL   H31947515   1.001   0.258   4.540  2.0127 -0.6180 -0.8151
  139MOL   H32047516   1.031   0.265   4.363  0.0951  2.5630  1.8165
  139MOL   H32147517   0.858   0.072   4.534  0.4537  1.9850  1.2150
  139MOL   H32247518   0.826   0.116   4.369 -0.9309 -0.0406  0.2722
  139MOL   H32347519   0.968   7.789   4.505 -1.4592  0.4879 -0.1387
  139MOL   H32447520   0.952   7.817   4.337  0.0884  2.0402 -0.5191
  139MOL   C32547521   1.270   0.234   4.653 -0.1519 -0.6251 -0.5229
  139MOL   C32647522   1.213   0.126   4.739 -0.1865 -0.7197  0.0860
  139MOL   N32747523   1.233   0.169   4.879 -0.6268  0.4519  0.0589
  139MOL   C32847524   1.346   0.130   4.952 -0.3894 -0.3306 -0.2994
  139MOL   C32947525   1.335   0.217   5.084  0.5674  0.1628  0.3418
  139MOL   C33047526   1.193   0.259   5.094  0.4738  0.0330 -0.3672
  139MOL   C33147527   1.141   0.230   4.955 -0.2167 -0.1381  0.1117
  139MOL   O33247528   1.033   0.276   4.930  0.4047  0.4240  0.0388
  139MOL   H33347529   1.222   0.331   4.670  1.4957 -0.1143  1.3499
  139MOL   H33447530   1.374   0.254   4.678  0.3138 -1.7411 -1.4795
  139MOL   H33547531   1.252   0.024   4.728 -0.2120 -0.7096 -0.1111
  139MOL   H33647532   1.346   0.023   4.971  0.9427 -0.0446  1.5228
  139MOL   H33747533   1.433   0.161   4.894 -1.1751 -0.8459 -1.7673
  139MOL   H33847534   1.367   0.171   5.177 -3.2727 -0.4874  1.3857
  139MOL   H33947535   1.402   0.303   5.078 -0.1508  0.5539 -3.3221
  139MOL   H34047536   1.145   0.195   5.168  2.3794 -1.2291 -0.1891
  139MOL   H34147537   1.179   0.365   5.115  0.9389 -0.4632  2.5789
  139MOL   H34247538   1.110   0.104   4.713 -0.3020  0.8461 -0.7958
  140MOL     C147539   6.142   3.335   1.945  0.1599 -0.7943  0.2953
  140MOL     C247540   6.216   3.208   2.010 -0.3481  0.5847 -0.2784
  140MOL     N347541   6.332   3.253   2.090 -0.0688 -0.1917  0.2559
  140MOL     C447542   6.468   3.245   2.032 -0.5911  0.1718  0.6725
  140MOL     C547543   6.560   3.268   2.154 -0.0586 -0.7782 -0.5413
  140MOL     C647544   6.471   3.330   2.264  0.1886  0.3043  0.3183
  140MOL     C747545   6.336   3.311   2.208  0.6025  1.0813 -0.6125
  140MOL     O847546   6.233   3.332   2.273 -1.0467 -0.4951  0.4078
  140MOL     H947547   6.188   3.358   1.849 -0.7753 -1.4178 -0.3035
  140MOL    H1047548   6.045   3.289   1.924 -0.3318 -0.2375  1.3268
  140MOL    H1147549   6.260   3.160   1.923  2.0717  1.2080  0.5545
  140MOL    H1247550   6.494   3.153   1.978  1.7087  1.7751 -1.0491
  140MOL    H1347551   6.480   3.326   1.960  0.4870 -1.4604 -1.0761
  140MOL    H1447552   6.613   3.180   2.191  0.7196  1.1363  3.0264
  140MOL    H1547553   6.637   3.337   2.120 -0.0605 -0.8236 -0.6377
  140MOL    H1647554   6.501   3.272   2.352 -1.4882 -0.9781  0.0632
  140MOL    H1747555   6.483   3.439   2.264 -1.7365  0.5293 -1.0135
  140MOL    H1847556   6.126   3.415   2.017 -0.6848 -0.2317 -0.5061
  140MOL    C1947557   6.122   3.118   2.086  0.4008 -0.1478  0.1624
  140MOL    C2047558   6.078   2.996   1.995 -0.0380 -0.3004 -0.0258
  140MOL    N2147559   6.018   2.892   2.086 -0.5457 -0.0582  0.4723
  140MOL    C2247560   6.087   2.761   2.085  0.4624 -0.2251 -0.8427
  140MOL    C2347561   6.003   2.672   2.177 -0.3934 -0.3716  0.1447
  140MOL    C2447562   5.893   2.766   2.242 -0.6793 -0.0945 -0.2758
  140MOL    C2547563   5.902   2.889   2.158  0.0429 -0.1031 -0.1815
  140MOL    O2647564   5.819   2.982   2.167  0.1705  0.1926 -0.1317
  140MOL    H2747565   6.052   3.179   2.142 -1.9568 -1.4949 -1.1968
  140MOL    H2847566   6.169   3.064   2.168  0.1753  2.2319  1.8798
  140MOL    H2947567   6.166   2.954   1.946 -0.3902  1.6909 -2.4935
  140MOL    H3047568   6.087   2.729   1.981  0.4955  0.7391 -1.1469
  140MOL    H3147569   6.191   2.777   2.113  0.0013  1.0476  0.2198
  140MOL    H3247570   5.964   2.587   2.120 -0.9348 -0.8471  1.1986
  140MOL    H3347571   6.053   2.612   2.253  0.7954  0.2566 -0.1349
  140MOL    H3447572   5.789   2.735   2.244 -0.6933 -0.0537  3.0625
  140MOL    H3547573   5.907   2.801   2.345 -0.7260 -2.9454  0.7328
  140MOL    C3647574   5.976   3.027   1.881  0.3468  0.0058  0.2736
  140MOL    C3747575   6.024   3.064   1.736  0.0934 -0.9193  0.3795
  140MOL    N3847576   6.127   2.966   1.689 -0.2463  0.0364 -0.1581
  140MOL    C3947577   6.238   3.016   1.606  0.1640  0.5895  0.0646
  140MOL    C4047578   6.306   2.891   1.548  0.0154 -0.2475  0.0331
  140MOL    C4147579   6.218   2.773   1.588  0.4398 -0.1296  0.0721
  140MOL    C4247580   6.114   2.830   1.676  0.7019 -0.4967  0.2685
  140MOL    O4347581   6.017   2.764   1.717 -0.6133 -0.0713  0.4566
  140MOL    H4447582   5.917   3.110   1.921 -1.4681 -0.7194 -0.8169
  140MOL    H4547583   5.905   2.944   1.873 -0.4051  0.6721 -0.0890
  140MOL    H4647584   6.074   3.160   1.742  1.3839 -1.4264 -1.6557
  140MOL    H4747585   6.204   3.075   1.522  1.3012 -0.1944 -0.9640
  140MOL    H4847586   6.309   3.073   1.666  0.7350 -0.1178  0.0687
  140MOL    H4947587   6.313   2.894   1.439  0.0539 -1.0786  0.0064
  140MOL    H5047588   6.402   2.859   1.589  0.3472  1.4633  0.6094
  140MOL    H5147589   6.185   2.740   1.489 -0.7741  2.9633 -0.6260
  140MOL    H5247590   6.277   2.699   1.642 -1.4140  0.9703  3.7452
  140MOL    C5347591   5.909   3.077   1.637 -0.4499 -0.2964  0.1843
  140MOL    C5447592   5.795   3.170   1.671  0.7855 -0.2852  1.0870
  140MOL    N5547593   5.834   3.297   1.729 -0.4801 -0.7203  0.3731
  140MOL    C5647594   5.772   3.350   1.853 -0.5136  0.0500  0.8405
  140MOL    C5747595   5.810   3.499   1.858 -0.6700 -0.1236 -0.1049
  140MOL    C5847596   5.908   3.523   1.744 -0.4487  0.7092  0.1046
  140MOL    C5947597   5.910   3.388   1.671 -0.0359 -0.6593 -0.1133
  140MOL    O6047598   5.968   3.366   1.567 -0.6996  1.1081 -0.1834
  140MOL    H6147599   5.866   2.978   1.623 -0.7225 -0.1370 -0.1095
  140MOL    H6247600   5.953   3.109   1.543  0.6843 -3.5128 -0.4234
  140MOL    H6347601   5.722   3.129   1.740 -1.9703 -0.1712 -1.5990
  140MOL    H6447602   5.663   3.353   1.850 -0.5726  1.2276  2.6624
  140MOL    H6547603   5.805   3.311   1.949  0.4357  1.3669  1.0772
  140MOL    H6647604   5.723   3.564   1.842 -0.1172  0.8019  0.5961
  140MOL    H6747605   5.852   3.535   1.952 -0.0453  2.4150 -1.3198
  140MOL    H6847606   5.880   3.603   1.675 -0.5248  1.0683  0.5519
  140MOL    H6947607   6.009   3.543   1.781 -0.8676  0.4110  1.4114
  140MOL    C7047608   5.706   3.184   1.550  0.4372 -0.2506  0.2016
  140MOL    C7147609   5.591   3.292   1.563 -0.0739  0.2209  0.2109
  140MOL    N7247610   5.570   3.360   1.433 -0.6157 -0.0186  0.0099
  140MOL    C7347611   5.526   3.295   1.310  0.4140  0.1180  0.2888
  140MOL    C7447612   5.543   3.400   1.196 -0.5294 -0.0568 -0.3470
  140MOL    C7547613   5.593   3.535   1.263  0.3119  0.1592  0.6203
  140MOL    C7647614   5.601   3.491   1.409  0.1244 -0.0302 -0.4570
  140MOL    O7747615   5.627   3.579   1.493 -0.4710  0.2183  0.1321
  140MOL    H7847616   5.675   3.091   1.504 -2.1514  0.4113  0.5561
  140MOL    H7947617   5.772   3.228   1.475 -0.7966  1.9514  0.3729
  140MOL    H8047618   5.625   3.365   1.636 -0.3364  0.6104 -0.0593
  140MOL    H8147619   5.583   3.205   1.286 -0.7854 -0.7442  0.6126
  140MOL    H8247620   5.428   3.248   1.318  0.0880  0.5844 -0.8544
  140MOL    H8347621   5.611   3.353   1.125 -0.5511  1.6266 -1.5041
  140MOL    H8447622   5.440   3.407   1.162 -0.7942 -1.8240  0.0606
  140MOL    H8547623   5.689   3.562   1.219  0.4935  0.3035  1.0929
  140MOL    H8647624   5.516   3.612   1.271 -0.5122 -0.7404  1.5282
  140MOL    C8747625   5.460   3.244   1.624 -0.3618  0.3049 -0.2200
  140MOL    C8847626   5.344   3.352   1.649 -0.4077  0.2246 -0.4042
  140MOL    N8947627   5.211   3.284   1.656  0.1261 -0.4055  0.8950
  140MOL    C9047628   5.132   3.279   1.532 -1.0232  0.8346  0.4069
  140MOL    C9147629   5.022   3.177   1.549  0.3438  0.1714  0.3209
  140MOL    C9247630   5.047   3.127   1.690 -0.4143  0.4065  1.2202
  140MOL    C9347631   5.172   3.189   1.742 -0.1645 -0.0987  1.0744
  140MOL    O9447632   5.222   3.156   1.846 -0.8791 -0.3663 -0.5201
  140MOL    H9547633   5.475   3.183   1.713  0.8575  1.1162  0.1482
  140MOL    H9647634   5.418   3.181   1.545 -2.1706  0.7171  0.3841
  140MOL    H9747635   5.333   3.425   1.569 -0.1818  0.3688 -0.3051
  140MOL    H9847636   5.094   3.380   1.520 -2.8137  0.6730  3.8636
  140MOL    H9947637   5.193   3.250   1.447 -0.3692  2.5232  0.2989
  140MOL   H10047638   4.924   3.224   1.555  0.3069  0.6068 -2.6902
  140MOL   H10147639   5.017   3.098   1.474 -1.9832  0.4151  0.1897
  140MOL   H10247640   4.967   3.145   1.762  0.2246 -0.0772  2.0563
  140MOL   H10347641   5.068   3.020   1.694  2.9696  1.0409  1.4154
  140MOL   C10447642   5.358   3.439   1.774  0.2239 -0.4142  0.3042
  140MOL   C10547643   5.416   3.587   1.764 -0.0403 -0.1537  0.9169
  140MOL   N10647644   5.327   3.665   1.681 -0.4665 -0.8625  0.2098
  140MOL   C10747645   5.389   3.743   1.572  0.9608  0.0120  1.0596
  140MOL   C10847646   5.297   3.860   1.548 -0.7758 -0.2005 -0.4439
  140MOL   C10947647   5.164   3.812   1.599 -0.1174 -0.1770  0.4078
  140MOL   C11047648   5.196   3.689   1.678 -0.2330 -0.8522  0.6739
  140MOL   O11147649   5.110   3.629   1.741 -0.6968  0.0641  0.9476
  140MOL   H11247650   5.412   3.381   1.849  0.2435 -5.3226 -3.2675
  140MOL   H11347651   5.260   3.455   1.819 -0.9269  0.6474 -2.4667
  140MOL   H11447652   5.517   3.576   1.725 -0.1006 -0.2178  0.7750
  140MOL   H11547653   5.494   3.764   1.591  1.2415 -0.0242 -0.3971
  140MOL   H11647654   5.398   3.680   1.483  0.1174  1.1928  0.1235
  140MOL   H11747655   5.323   3.953   1.598  2.3559 -1.1261 -0.2074
  140MOL   H11847656   5.293   3.877   1.440  0.7208 -0.2716 -0.5214
  140MOL   H11947657   5.088   3.792   1.523  1.1960 -3.5951 -0.1191
  140MOL   H12047658   5.123   3.894   1.656  0.0500  1.3512 -1.6001
  140MOL   C12147659   5.411   3.642   1.906  0.4010 -0.7220 -0.1172
  140MOL   C12247660   5.463   3.785   1.922 -0.7051  0.0515  0.6212
  140MOL   N12347661   5.416   3.830   2.055  0.0475  0.0123 -0.5808
  140MOL   C12447662   5.279   3.886   2.068  0.3043  0.3388  0.1805
  140MOL   C12547663   5.255   3.909   2.221  0.5042  0.9308  0.5909
  140MOL   C12647664   5.391   3.865   2.287  0.3046  0.1220  0.2554
  140MOL   C12747665   5.475   3.815   2.176  0.5691 -0.7800  0.2867
  140MOL   O12847666   5.580   3.764   2.192 -0.3529  0.0610  0.2116
  140MOL   H12947667   5.475   3.573   1.962 -1.6328 -1.5551  1.2097
  140MOL   H13047668   5.311   3.642   1.948  0.1155 -2.2497 -0.7375
  140MOL   H13147669   5.416   3.840   1.841  0.2580  0.7138  0.4970
  140MOL   H13247670   5.207   3.816   2.026 -0.8656  1.2987  0.5868
  140MOL   H13347671   5.275   3.981   2.016  0.6400 -0.4685 -1.3463
  140MOL   H13447672   5.230   4.011   2.251 -1.8883  1.3640 -2.6299
  140MOL   H13547673   5.165   3.853   2.247 -0.3285  1.7062 -0.5859
  140MOL   H13647674   5.448   3.935   2.349  1.3109  0.7347 -1.3252
  140MOL   H13747675   5.360   3.778   2.345 -0.8598  1.4770  1.7078
  140MOL   C13847676   5.611   3.804   1.897 -0.5830 -0.2762  0.3279
  140MOL   C13947677   5.650   3.957   1.916  0.4589 -0.3948 -0.0177
  140MOL   N14047678   5.790   3.961   1.956  0.1754  0.4776 -0.2550
  140MOL   C14147679   5.818   4.009   2.092  0.0884  0.1944 -0.3800
  140MOL   C14247680   5.970   4.003   2.103  0.1396 -0.0991 -0.1857
  140MOL   C14347681   6.026   3.950   1.969  0.0044  0.0198  0.1880
  140MOL   C14447682   5.899   3.919   1.888 -0.5148 -0.1771 -0.5542
  140MOL   O14547683   5.905   3.874   1.780 -0.0728  0.0822  0.5488
  140MOL   H14647684   5.641   3.773   1.797 -0.5528  2.2957 -0.5172
  140MOL   H14747685   5.668   3.740   1.965 -1.9337 -2.8178 -0.8745
  140MOL   H14847686   5.596   3.998   2.001  1.9536 -0.2931  0.8849
  140MOL   H14947687   5.771   4.107   2.106  0.9721  0.8791 -2.1071
  140MOL   H15047688   5.763   3.948   2.164 -1.3345  0.1314 -1.4970
  140MOL   H15147689   5.997   4.107   2.121 -0.7951  0.7627 -3.5570
  140MOL   H15247690   5.994   3.942   2.191  1.7253  0.2072 -0.3797
  140MOL   H15347691   6.077   3.855   1.981  0.7929  0.3806 -0.2971
  140MOL   H15447692   6.091   4.029   1.930  1.1665 -1.3978 -0.7690
  140MOL   C15547693   5.618   4.039   1.781 -0.2227 -0.0595 -0.0429
  140MOL   C15647694   5.596   4.190   1.807  0.1366 -0.5785 -0.0274
  140MOL   N15747695   5.594   4.265   1.675 -0.1136  0.7134 -0.4120
  140MOL   C15847696   5.702   4.358   1.650 -0.1026 -0.6705  0.0522
  140MOL   C15947697   5.662   4.428   1.516 -0.5445 -0.0983 -0.1819
  140MOL   C16047698   5.527   4.364   1.470 -0.2890 -1.0838 -0.4026
  140MOL   C16147699   5.497   4.268   1.581 -0.1327  0.2644 -0.4565
  140MOL   O16247700   5.393   4.199   1.583 -0.1914 -1.3419  0.1829
  140MOL   H16347701   5.537   3.996   1.722 -1.2255  0.7145  0.7492
  140MOL   H16447702   5.695   4.019   1.707 -1.9818 -0.8856 -1.7065
  140MOL   H16547703   5.688   4.222   1.856 -0.5826  1.8582 -0.1673
  140MOL   H16647704   5.720   4.421   1.737  0.3750 -1.1816  0.3290
  140MOL   H16747705   5.795   4.304   1.633  0.5539  0.4245  0.0769
  140MOL   H16847706   5.660   4.536   1.533  3.0515  0.1467 -0.9490
  140MOL   H16947707   5.745   4.412   1.447  0.3339 -0.2318  0.8918
  140MOL   H17047708   5.446   4.436   1.478  0.3818 -0.4123  0.5466
  140MOL   H17147709   5.526   4.326   1.368  0.1870  0.1719 -0.8828
  140MOL   C17247710   5.471   4.218   1.895  0.8381  0.2934  0.1108
  140MOL   C17347711   5.432   4.355   1.943  0.4108 -0.1750  0.0252
  140MOL   N17447712   5.298   4.349   2.007  0.3559  0.0083  0.0074
  140MOL   C17547713   5.178   4.392   1.930 -0.1004 -0.6216 -1.0132
  140MOL   C17647714   5.069   4.391   2.027 -0.5220  0.4195  0.0603
  140MOL   C17747715   5.132   4.358   2.159  0.3177  0.0395 -0.0900
  140MOL   C17847716   5.268   4.312   2.131  0.1753 -0.4498 -0.0186
  140MOL   O17947717   5.336   4.265   2.214  0.5619 -0.4997  0.1465
  140MOL   H18047718   5.475   4.163   1.989 -0.2307 -1.7571 -1.0141
  140MOL   H18147719   5.385   4.175   1.843  1.0963 -1.8373  1.3749
  140MOL   H18247720   5.413   4.412   1.852  1.6223  1.3786  0.7196
  140MOL   H18347721   5.204   4.487   1.885  2.4252 -0.3926  0.8401
  140MOL   H18447722   5.153   4.323   1.848 -2.0251 -1.8267  0.5348
  140MOL   H18547723   4.994   4.317   2.000  0.2698  0.0731 -1.2995
  140MOL   H18647724   5.017   4.486   2.021 -1.9469 -0.3581 -0.0761
  140MOL   H18747725   5.155   4.439   2.227  1.0182  0.5117 -0.8633
  140MOL   H18847726   5.089   4.282   2.224 -0.0951  0.2257 -0.1479
  140MOL   C18947727   5.541   4.431   2.031  0.1141  0.1229 -0.8988
  140MOL   C19047728   5.501   4.565   2.092  0.0193 -0.4147 -0.2649
  140MOL   N19147729   5.599   4.610   2.187  0.6214 -0.6473  0.1943
  140MOL   C19247730   5.555   4.638   2.323  1.0977 -0.1284  0.0543
  140MOL   C19347731   5.675   4.622   2.416 -0.2397  0.0421 -0.5279
  140MOL   C19447732   5.790   4.608   2.317  0.1899  0.0085 -0.0354
  140MOL   C19547733   5.732   4.588   2.180 -0.4863  0.1799 -0.5225
  140MOL   O19647734   5.799   4.567   2.075  0.2890  0.0311 -0.0774
  140MOL   H19747735   5.618   4.461   1.959  0.1748 -1.4172 -1.5118
  140MOL   H19847736   5.593   4.365   2.100  1.2193  1.3109 -0.5836
  140MOL   H19947737   5.416   4.547   2.157  1.5583 -3.8746  0.9107
  140MOL   H20047738   5.505   4.734   2.331  1.3602  0.1056 -1.1178
  140MOL   H20147739   5.483   4.560   2.352  1.7557 -0.8759 -0.2954
  140MOL   H20247740   5.683   4.704   2.488  0.7572 -0.7142  0.2338
  140MOL   H20347741   5.663   4.531   2.476  0.4979 -1.6322 -2.8650
  140MOL   H20447742   5.857   4.692   2.302  0.4899 -0.4860 -1.5297
  140MOL   H20547743   5.846   4.517   2.339  2.9350  1.1492 -2.1327
  140MOL   C20647744   5.482   4.685   1.989  0.4584 -0.1378 -0.2033
  140MOL   C20747745   5.390   4.800   2.035  0.0435  0.3559  0.0463
  140MOL   N20847746   5.399   4.906   1.934 -0.2305 -0.6107  0.1686
  140MOL   C20947747   5.472   5.028   1.966 -0.6078 -0.3881  0.1269
  140MOL   C21047748   5.477   5.114   1.844 -0.1776  0.1336 -0.3920
  140MOL   C21147749   5.387   5.036   1.738 -0.4409  0.9028 -0.3677
  140MOL   C21247750   5.354   4.907   1.808 -0.3878  0.3141  0.6267
  140MOL   O21347751   5.300   4.815   1.747  0.1516  0.9016  0.0560
  140MOL   H21447752   5.430   4.643   1.902  0.7099  0.4812 -0.6588
  140MOL   H21547753   5.578   4.730   1.968  0.3550  0.8534  1.3577
  140MOL   H21647754   5.413   4.834   2.135 -1.0643 -2.7240  1.4263
  140MOL   H21747755   5.442   5.074   2.061 -0.8866  1.8683 -1.0230
  140MOL   H21847756   5.569   4.983   1.989 -1.4907 -1.9671  0.8651
  140MOL   H21947757   5.433   5.213   1.857 -1.5267 -0.2778 -1.5842
  140MOL   H22047758   5.568   5.130   1.787  1.0085  0.7476  1.6422
  140MOL   H22147759   5.295   5.094   1.736 -0.3143  1.4379  3.7668
  140MOL   H22247760   5.432   5.030   1.639 -0.5636 -0.4131 -0.3488
  140MOL   C22347761   5.243   4.761   2.050  0.6485  0.5273  0.1092
  140MOL   C22447762   5.163   4.849   2.154  0.5988  0.0607 -0.1906
  140MOL   N22547763   5.025   4.850   2.108 -0.7986  0.3794 -1.1311
  140MOL   C22647764   5.001   4.956   2.008  0.6769 -0.3176  0.7159
  140MOL   C22747765   4.885   4.899   1.924 -0.1971 -0.2766  0.6073
  140MOL   C22847766   4.832   4.771   1.996 -0.3222  0.2795  0.4709
  140MOL   C22947767   4.929   4.753   2.112  0.5165 -1.0052  0.0483
  140MOL   O23047768   4.929   4.652   2.179 -0.3861  0.7222 -0.2339
  140MOL   H23147769   5.237   4.657   2.082  2.2551  0.1178 -0.8628
  140MOL   H23247770   5.192   4.763   1.954  5.1215  1.4828 -2.3818
  140MOL   H23347771   5.192   4.953   2.138 -0.2102  0.4504  0.8732
  140MOL   H23447772   4.981   5.053   2.053 -2.0163 -0.5728  0.1743
  140MOL   H23547773   5.085   4.987   1.946  0.5551  0.2814  0.8421
  140MOL   H23647774   4.796   4.964   1.926  0.2256  0.3561 -0.6528
  140MOL   H23747775   4.925   4.862   1.830  0.0102  0.4669  0.3990
  140MOL   H23847776   4.731   4.779   2.035 -0.8047 -0.0112 -0.7097
  140MOL   H23947777   4.823   4.684   1.932  0.0587 -0.8973  1.9828
  140MOL   C24047778   5.189   4.808   2.297  1.1395 -0.0521  0.2482
  140MOL   C24147779   5.118   4.896   2.404  0.2986  0.0701 -0.2740
  140MOL   N24247780   5.132   4.830   2.536  0.6161  0.1068 -0.1062
  140MOL   C24347781   5.014   4.782   2.596 -0.3467 -0.2462  0.0159
  140MOL   C24447782   5.079   4.688   2.708  0.4954  0.2831 -0.2380
  140MOL   C24547783   5.225   4.729   2.727 -0.0306 -0.5898 -0.4511
  140MOL   C24647784   5.244   4.804   2.600 -0.0973  0.2656 -0.2545
  140MOL   O24747785   5.363   4.827   2.555 -0.3374 -0.5424 -0.6577
  140MOL   H24847786   5.295   4.821   2.319  0.6177  1.6638  1.9343
  140MOL   H24947787   5.160   4.705   2.318  0.2696  0.3163  0.8682
  140MOL   H25047788   5.014   4.910   2.375 -0.9943 -0.9216  3.5747
  140MOL   H25147789   4.963   4.869   2.636  1.3715  0.2152  1.2618
  140MOL   H25247790   4.961   4.725   2.519  0.7293 -1.1210 -0.1024
  140MOL   H25347791   5.027   4.683   2.804  0.4222 -1.1084 -0.3339
  140MOL   H25447792   5.069   4.586   2.671 -0.2439 -0.0800  0.9324
  140MOL   H25547793   5.255   4.799   2.805  0.9980  1.3804 -2.5642
  140MOL   H25647794   5.288   4.640   2.725 -0.7288 -1.1881  1.9736
  140MOL   C25747795   5.190   5.034   2.399  0.0504  0.2380  0.1979
  140MOL   C25847796   5.117   5.153   2.335  0.4209  0.6073 -0.2463
  140MOL   N25947797   4.984   5.183   2.393 -0.4861  0.0646  0.4883
  140MOL   C26047798   4.973   5.261   2.518 -0.4201  0.0251 -0.2235
  140MOL   C26147799   4.820   5.306   2.522  0.1734  0.1942 -0.1921
  140MOL   C26247800   4.751   5.222   2.420  0.2875 -0.0249  0.2842
  140MOL   C26347801   4.864   5.161   2.340  0.0295  0.1401  0.2263
  140MOL   O26447802   4.837   5.097   2.237  0.5815  0.0553  0.3725
  140MOL   H26547803   5.285   5.026   2.346 -0.0337  0.8049 -0.0536
  140MOL   H26647804   5.213   5.053   2.504  0.2104 -0.3470  0.2675
  140MOL   H26747805   5.097   5.132   2.229 -0.7594 -2.9187  0.6099
  140MOL   H26847806   5.003   5.200   2.603 -1.1491 -0.3286 -0.2129
  140MOL   H26947807   5.035   5.349   2.506  0.7124 -0.6558  0.6408
  140MOL   H27047808   4.771   5.299   2.619 -0.9658 -0.7080 -0.8100
  140MOL   H27147809   4.817   5.412   2.500  0.0627 -0.1651 -1.9993
  140MOL   H27247810   4.697   5.141   2.469  0.5919 -0.9920 -0.9528
  140MOL   H27347811   4.684   5.284   2.361  1.0564  0.0042 -0.5789
  140MOL   C27447812   5.219   5.276   2.334  0.1408 -0.1060  0.0063
  140MOL   C27547813   5.176   5.404   2.261 -0.3958 -0.1918 -0.0510
  140MOL   N27647814   5.252   5.516   2.315 -0.6019 -0.8677 -0.1639
  140MOL   C27747815   5.183   5.606   2.401  0.6125  0.2836 -0.0543
  140MOL   C27847816   5.286   5.707   2.442  0.0413  0.1197  0.4093
  140MOL   C27947817   5.423   5.637   2.422  0.4998 -0.3078 -0.4083
  140MOL   C28047818   5.385   5.541   2.313 -0.2535 -0.0405 -0.5221
  140MOL   O28147819   5.468   5.501   2.232 -0.3328 -0.2208  0.1527
  140MOL   H28247820   5.314   5.233   2.299 -0.1880 -0.5249 -0.3886
  140MOL   H28347821   5.237   5.304   2.438 -2.5102  0.2257  0.4006
  140MOL   H28447822   5.072   5.422   2.287 -0.2949 -0.9552  0.9158
  140MOL   H28547823   5.095   5.658   2.362 -0.8754 -2.0010  0.1196
  140MOL   H28647824   5.152   5.551   2.490 -1.9624  0.1063 -1.0151
  140MOL   H28747825   5.280   5.789   2.371  0.6170  1.1264  1.5012
  140MOL   H28847826   5.270   5.751   2.541  2.9352  1.4966  0.3156
  140MOL   H28947827   5.503   5.708   2.398 -0.0417 -0.1355 -1.7549
  140MOL   H29047828   5.465   5.573   2.499 -0.0829  1.0499  1.0546
  140MOL   C29147829   5.205   5.391   2.103 -0.8450  0.6177 -0.5417
  140MOL   C29247830   5.106   5.471   2.012  0.0939  0.1454 -0.3739
  140MOL   N29347831   4.960   5.429   2.012 -0.1770  0.0808  0.5682
  140MOL   C29447832   4.909   5.344   1.909 -0.3824  0.1387 -0.0047
  140MOL   C29547833   4.762   5.322   1.936  0.3464 -0.2317 -0.2683
  140MOL   C29647834   4.729   5.404   2.066  0.5891  0.5274  0.7186
  140MOL   C29747835   4.863   5.470   2.100  0.0539  0.9514 -0.3276
  140MOL   O29847836   4.876   5.542   2.197  0.0537  0.1310  0.0529
  140MOL   H29947837   5.183   5.288   2.076 -0.4406  0.2449  0.5100
  140MOL   H30047838   5.311   5.393   2.081 -0.7250  0.6122  0.0196
  140MOL   H30147839   5.140   5.449   1.911  2.0862 -0.4475  0.3971
  140MOL   H30247840   4.935   5.374   1.807 -3.2226 -0.0420 -0.8159
  140MOL   H30347841   4.965   5.251   1.924  0.1198  0.4277 -0.0984
  140MOL   H30447842   4.701   5.372   1.860  2.7210  2.7675 -0.2695
  140MOL   H30547843   4.752   5.213   1.937 -0.5161 -0.1670 -1.0602
  140MOL   H30647844   4.658   5.486   2.058  1.8657  1.5821 -0.1789
  140MOL   H30747845   4.705   5.324   2.136  0.4350  0.3359  0.4470
  140MOL   C30847846   5.124   5.619   2.019 -0.5710 -0.9167  0.1584
  140MOL   C30947847   5.258   5.677   1.972 -0.8389 -0.7705 -0.0183
  140MOL   N31047848   5.283   5.637   1.832  0.7364 -0.1083 -0.1762
  140MOL   C31147849   5.392   5.548   1.798  0.1507 -0.4326 -0.4088
  140MOL   C31247850   5.395   5.537   1.648  0.0920  0.7834  0.3358
  140MOL   C31347851   5.276   5.617   1.599  0.5761  0.2272  0.6478
  140MOL   C31447852   5.220   5.685   1.723 -0.7720 -0.3600 -0.5672
  140MOL   O31547853   5.143   5.778   1.719  0.6276 -0.2666  0.1423
  140MOL   H31647854   5.111   5.648   2.123  2.6949  1.6597 -0.0878
  140MOL   H31747855   5.052   5.665   1.952 -0.0764 -1.2714 -0.6297
  140MOL   H31847856   5.338   5.622   2.022 -0.2998 -0.7498 -0.8613
  140MOL   H31947857   5.485   5.580   1.845  0.0781 -1.4298  0.4405
  140MOL   H32047858   5.370   5.451   1.844  0.1469 -0.5563 -0.6691
  140MOL   H32147859   5.487   5.588   1.621  0.7482 -0.7030 -0.2872
  140MOL   H32247860   5.393   5.430   1.626  2.5072  1.1682 -1.9532
  140MOL   H32347861   5.315   5.699   1.540  1.6561 -0.3971  0.4747
  140MOL   H32447862   5.213   5.552   1.538  1.3768 -0.3673  0.4400
  140MOL   C32547863   5.272   5.827   2.003  0.2348 -0.5918  0.0305
  140MOL   C32647864   5.409   5.893   1.970 -0.8387 -0.0656 -0.0181
  140MOL   N32747865   5.510   5.873   2.075  0.0409 -0.5653 -0.0498
  140MOL   C32847866   5.498   5.949   2.195  0.0315  0.2128 -0.0317
  140MOL   C32947867   5.642   5.937   2.255  1.1958 -0.4567  0.0628
  140MOL   C33047868   5.701   5.811   2.189  0.3472  0.1055 -0.3254
  140MOL   C33147869   5.620   5.799   2.065  0.7240 -0.0659 -0.0759
  140MOL   O33247870   5.650   5.729   1.967  0.4030 -0.6201 -0.6410
  140MOL   H33347871   5.249   5.844   2.108  0.2155 -0.8303  0.0657
  140MOL   H33447872   5.205   5.883   1.937  0.4689 -2.4391 -1.8128
  140MOL   H33547873   5.394   6.001   1.973  1.2699  0.3331 -2.3584
  140MOL   H33647874   5.462   6.051   2.186  0.3362  0.2185 -1.2899
  140MOL   H33747875   5.429   5.892   2.258 -1.8824  1.5706 -0.8402
  140MOL   H33847876   5.697   6.028   2.233 -0.0544  0.1033 -0.8629
  140MOL   H33947877   5.642   5.921   2.363  1.2217 -2.5514 -0.2338
  140MOL   H34047878   5.802   5.827   2.150  1.2131 -1.0223  1.4275
  140MOL   H34147879   5.701   5.721   2.250 -1.6212 -1.0931 -1.9843
  140MOL   H34247880   5.438   5.865   1.869 -0.6652  1.4392 -0.3848
  141MOL     C147881   7.425   1.483   3.951 -0.7143 -0.0222 -0.2810
  141MOL     C247882   7.503   1.444   3.820  0.8393  0.3822 -0.1355
  141MOL     N347883   7.490   1.296   3.793 -0.3142  0.3096  0.0710
  141MOL     C447884   7.616   1.228   3.755  0.5540 -0.5851 -0.2287
  141MOL     C547885   7.573   1.086   3.720 -0.0357  0.0073 -0.1509
  141MOL     C647886   7.425   1.078   3.745 -0.0337  0.4801  0.2982
  141MOL     C747887   7.383   1.221   3.773 -0.4293  0.5427 -0.9758
  141MOL     O847888   7.267   1.260   3.783  0.1075  0.0850  0.1617
  141MOL     H947889   7.492   1.492   4.036 -3.4366 -1.3285  2.1210
  141MOL    H1047890   7.379   1.582   3.945  0.1910  0.4176  0.0009
  141MOL    H1147891   7.608   1.473   3.823  0.7831  0.5917 -0.2417
  141MOL    H1247892   7.673   1.274   3.674 -2.1027  0.2745 -1.6940
  141MOL    H1347893   7.692   1.223   3.832 -1.4180  2.5639  2.0246
  141MOL    H1447894   7.601   1.052   3.620 -1.4306 -0.4285 -0.4082
  141MOL    H1547895   7.620   1.015   3.787  1.1709  0.4475 -0.5248
  141MOL    H1647896   7.374   1.049   3.653  1.4528  0.6574 -0.5913
  141MOL    H1747897   7.401   1.016   3.832  1.8764  0.1525  0.6139
  141MOL    H1847898   7.350   1.408   3.977  0.7138 -0.8229  1.5899
  141MOL    C1947899   7.440   1.521   3.699 -0.2338 -0.1812  0.4305
  141MOL    C2047900   7.437   1.680   3.705 -0.0314 -0.3862 -0.4758
  141MOL    N2147901   7.566   1.734   3.740 -0.0231 -0.4888 -0.0843
  141MOL    C2247902   7.576   1.830   3.851  0.0542  0.1666  0.4965
  141MOL    C2347903   7.732   1.839   3.885  0.2549  0.2092  0.8701
  141MOL    C2447904   7.799   1.768   3.764  0.0151  0.2942  0.2200
  141MOL    C2547905   7.688   1.713   3.688  0.9205  0.3122  0.9200
  141MOL    O2647906   7.708   1.651   3.584 -0.1775  0.0392 -0.4821
  141MOL    H2747907   7.340   1.483   3.679  0.3707 -1.2758 -0.5385
  141MOL    H2847908   7.494   1.487   3.611 -0.3221 -1.4724  0.8671
  141MOL    H2947909   7.365   1.711   3.780  3.0659 -3.0406  3.8360
  141MOL    H3047910   7.531   1.921   3.814 -1.2581 -0.8597 -0.4478
  141MOL    H3147911   7.533   1.791   3.943 -0.7726 -2.9388 -1.1551
  141MOL    H3247912   7.755   1.945   3.892 -6.9229  1.9216  2.8430
  141MOL    H3347913   7.748   1.788   3.980  0.1099 -2.0317 -0.2737
  141MOL    H3447914   7.861   1.828   3.698  0.2025  2.9197  2.6766
  141MOL    H3547915   7.858   1.686   3.806 -1.1505  0.1106  1.5429
  141MOL    C3647916   7.388   1.726   3.563  0.7267 -0.0601 -0.6099
  141MOL    C3747917   7.269   1.826   3.562  0.2124 -0.0050  0.1755
  141MOL    N3847918   7.292   1.951   3.639  0.1355  0.6502  0.4469
  141MOL    C3947919   7.194   1.995   3.736  0.1962  0.0047  0.1687
  141MOL    C4047920   7.247   2.134   3.784  0.1358 -0.2773  0.5261
  141MOL    C4147921   7.378   2.160   3.715 -0.4783  0.6367  0.0330
  141MOL    C4247922   7.382   2.045   3.617 -0.0317 -0.6580  0.5638
  141MOL    O4347923   7.449   2.046   3.517 -0.2659 -0.2317 -0.0888
  141MOL    H4447924   7.355   1.635   3.514  1.0980 -2.5217  3.4486
  141MOL    H4547925   7.470   1.766   3.503  1.6873 -0.9054  0.1136
  141MOL    H4647926   7.192   1.777   3.621 -0.4633 -0.6167 -1.1975
  141MOL    H4747927   7.098   2.006   3.684  0.5858 -0.6492 -0.6994
  141MOL    H4847928   7.166   1.931   3.819  0.8215  0.5335  0.7948
  141MOL    H4947929   7.179   2.218   3.767  2.8698  1.9435  0.2850
  141MOL    H5047930   7.275   2.119   3.888 -1.5711 -2.4084  0.7178
  141MOL    H5147931   7.370   2.253   3.659 -0.0147  2.7426  3.3291
  141MOL    H5247932   7.463   2.150   3.783  0.3202  2.9613 -0.5823
  141MOL    C5347933   7.219   1.857   3.419  0.6456  0.9036 -0.0020
  141MOL    C5447934   7.155   1.745   3.337 -0.2016  0.0083 -0.4959
  141MOL    N5547935   7.054   1.672   3.411 -0.0757  0.1026 -0.1186
  141MOL    C5647936   7.031   1.530   3.378  0.4881 -0.3835  0.3269
  141MOL    C5747937   6.910   1.495   3.460 -0.9685  0.1280  0.2518
  141MOL    C5847938   6.860   1.615   3.535  0.4663  0.1333 -0.1911
  141MOL    C5947939   6.951   1.727   3.486  0.0193  0.8538 -0.1870
  141MOL    O6047940   6.935   1.839   3.521  0.0490  0.3179 -0.1151
  141MOL    H6147941   7.309   1.903   3.379  1.8156  0.9201  2.5464
  141MOL    H6247942   7.146   1.938   3.428  1.3705  1.2442  4.1939
  141MOL    H6347943   7.229   1.666   3.323  0.2502  0.3680 -0.1667
  141MOL    H6447944   7.007   1.522   3.272 -0.7601 -1.1656  0.6626
  141MOL    H6547945   7.123   1.477   3.403  1.4704  1.1077 -0.0158
  141MOL    H6647946   6.839   1.438   3.400 -0.5665  0.7357 -0.8152
  141MOL    H6747947   6.948   1.421   3.531 -1.4807 -0.1039  0.2840
  141MOL    H6847948   6.755   1.637   3.513 -1.1113 -1.9765  4.4929
  141MOL    H6947949   6.862   1.599   3.643  0.0307 -0.4551 -0.2710
  141MOL    C7047950   7.104   1.803   3.204  0.4267  0.1591 -1.0510
  141MOL    C7147951   7.209   1.854   3.113  0.0219 -0.9482 -0.1818
  141MOL    N7247952   7.287   1.747   3.046  0.0433 -0.0520 -0.1521
  141MOL    C7347953   7.422   1.720   3.087  0.2370  0.9775  0.0869
  141MOL    C7447954   7.467   1.597   3.006 -0.4534 -0.0221 -0.3712
  141MOL    C7547955   7.353   1.558   2.909  0.4585  0.0658 -0.0874
  141MOL    C7647956   7.246   1.658   2.952  0.3569 -0.9332 -0.4886
  141MOL    O7747957   7.133   1.661   2.896  0.1712 -0.5190  0.3860
  141MOL    H7847958   7.036   1.887   3.221 -0.3656 -0.1817 -2.4443
  141MOL    H7947959   7.052   1.726   3.148  1.8564 -1.3463 -0.3496
  141MOL    H8047960   7.283   1.901   3.176 -0.5481 -1.8732  1.2148
  141MOL    H8147961   7.482   1.811   3.075  0.9588  0.6185  0.9080
  141MOL    H8247962   7.438   1.692   3.191  0.7896  1.4386  0.1310
  141MOL    H8347963   7.544   1.639   2.942 -1.7890  1.3669 -1.0850
  141MOL    H8447964   7.507   1.519   3.072 -3.9488 -0.7881  0.9624
  141MOL    H8547965   7.383   1.576   2.806 -0.0711  2.2544  0.1095
  141MOL    H8647966   7.311   1.459   2.925 -0.2108  0.5339  1.0900
  141MOL    C8747967   7.145   1.953   3.007  0.0218  0.2738 -0.1403
  141MOL    C8847968   7.110   2.096   3.054  0.5795 -0.0458 -0.3118
  141MOL    N8947969   7.233   2.165   3.096  0.2035  0.3526 -0.2173
  141MOL    C9047970   7.266   2.193   3.242  0.2609 -0.1583  0.2817
  141MOL    C9147971   7.404   2.263   3.244  0.7558  0.0679  0.2909
  141MOL    C9247972   7.436   2.265   3.092  0.6315  0.3514 -0.2147
  141MOL    C9347973   7.323   2.208   3.014 -0.3070  1.0246  0.7398
  141MOL    O9447974   7.326   2.205   2.889 -0.1822  0.2547 -0.1905
  141MOL    H9547975   7.056   1.906   2.964  1.0018 -1.8118  0.0748
  141MOL    H9647976   7.212   1.962   2.921 -0.2140 -0.9843 -0.4685
  141MOL    H9747977   7.064   2.084   3.152  0.6468 -0.8901 -0.3851
  141MOL    H9847978   7.191   2.258   3.286  1.4051  1.3173  0.0955
  141MOL    H9947979   7.272   2.095   3.290  1.2084  0.3784  1.2726
  141MOL   H10047980   7.401   2.362   3.290 -0.5686 -0.5414  1.5470
  141MOL   H10147981   7.473   2.196   3.294  1.3851  0.5687  0.1023
  141MOL   H10247982   7.479   2.360   3.060  2.0106  0.3828  1.6110
  141MOL   H10347983   7.521   2.200   3.072  1.5091  1.3657  0.1150
  141MOL   C10447984   7.012   2.182   2.960  1.2042  0.1859  0.4575
  141MOL   C10547985   6.948   2.300   3.038 -0.5228  0.1285 -0.1634
  141MOL   N10647986   6.956   2.429   2.968  0.5343  0.1044 -0.0798
  141MOL   C10747987   7.042   2.540   3.017  0.1816  0.1574 -0.3065
  141MOL   C10847988   7.029   2.651   2.915 -0.2835  0.1092  0.3270
  141MOL   C10947989   6.918   2.597   2.814 -0.3026 -0.3559  0.4009
  141MOL   C11047990   6.900   2.451   2.851 -0.1639  0.3854  0.1769
  141MOL   O11147991   6.866   2.364   2.767 -0.0854 -0.5119 -0.3274
  141MOL   H11247992   6.931   2.120   2.922  1.1466  1.5098 -1.6512
  141MOL   H11347993   7.059   2.228   2.873  0.2291  2.0500  0.9048
  141MOL   H11447994   7.004   2.312   3.131 -0.0920 -0.8093 -0.2940
  141MOL   H11547995   7.008   2.578   3.113 -0.7037 -1.3020 -0.0282
  141MOL   H11647996   7.145   2.513   3.044 -0.2130  0.9424  2.0165
  141MOL   H11747997   6.999   2.742   2.966 -1.0634  0.7137 -1.1603
  141MOL   H11847998   7.119   2.672   2.858  0.8381  0.3519  2.1607
  141MOL   H11947999   6.961   2.610   2.714  1.6534  1.9219  1.4775
  141MOL   H12048000   6.827   2.656   2.817 -1.6610 -2.3431 -0.1863
  141MOL   C12148001   6.804   2.269   3.074  0.1550 -0.0567  0.3233
  141MOL   C12248002   6.772   2.194   3.212  0.0926 -0.5499  0.1881
  141MOL   N12348003   6.818   2.268   3.325 -0.2164  0.8254 -0.2709
  141MOL   C12448004   6.866   2.175   3.433  0.3615 -1.0720 -0.0441
  141MOL   C12548005   6.881   2.260   3.556 -0.0912 -0.1132  0.4768
  141MOL   C12648006   6.865   2.401   3.509  0.0011 -0.3761  0.9246
  141MOL   C12748007   6.823   2.395   3.357  0.4016  0.5986 -1.0072
  141MOL   O12848008   6.798   2.499   3.294 -0.2606  0.0848 -0.1351
  141MOL   H12948009   6.758   2.218   2.989  3.1492 -2.5408  0.0963
  141MOL   H13048010   6.751   2.364   3.085 -1.0981 -0.6861 -0.1910
  141MOL   H13148011   6.829   2.102   3.197 -0.0956 -0.3187 -1.9954
  141MOL   H13248012   6.967   2.142   3.406 -0.2916 -2.6455 -0.6097
  141MOL   H13348013   6.798   2.091   3.444 -1.5919  0.4829 -0.0537
  141MOL   H13448014   6.803   2.232   3.627 -2.0340  0.2401 -1.4778
  141MOL   H13548015   6.973   2.243   3.612 -0.1401 -0.8825  0.3175
  141MOL   H13648016   6.768   2.434   3.547 -0.2274  0.9219 -0.7001
  141MOL   H13748017   6.952   2.466   3.517  0.0244 -0.4021  0.8737
  141MOL   C13848018   6.623   2.149   3.224 -0.1233  0.0528  0.5715
  141MOL   C13948019   6.565   2.058   3.107 -0.4216  0.0006  0.5136
  141MOL   N14048020   6.641   1.927   3.094  0.2417 -0.1112 -0.2673
  141MOL   C14148021   6.723   1.897   2.981  0.0881 -0.1013  0.2645
  141MOL   C14248022   6.778   1.757   3.000  0.4220 -0.3380 -0.3067
  141MOL   C14348023   6.744   1.718   3.144  0.0596 -0.1049  0.4987
  141MOL   C14448024   6.655   1.831   3.186  0.1085  0.3376 -0.6989
  141MOL   O14548025   6.601   1.842   3.296 -0.2479  0.7839  0.4143
  141MOL   H14648026   6.570   2.244   3.218 -1.7312 -0.8860 -0.3759
  141MOL   H14748027   6.605   2.100   3.320 -1.5358  1.4594  1.0411
  141MOL   H14848028   6.593   2.105   3.013 -0.2891 -0.4408  0.3303
  141MOL   H14948029   6.671   1.904   2.885 -0.5951 -0.6135  0.5908
  141MOL   H15048030   6.806   1.967   2.985 -1.1221  1.3548  0.2448
  141MOL   H15148031   6.739   1.681   2.933  0.1804 -1.0875  0.6748
  141MOL   H15248032   6.886   1.771   2.987  0.2534  0.1089 -1.2312
  141MOL   H15348033   6.837   1.707   3.200 -0.0697  0.2234  0.7831
  141MOL   H15448034   6.690   1.624   3.157 -0.5753  0.2474  0.4486
  141MOL   C15548035   6.411   2.047   3.114  0.3771  0.0590 -0.7494
  141MOL   C15648036   6.355   2.013   2.972  0.0855 -0.5010 -0.3334
  141MOL   N15748037   6.370   1.874   2.926  0.0379  0.7005 -0.0412
  141MOL   C15848038   6.379   1.850   2.783  0.6135 -0.2394 -0.2519
  141MOL   C15948039   6.410   1.695   2.761  0.7687  0.6079 -0.0077
  141MOL   C16048040   6.379   1.630   2.892  0.0137 -0.6164 -0.0645
  141MOL   C16148041   6.362   1.751   2.989 -0.1630 -0.1147  0.1621
  141MOL   O16248042   6.341   1.731   3.105 -0.2899 -0.1194  0.8575
  141MOL   H16348043   6.368   2.140   3.152 -0.4237 -0.6452  0.1056
  141MOL   H16448044   6.391   1.969   3.187 -2.3775  1.8466  0.4972
  141MOL   H16548045   6.413   2.071   2.900  0.8974 -0.5111  0.3077
  141MOL   H16648046   6.299   1.891   2.721  1.2601  1.1856 -0.1760
  141MOL   H16748047   6.464   1.907   2.746  0.3968  0.6360  0.5777
  141MOL   H16848048   6.340   1.665   2.682  0.9454  1.7630 -0.6321
  141MOL   H16948049   6.514   1.682   2.731  1.5897  2.9281  1.6665
  141MOL   H17048050   6.286   1.573   2.881  0.9677 -1.7897 -2.5827
  141MOL   H17148051   6.460   1.562   2.920 -0.4654 -1.8653 -1.6244
  141MOL   C17248052   6.215   2.082   2.965  0.5121  0.0319  0.3570
  141MOL   C17348053   6.113   2.009   3.056 -0.2193  0.0933 -0.4515
  141MOL   N17448054   6.098   2.062   3.197 -0.0300  0.3771 -0.9041
  141MOL   C17548055   6.089   1.972   3.308  0.3134  0.3026 -0.0790
  141MOL   C17648056   6.113   2.051   3.431  0.0331 -0.3587 -0.4244
  141MOL   C17748057   6.086   2.199   3.388  0.4236 -0.2245 -0.0116
  141MOL   C17848058   6.084   2.193   3.238 -0.0540  0.4537  0.5360
  141MOL   O17948059   6.070   2.287   3.163 -0.6019  0.2532  0.0474
  141MOL   H18048060   6.170   2.092   2.866 -0.1232  0.6628  0.7001
  141MOL   H18148061   6.217   2.188   2.989 -0.7888  0.3478 -0.8103
  141MOL   H18248062   6.136   1.903   3.050 -0.4845 -0.0262  0.6114
  141MOL   H18348063   5.986   1.935   3.319  0.0887  0.4529 -1.5231
  141MOL   H18448064   6.164   1.893   3.302 -1.1506 -1.3103  1.8964
  141MOL   H18548065   6.217   2.044   3.461 -0.0870  1.6623  0.5251
  141MOL   H18648066   6.049   2.020   3.514 -0.3127 -1.4104 -1.0764
  141MOL   H18748067   5.996   2.243   3.431 -0.7813  0.3168 -2.9295
  141MOL   H18848068   6.172   2.260   3.414 -0.3788  0.0338  2.1067
  141MOL   C18948069   5.974   1.995   2.985 -0.0884 -0.0584 -0.9874
  141MOL   C19048070   5.877   1.888   3.048 -0.9177  0.2319  0.4138
  141MOL   N19148071   5.745   1.890   2.973  0.5037 -0.4638 -0.5861
  141MOL   C19248072   5.645   1.982   3.026  0.3300 -0.7768 -0.1862
  141MOL   C19348073   5.530   1.978   2.920 -0.6188 -0.2650 -0.1015
  141MOL   C19448074   5.566   1.861   2.833 -0.0086  0.2078 -0.6047
  141MOL   C19548075   5.712   1.833   2.855 -0.0267  0.0686 -0.0604
  141MOL   O19648076   5.774   1.758   2.783 -0.8769 -0.4384 -0.0725
  141MOL   H19748077   5.984   1.971   2.880  0.5807  1.8876 -1.3840
  141MOL   H19848078   5.921   2.089   2.994 -0.0519 -0.1436  0.2025
  141MOL   H19948079   5.852   1.918   3.150 -1.1684  0.2822  0.3388
  141MOL   H20048080   5.616   1.944   3.123  3.2204  1.2656  1.5383
  141MOL   H20148081   5.685   2.084   3.026 -1.0476 -0.2038 -1.4880
  141MOL   H20248082   5.440   1.947   2.972 -0.5678 -1.4375 -0.7001
  141MOL   H20348083   5.515   2.066   2.857  0.7349  0.1200  0.0978
  141MOL   H20448084   5.509   1.773   2.862 -0.1421  0.7669  0.9172
  141MOL   H20548085   5.550   1.884   2.728  1.8038  0.0212 -0.9372
  141MOL   C20648086   5.935   1.736   3.052  0.3794 -0.6021 -0.4376
  141MOL   C20748087   5.834   1.629   3.089 -0.3963  0.2427  0.1790
  141MOL   N20848088   5.913   1.502   3.068 -0.2383 -0.3198  0.4010
  141MOL   C20948089   5.877   1.429   2.948  0.7808 -0.1593 -0.1509
  141MOL   C21048090   5.943   1.294   2.969 -0.3046  0.0731 -0.2685
  141MOL   C21148091   6.031   1.304   3.091  0.1682  0.1575 -0.0274
  141MOL   C21248092   5.991   1.435   3.153 -0.5444  0.7295 -0.0914
  141MOL   O21348093   6.017   1.470   3.267  0.1430 -0.2862 -0.0836
  141MOL   H21448094   6.015   1.735   3.126  0.4635  0.5984 -0.4980
  141MOL   H21548095   5.980   1.711   2.956 -0.7120  0.9517 -1.3653
  141MOL   H21648096   5.753   1.633   3.016  0.6913  3.2759 -0.9268
  141MOL   H21748097   5.770   1.419   2.931  0.2311  0.4227  2.7048
  141MOL   H21848098   5.924   1.476   2.861 -1.0473  0.0077 -1.0795
  141MOL   H21948099   5.868   1.215   2.975  1.1195 -1.2926 -0.0129
  141MOL   H22048100   5.996   1.270   2.876  0.4894  1.3005 -0.1554
  141MOL   H22148101   6.024   1.220   3.160 -1.3627 -0.4443 -0.8788
  141MOL   H22248102   6.131   1.308   3.047 -0.6494 -0.7612 -2.0639
  141MOL   C22348103   5.779   1.658   3.234 -0.0001 -0.0110  0.3863
  141MOL   C22448104   5.668   1.563   3.292 -0.1629  0.6123  0.0673
  141MOL   N22548105   5.615   1.621   3.420 -0.1029  0.4199  0.0414
  141MOL   C22648106   5.639   1.537   3.539  0.1471 -0.4176  0.1924
  141MOL   C22748107   5.582   1.626   3.657  0.1856  0.2141  0.0215
  141MOL   C22848108   5.505   1.738   3.591  0.4645  0.1196  0.5251
  141MOL   C22948109   5.549   1.732   3.447 -0.3969 -0.3349  0.2797
  141MOL   O23048110   5.524   1.820   3.368  0.4876  0.1394  0.2230
  141MOL   H23148111   5.737   1.758   3.230  0.3521  0.1935  1.6176
  141MOL   H23248112   5.864   1.670   3.301  1.6286  0.7931 -1.7384
  141MOL   H23348113   5.708   1.462   3.304  0.0702  0.5273 -1.3716
  141MOL   H23448114   5.584   1.445   3.519 -0.1490  0.1517 -1.7188
  141MOL   H23548115   5.744   1.511   3.556 -0.5166 -3.2983  0.2303
  141MOL   H23648116   5.525   1.570   3.732  0.9597  0.5382  0.8600
  141MOL   H23748117   5.666   1.678   3.702  0.9222  0.0908 -1.1892
  141MOL   H23848118   5.398   1.721   3.581  0.2775  2.3941 -1.6715
  141MOL   H23948119   5.515   1.834   3.640 -0.2225  1.0759 -1.1669
  141MOL   C24048120   5.559   1.547   3.186 -0.3944  0.2110  0.3054
  141MOL   C24148121   5.436   1.466   3.234  0.4029 -0.0533 -0.2599
  141MOL   N24248122   5.313   1.518   3.168 -0.5701 -0.0444  0.4519
  141MOL   C24348123   5.214   1.577   3.255  0.4774 -0.3477 -0.8271
  141MOL   C24448124   5.089   1.589   3.165  0.4210  0.7869  0.2747
  141MOL   C24548125   5.132   1.556   3.027  0.0679  0.3466 -0.0608
  141MOL   C24648126   5.277   1.520   3.040 -0.2417 -0.7950  0.1480
  141MOL   O24748127   5.357   1.507   2.945  0.3120  0.1087 -0.6091
  141MOL   H24848128   5.602   1.511   3.092  0.4122 -0.3783  0.9013
  141MOL   H24948129   5.529   1.649   3.162 -0.4374 -0.0728 -0.9157
  141MOL   H25048130   5.433   1.476   3.343  2.5652  0.9622 -0.2625
  141MOL   H25148131   5.196   1.520   3.346  0.3085  0.2104 -0.5137
  141MOL   H25248132   5.263   1.667   3.292 -0.4798 -0.8402  1.7112
  141MOL   H25348133   5.016   1.527   3.217  2.6061  0.4536  3.1046
  141MOL   H25448134   5.044   1.688   3.175 -1.2626  0.1498 -0.7647
  141MOL   H25548135   5.074   1.472   2.989 -0.2996  0.7587 -0.4229
  141MOL   H25648136   5.114   1.644   2.965 -2.2247 -1.2936 -1.7776
  141MOL   C25748137   5.463   1.317   3.186 -0.4289  0.2349 -0.5458
  141MOL   C25848138   5.345   1.221   3.225  0.6211  0.0946  0.0799
  141MOL   N25948139   5.376   1.090   3.163 -0.4185  0.7317 -0.1802
  141MOL   C26048140   5.296   1.044   3.046  0.0551 -0.5726  0.0682
  141MOL   C26148141   5.361   0.915   3.003  0.4114 -0.0988  0.2289
  141MOL   C26248142   5.472   0.885   3.103  0.3006 -0.0468 -0.0376
  141MOL   C26348143   5.481   1.010   3.184  0.5622 -0.2643 -0.0238
  141MOL   O26448144   5.561   1.018   3.282 -0.2390  0.5680  0.4249
  141MOL   H26548145   5.559   1.274   3.216 -1.2249 -0.9397  0.3571
  141MOL   H26648146   5.471   1.318   3.078  0.9368 -0.1659 -0.4622
  141MOL   H26748147   5.252   1.255   3.181 -0.5417 -3.0361  0.0037
  141MOL   H26848148   5.193   1.021   3.076 -0.5130  3.2572  1.2544
  141MOL   H26948149   5.303   1.132   2.982  0.1851 -0.7614 -0.1776
  141MOL   H27048150   5.297   0.827   2.993  0.3096 -0.2577  2.1805
  141MOL   H27148151   5.402   0.921   2.902 -1.0301 -2.3634 -0.5492
  141MOL   H27248152   5.449   0.803   3.171 -1.9895 -1.0813 -1.9962
  141MOL   H27348153   5.568   0.861   3.055  0.4658  0.0705  0.2341
  141MOL   C27448154   5.324   1.213   3.376  0.7102 -0.8886  0.5943
  141MOL   C27548155   5.223   1.099   3.426  0.0662  0.3517 -0.4277
  141MOL   N27648156   5.260   1.054   3.562  0.0731 -0.4579  0.2912
  141MOL   C27748157   5.293   0.916   3.583  0.1665 -0.2621 -0.9470
  141MOL   C27848158   5.336   0.897   3.725 -0.4493  0.1691 -0.4046
  141MOL   C27948159   5.335   1.040   3.789  0.2648 -0.4918 -0.2626
  141MOL   C28048160   5.287   1.129   3.671 -0.9081  0.8642 -0.3563
  141MOL   O28148161   5.277   1.249   3.678 -0.4953 -0.0758 -0.0169
  141MOL   H28248162   5.297   1.313   3.412  4.3168 -0.7027  3.0619
  141MOL   H28348163   5.424   1.211   3.418  0.5263  4.1869  1.6027
  141MOL   H28448164   5.241   1.014   3.360  0.0118  1.2654 -1.6295
  141MOL   H28548165   5.202   0.858   3.570  1.4673 -2.8415  0.8736
  141MOL   H28648166   5.369   0.885   3.511  0.9421 -0.9647  0.1374
  141MOL   H28748167   5.261   0.832   3.772  0.2733 -0.7199 -0.4547
  141MOL   H28848168   5.429   0.841   3.738 -0.8130  0.1296  2.3756
  141MOL   H28948169   5.274   1.050   3.878  3.0051 -3.3486  2.0948
  141MOL   H29048170   5.434   1.077   3.818 -1.2520  1.9872  1.9143
  141MOL   C29148171   5.076   1.142   3.402  0.3743  1.1609 -0.5184
  141MOL   C29248172   4.961   1.044   3.448 -0.3846 -0.5133  0.0571
  141MOL   N29348173   4.934   1.047   3.593 -0.4098  0.2263  0.0124
  141MOL   C29448174   4.911   1.175   3.667  0.0486 -0.7331  0.8455
  141MOL   C29548175   4.913   1.131   3.818  0.4896  0.0186 -0.4119
  141MOL   C29648176   4.960   0.982   3.818 -0.5148  0.2291  0.6458
  141MOL   C29748177   4.946   0.941   3.669 -0.3717 -0.5456 -1.0839
  141MOL   O29848178   4.954   0.824   3.635  0.0163  0.1996 -0.4570
  141MOL   H29948179   5.068   1.147   3.293 -3.4351  3.0894 -0.2415
  141MOL   H30048180   5.059   1.243   3.437  0.9249  1.2051 -0.3715
  141MOL   H30148181   5.008   0.951   3.415 -0.9824 -1.0118  0.6077
  141MOL   H30248182   4.987   1.250   3.648 -1.4368  0.1500 -1.9521
  141MOL   H30348183   4.823   1.236   3.643  2.5426  2.6348 -0.0517
  141MOL   H30448184   4.984   1.180   3.884 -0.9899 -0.1551  1.3773
  141MOL   H30548185   4.815   1.137   3.866  0.6726 -1.6507  0.2123
  141MOL   H30648186   5.068   0.974   3.836 -0.4818  1.1662  0.8834
  141MOL   H30748187   4.907   0.910   3.880 -2.6073  1.5359  0.3946
  141MOL   C30848188   4.830   1.056   3.371 -0.0326 -0.7633 -0.1958
  141MOL   C30948189   4.784   0.930   3.291 -0.1348  0.3159 -0.2544
  141MOL   N31048190   4.640   0.952   3.243  0.5745 -0.3338 -0.2191
  141MOL   C31148191   4.538   0.865   3.296  0.1257  0.4100 -0.4833
  141MOL   C31248192   4.406   0.929   3.245  0.3480 -0.7808 -0.3101
  141MOL   C31348193   4.453   1.055   3.161 -0.3645  0.1706  0.3989
  141MOL   C31448194   4.599   1.054   3.169  0.3235  0.1548 -0.3880
  141MOL   O31548195   4.670   1.134   3.109 -0.2398 -0.4756  0.6553
  141MOL   H31648196   4.826   1.150   3.316  0.2960 -1.2601 -1.0827
  141MOL   H31748197   4.756   1.074   3.448 -0.2100  0.9107 -0.7313
  141MOL   H31848198   4.786   0.842   3.355  1.8577 -0.4825 -1.3691
  141MOL   H31948199   4.532   0.759   3.271 -1.4032  0.5348 -0.6876
  141MOL   H32048200   4.534   0.876   3.404 -0.7982  1.5987 -0.6316
  141MOL   H32148201   4.366   0.853   3.178  0.6076 -0.8099 -0.4347
  141MOL   H32248202   4.339   0.961   3.324  0.4250  1.1415 -0.9950
  141MOL   H32348203   4.426   1.053   3.055  1.0245  3.7847 -0.0685
  141MOL   H32448204   4.411   1.146   3.203  0.1975 -0.0566  1.4861
  141MOL   C32548205   4.885   0.886   3.176  0.1857  0.1945 -0.6255
  141MOL   C32648206   4.859   0.762   3.095  0.1039  0.4482 -0.5611
  141MOL   N32748207   4.969   0.724   3.007 -0.4922 -0.0854  0.6278
  141MOL   C32848208   4.970   0.769   2.866  0.1176 -0.5075 -0.4671
  141MOL   C32948209   5.076   0.685   2.801  0.0610 -0.0049 -0.3174
  141MOL   C33048210   5.146   0.601   2.912 -0.5251 -0.5550 -0.0116
  141MOL   C33148211   5.071   0.641   3.038  0.3167 -0.0541  0.5512
  141MOL   O33248212   5.096   0.598   3.150  0.5298  0.0858 -0.2142
  141MOL   H33348213   4.983   0.865   3.218 -0.7489  1.0742  2.0787
  141MOL   H33448214   4.925   0.968   3.117  1.3183  0.1378  0.0448
  141MOL   H33548215   4.764   0.771   3.042 -2.5497  0.4094  3.9897
  141MOL   H33648216   4.870   0.766   2.823  0.3002  0.4210 -0.9760
  141MOL   H33748217   5.005   0.872   2.878 -2.7954  0.5668 -0.6245
  141MOL   H33848218   5.018   0.620   2.736 -0.4475 -2.2986  2.3193
  141MOL   H33948219   5.152   0.730   2.737 -1.1557  0.4141 -1.4750
  141MOL   H34048220   5.131   0.495   2.889  0.4677 -0.8192  0.5572
  141MOL   H34148221   5.251   0.626   2.924 -0.5470  0.4003 -1.6956
  141MOL   H34248222   4.845   0.679   3.164  1.3695 -0.6960 -1.6484
  142MOL     C148223   5.013   0.489   1.463  0.0516 -0.8782 -0.2240
  142MOL     C248224   4.986   0.374   1.569  0.2834 -0.6493 -0.2567
  142MOL     N348225   5.104   0.288   1.588 -0.1306  0.4537 -0.6867
  142MOL     C448226   5.105   0.135   1.595  0.0668 -0.2231 -0.3847
  142MOL     C548227   5.238   0.092   1.662 -0.6860 -0.2870 -0.4740
  142MOL     C648228   5.314   0.224   1.683 -0.5045 -1.0632 -0.1406
  142MOL     C748229   5.228   0.336   1.624  0.2285 -0.0300  0.3395
  142MOL     O848230   5.258   0.457   1.639  0.3548 -0.4020 -0.0658
  142MOL     H948231   4.920   0.537   1.434  0.7440 -0.7329 -2.2466
  142MOL    H1048232   5.066   0.574   1.506 -1.8302 -0.1357  0.6765
  142MOL    H1148233   4.903   0.319   1.526  0.1121 -1.9676  1.6938
  142MOL    H1248234   5.018   0.117   1.659  0.3710  1.7061  0.6147
  142MOL    H1348235   5.075   0.079   1.506  0.2962  0.9287 -1.2052
  142MOL    H1448236   5.227   0.045   1.760 -0.2749 -1.0221 -0.7800
  142MOL    H1548237   5.306   0.037   1.598  0.3289 -0.7143  0.9350
  142MOL    H1648238   5.329   0.241   1.789 -0.5965 -1.4453 -0.0652
  142MOL    H1748239   5.408   0.230   1.628 -0.7814  0.5934 -0.4643
  142MOL    H1848240   5.074   0.453   1.380 -0.4969 -1.7845 -0.2394
  142MOL    C1948241   4.943   0.424   1.706  0.3399  0.9488 -0.6667
  142MOL    C2048242   4.802   0.485   1.726  0.1796 -0.1117 -0.4562
  142MOL    N2148243   4.686   0.394   1.687 -0.0752 -0.2613  0.1276
  142MOL    C2248244   4.568   0.455   1.619 -0.1580  0.5230  0.4644
  142MOL    C2348245   4.481   0.329   1.597  0.4883 -0.5057  0.3503
  142MOL    C2448246   4.522   0.226   1.696  0.4108  0.2483 -0.3588
  142MOL    C2548247   4.666   0.271   1.727  0.4328  0.5690  0.1407
  142MOL    O2648248   4.747   0.197   1.778  0.2825  0.1877  0.4574
  142MOL    H2748249   5.017   0.494   1.745 -1.0380  2.1398 -0.1486
  142MOL    H2848250   4.945   0.339   1.774 -0.4553  1.4971  0.0640
  142MOL    H2948251   4.803   0.563   1.651  1.2390  2.1169  1.8217
  142MOL    H3048252   4.530   0.532   1.686 -2.5873  0.3671 -0.7232
  142MOL    H3148253   4.599   0.504   1.527  2.6591  1.3634  1.7925
  142MOL    H3248254   4.376   0.353   1.583  1.3935  3.2145 -0.7042
  142MOL    H3348255   4.497   0.291   1.496  0.5638  0.8183 -0.1490
  142MOL    H3448256   4.467   0.221   1.790 -1.4373  1.1388 -1.3590
  142MOL    H3548257   4.516   0.126   1.654  0.0186 -0.4149  1.2211
  142MOL    C3648258   4.773   0.549   1.863  0.1606 -0.8475  0.1515
  142MOL    C3748259   4.866   0.665   1.908  0.6311 -0.2040  0.2482
  142MOL    N3848260   4.866   0.791   1.834  0.0247  0.1200  0.4650
  142MOL    C3948261   4.993   0.862   1.815  0.9067  0.7903 -0.9723
  142MOL    C4048262   4.969   0.985   1.732 -0.2658 -0.2896  0.5106
  142MOL    C4148263   4.814   0.988   1.710 -0.8349 -0.0490  0.5081
  142MOL    C4248264   4.771   0.854   1.765  0.4243 -0.2061  0.0034
  142MOL    O4348265   4.651   0.812   1.757 -0.3839  0.0508  0.1393
  142MOL    H4448266   4.788   0.472   1.938  0.3335  0.0433  1.0448
  142MOL    H4548267   4.672   0.588   1.874  1.0914  2.1910 -1.5159
  142MOL    H4648268   4.971   0.637   1.902  0.2262 -1.2063 -2.9802
  142MOL    H4748269   5.023   0.878   1.919 -1.6372  0.2954 -0.1411
  142MOL    H4848270   5.064   0.798   1.763 -0.1862  0.3584 -1.9424
  142MOL    H4948271   5.008   1.064   1.796  1.3722  0.1930 -1.0328
  142MOL    H5048272   5.028   0.983   1.641  0.7217  1.9645  1.0782
  142MOL    H5148273   4.765   1.072   1.759  0.5255  1.0151  0.0429
  142MOL    H5248274   4.788   0.983   1.604 -0.1712 -1.8060  0.4021
  142MOL    C5348275   4.845   0.699   2.058  0.1287  0.7420 -0.2904
  142MOL    C5448276   4.888   0.596   2.159 -0.8762 -0.3906 -0.3565
  142MOL    N5548277   5.007   0.515   2.129  0.8204 -0.2087 -0.1591
  142MOL    C5648278   4.996   0.372   2.134 -0.1064 -0.1994  0.6126
  142MOL    C5748279   5.126   0.314   2.076 -0.3625  0.4558 -0.1966
  142MOL    C5848280   5.223   0.429   2.078  0.1501  0.3455  0.2104
  142MOL    C5948281   5.133   0.552   2.091 -0.6042  0.3031  0.2239
  142MOL    O6048282   5.169   0.671   2.069 -0.1671  0.3413 -0.0383
  142MOL    H6148283   4.745   0.736   2.080  0.2173  0.6042  0.3539
  142MOL    H6248284   4.908   0.787   2.072  0.2513  0.6991 -0.5731
  142MOL    H6348285   4.805   0.529   2.181 -1.4850  0.5708  0.3487
  142MOL    H6448286   4.990   0.361   2.242  0.2958 -0.7409  0.5796
  142MOL    H6548287   4.910   0.320   2.091  1.0913 -0.1231 -1.9568
  142MOL    H6648288   5.154   0.226   2.133 -0.5047  0.3209 -0.3359
  142MOL    H6748289   5.098   0.286   1.974  2.9059  2.9681 -1.8882
  142MOL    H6848290   5.292   0.426   2.162  0.7821  1.9674 -0.2487
  142MOL    H6948291   5.279   0.426   1.985  3.0657  0.0128  1.9000
  142MOL    C7048292   4.910   0.673   2.298  0.1135 -0.0512 -0.7299
  142MOL    C7148293   4.792   0.744   2.354  0.2374 -0.1739 -0.2482
  142MOL    N7248294   4.676   0.651   2.389 -0.2532  0.1976 -0.2548
  142MOL    C7348295   4.544   0.672   2.331  0.4137  0.3135  0.0819
  142MOL    C7448296   4.451   0.589   2.414  0.0144 -0.1414  0.3249
  142MOL    C7548297   4.540   0.512   2.510  0.6186  0.0937 -0.4014
  142MOL    C7648298   4.681   0.559   2.487  0.0156  0.5346  0.2462
  142MOL    O7748299   4.777   0.517   2.550 -0.1004  0.0951 -0.4794
  142MOL    H7848300   4.985   0.750   2.280 -1.4790  1.7515  0.1807
  142MOL    H7948301   4.953   0.596   2.362  0.0455  0.2089 -0.3689
  142MOL    H8048302   4.748   0.813   2.283 -1.8045  0.6647  1.7745
  142MOL    H8148303   4.517   0.777   2.333 -1.0195  0.0011 -1.7657
  142MOL    H8248304   4.554   0.627   2.232  4.1344 -0.5681  0.7699
  142MOL    H8348305   4.393   0.646   2.487  0.4633  0.0194  0.5573
  142MOL    H8448306   4.386   0.529   2.351 -0.4854 -0.0682  0.7623
  142MOL    H8548307   4.518   0.523   2.616  1.9143  0.8375 -0.2036
  142MOL    H8648308   4.533   0.404   2.495 -0.6820  0.3152 -1.5073
  142MOL    C8748309   4.841   0.823   2.482 -0.0064 -0.2861 -0.1757
  142MOL    C8848310   4.922   0.957   2.464  0.3317 -0.1498  0.2911
  142MOL    N8948311   4.870   1.037   2.353 -0.1177 -0.5875 -0.8521
  142MOL    C9048312   4.949   1.082   2.242 -0.0249 -0.0691  0.1343
  142MOL    C9148313   4.863   1.181   2.156  0.3134  0.1709  0.0328
  142MOL    C9248314   4.735   1.204   2.237  0.1915 -0.0330  0.1195
  142MOL    C9348315   4.750   1.103   2.350  0.0784 -0.2328 -0.3034
  142MOL    O9448316   4.661   1.084   2.432 -0.2281 -0.3587 -0.0866
  142MOL    H9548317   4.889   0.751   2.548 -0.5809  0.8778  1.5454
  142MOL    H9648318   4.754   0.862   2.533  0.3573 -0.0179  0.2434
  142MOL    H9748319   5.017   0.928   2.422  0.5438  1.4582 -0.3594
  142MOL    H9848320   5.040   1.128   2.282 -0.8951 -0.2762  2.4254
  142MOL    H9948321   4.971   0.991   2.186  0.3561 -0.5124  0.9840
  142MOL   H10048322   4.914   1.276   2.143 -0.3373  0.5104 -0.0750
  142MOL   H10148323   4.848   1.148   2.053 -0.2883 -0.9981  0.4764
  142MOL   H10248324   4.721   1.310   2.261 -2.4572 -0.2700 -0.1842
  142MOL   H10348325   4.651   1.177   2.173  1.0559 -0.9124 -0.6573
  142MOL   C10448326   4.929   1.041   2.599  0.0180  0.6507  0.7602
  142MOL   C10548327   5.038   1.149   2.604  0.0319 -0.2246 -0.1090
  142MOL   N10648328   4.994   1.239   2.715 -0.1192 -0.0298  0.5693
  142MOL   C10748329   4.952   1.372   2.675  0.5211  1.1102 -0.2585
  142MOL   C10848330   4.879   1.430   2.795  0.6569 -0.3166  0.0168
  142MOL   C10948331   4.864   1.318   2.899 -0.1280 -0.3734  0.9204
  142MOL   C11048332   4.955   1.208   2.839  0.3328 -0.0047  0.2192
  142MOL   O11148333   4.988   1.115   2.913  0.3433  0.8457 -0.6009
  142MOL   H11248334   4.937   0.967   2.679 -0.6788 -0.6648 -0.3747
  142MOL   H11348335   4.828   1.079   2.615 -1.6525 -2.2425 -2.3926
  142MOL   H11448336   5.024   1.202   2.510 -2.1592 -1.9219 -0.8033
  142MOL   H11548337   5.038   1.438   2.663  1.4736  0.2321  1.4087
  142MOL   H11648338   4.881   1.370   2.593  0.0493  1.0811  0.1505
  142MOL   H11748339   4.931   1.517   2.836 -2.7029  1.9816 -0.3942
  142MOL   H11848340   4.789   1.469   2.746  1.8534  1.9965 -0.4310
  142MOL   H11948341   4.761   1.282   2.892  0.1643 -1.0678  0.0863
  142MOL   H12048342   4.896   1.340   3.000  0.6486  3.1562 -0.0022
  142MOL   C12148343   5.178   1.095   2.633 -0.4551 -0.0395  0.2002
  142MOL   C12248344   5.292   1.201   2.600  0.6881 -0.1930  0.4010
  142MOL   N12348345   5.416   1.179   2.667 -0.5765 -0.1713 -0.1331
  142MOL   C12448346   5.484   1.293   2.730 -0.5904  0.3034  0.1580
  142MOL   C12548347   5.626   1.243   2.765  0.4055  0.6471  0.8049
  142MOL   C12648348   5.620   1.087   2.754  0.8284  0.4406 -0.0377
  142MOL   C12748349   5.486   1.064   2.677  0.0781  0.2343 -0.1381
  142MOL   O12848350   5.444   0.951   2.642  0.7278  0.6637 -0.5820
  142MOL   H12948351   5.195   1.002   2.579  0.0449 -0.5638  1.2432
  142MOL   H13048352   5.183   1.079   2.741 -0.5218 -1.6254 -0.0146
  142MOL   H13148353   5.260   1.294   2.646  2.6460  0.7374 -0.0520
  142MOL   H13248354   5.435   1.332   2.820 -0.5347  0.9159 -0.0727
  142MOL   H13348355   5.501   1.376   2.661 -0.2795 -3.0734 -4.0226
  142MOL   H13448356   5.693   1.285   2.690 -0.9859  1.8214  0.2005
  142MOL   H13548357   5.659   1.265   2.867  0.3114 -2.0386  1.4647
  142MOL   H13648358   5.709   1.052   2.701 -1.1364 -2.7834 -1.3327
  142MOL   H13748359   5.618   1.030   2.847  0.8640  0.2147 -0.1762
  142MOL   C13848360   5.322   1.231   2.449  0.3175  0.4880  0.4569
  142MOL   C13948361   5.322   1.383   2.419  0.2842  0.0407 -0.8096
  142MOL   N14048362   5.418   1.429   2.316  0.7214  1.1189 -0.8504
  142MOL   C14148363   5.522   1.523   2.351 -0.3889  0.0544  0.1176
  142MOL   C14248364   5.611   1.544   2.230  0.1162 -0.1119 -0.0071
  142MOL   C14348365   5.561   1.445   2.127  0.1247  0.4626 -0.5449
  142MOL   C14448366   5.432   1.394   2.188  0.2927 -0.8539  0.0326
  142MOL   O14548367   5.345   1.342   2.122  0.1417  0.1466 -0.2214
  142MOL   H14648368   5.244   1.183   2.389  2.2530 -2.1792 -0.0126
  142MOL   H14748369   5.418   1.188   2.423 -0.1527 -0.9560  1.0284
  142MOL   H14848370   5.346   1.439   2.510 -0.6194  1.1495 -1.2468
  142MOL   H14948371   5.475   1.616   2.380  1.7609  1.3529 -0.4548
  142MOL   H15048372   5.579   1.493   2.439 -0.6455  1.0478  0.6203
  142MOL   H15148373   5.588   1.642   2.188  3.5105  0.4264 -0.7323
  142MOL   H15248374   5.718   1.543   2.250  0.3671  2.3210 -0.9835
  142MOL   H15348375   5.635   1.366   2.116  0.8302  1.0493 -0.0383
  142MOL   H15448376   5.536   1.484   2.029  0.5863  0.0923 -0.8127
  142MOL   C15548377   5.182   1.426   2.373 -0.6519 -0.0672  0.2880
  142MOL   C15648378   5.162   1.578   2.356  0.5799  0.0050 -0.8396
  142MOL   N15748379   5.049   1.609   2.267 -0.2029  0.0588 -0.1919
  142MOL   C15848380   5.077   1.657   2.134 -0.0109 -0.3953 -0.6842
  142MOL   C15948381   4.938   1.686   2.077 -0.6930 -0.3354  0.1025
  142MOL   C16048382   4.836   1.639   2.172  0.3274  0.1417  0.2869
  142MOL   C16148383   4.918   1.593   2.289  0.5703 -0.1007 -0.7560
  142MOL   O16248384   4.864   1.543   2.388  0.8494  0.1067  0.2851
  142MOL   H16348385   5.117   1.380   2.447 -1.1750  0.0943 -0.0745
  142MOL   H16448386   5.152   1.376   2.281  0.1419  0.2561 -0.1572
  142MOL   H16548387   5.251   1.614   2.303  2.2408  0.4096  2.1398
  142MOL   H16648388   5.137   1.748   2.142  1.1091 -0.9351 -2.5925
  142MOL   H16748389   5.140   1.583   2.085  2.1294  2.0025 -1.6858
  142MOL   H16848390   4.940   1.795   2.062 -0.6919 -0.5269 -1.4368
  142MOL   H16948391   4.935   1.643   1.977  4.3597 -0.4576 -0.1131
  142MOL   H17048392   4.763   1.707   2.213  1.5759  0.8023  1.4406
  142MOL   H17148393   4.779   1.550   2.145 -2.5468  1.2856  2.3545
  142MOL   C17248394   5.142   1.646   2.493  0.3785  0.1549  0.1971
  142MOL   C17348395   5.129   1.804   2.476  0.5274 -0.1276 -0.3471
  142MOL   N17448396   5.060   1.860   2.597 -0.5366 -0.7126  0.7235
  142MOL   C17548397   4.933   1.916   2.584  0.1662 -0.4752 -0.6201
  142MOL   C17648398   4.901   1.977   2.726  0.2757  0.4339 -0.4564
  142MOL   C17748399   5.013   1.927   2.819  0.4403  0.4976  0.1140
  142MOL   C17848400   5.107   1.848   2.725 -0.8535  0.1580  0.0772
  142MOL   O17948401   5.208   1.797   2.763  0.1276  0.0764  0.3691
  142MOL   H18048402   5.229   1.623   2.554  1.5824  0.9929 -1.1745
  142MOL   H18148403   5.052   1.605   2.538 -0.3067  0.3551 -0.9607
  142MOL   H18248404   5.063   1.832   2.393 -0.8869  0.8212  1.0676
  142MOL   H18348405   4.928   1.994   2.508 -1.8234 -1.3185 -1.3625
  142MOL   H18448406   4.861   1.838   2.562  1.2603 -1.7061  0.0542
  142MOL   H18548407   4.802   1.955   2.766  0.7192  1.2220  1.1275
  142MOL   H18648408   4.918   2.084   2.711  1.0825  0.3438 -0.2130
  142MOL   H18748409   5.055   2.012   2.872  0.2168  0.1880  0.8021
  142MOL   H18848410   4.977   1.848   2.886 -0.9391  1.1293  0.1486
  142MOL   C18948411   5.271   1.864   2.451 -0.4276 -0.2969 -0.4302
  142MOL   C19048412   5.270   2.019   2.423 -0.2617 -0.5556 -0.9083
  142MOL   N19148413   5.411   2.074   2.417  0.1701  0.1353  0.9250
  142MOL   C19248414   5.462   2.173   2.508 -0.3457  0.1212  0.0095
  142MOL   C19348415   5.608   2.204   2.462  0.0571 -0.6736  0.5710
  142MOL   C19448416   5.617   2.147   2.317  0.4700  0.7129  0.4011
  142MOL   C19548417   5.501   2.049   2.321 -0.4127 -0.5639 -0.1736
  142MOL   O19648418   5.494   1.961   2.233 -0.6114 -0.0114 -0.1829
  142MOL   H19748419   5.319   1.807   2.372  0.7057  1.2659 -0.8843
  142MOL   H19848420   5.335   1.850   2.538  2.5713  1.5303 -2.2845
  142MOL   H19948421   5.229   2.048   2.520  3.2588  2.4232 -0.2078
  142MOL   H20048422   5.408   2.266   2.490 -1.2032 -0.3731  0.0134
  142MOL   H20148423   5.470   2.132   2.609  0.8554  0.0920 -0.0970
  142MOL   H20248424   5.626   2.312   2.467  0.0317 -0.7578  2.8420
  142MOL   H20348425   5.681   2.150   2.522  1.5479  0.4748 -0.1505
  142MOL   H20448426   5.612   2.221   2.238  0.0971 -0.5349 -0.7597
  142MOL   H20548427   5.705   2.082   2.307 -0.8900 -1.0505 -0.3597
  142MOL   C20648428   5.185   2.069   2.305 -0.1097  0.3165 -0.2582
  142MOL   C20748429   5.186   2.217   2.277 -0.5586  0.3114  0.1858
  142MOL   N20848430   5.143   2.243   2.141  0.0792 -0.1534 -0.2380
  142MOL   C20948431   5.236   2.324   2.058 -0.0886  0.2375  0.5273
  142MOL   C21048432   5.150   2.359   1.934  0.0904  0.5584  0.1272
  142MOL   C21148433   5.024   2.261   1.943 -0.1277  0.1976  0.0588
  142MOL   C21248434   5.035   2.206   2.081  0.6558  0.2275  0.1241
  142MOL   O21348435   4.948   2.137   2.129  0.5271 -0.0753  0.3195
  142MOL   H21448436   5.079   2.043   2.309  0.1665 -0.7470  0.1632
  142MOL   H21548437   5.215   2.009   2.220 -0.4330 -1.8437  1.1227
  142MOL   H21648438   5.289   2.250   2.285 -0.8160  1.4012 -0.9244
  142MOL   H21748439   5.286   2.404   2.112 -0.2989 -0.2594  1.4654
  142MOL   H21848440   5.325   2.264   2.036 -0.8617 -0.9248  0.5267
  142MOL   H21948441   5.115   2.462   1.932  4.1095  2.0151 -4.6301
  142MOL   H22048442   5.201   2.327   1.843  0.1568 -2.6245  1.2267
  142MOL   H22148443   4.928   2.313   1.935 -0.3134  0.0971  1.4694
  142MOL   H22248444   5.023   2.178   1.872  0.5057 -0.4529  0.7946
  142MOL   C22348445   5.097   2.291   2.382 -0.2438  0.8814 -0.8712
  142MOL   C22448446   5.103   2.445   2.369 -0.4800 -0.2181 -0.6386
  142MOL   N22548447   4.988   2.513   2.421  1.2699 -0.1982 -0.2098
  142MOL   C22648448   4.898   2.586   2.333 -0.8139 -0.2217 -0.2164
  142MOL   C22748449   4.776   2.617   2.423  0.1798  0.1979 -0.3857
  142MOL   C22848450   4.818   2.577   2.569 -0.3809  0.0253 -0.8985
  142MOL   C22948451   4.951   2.508   2.552 -0.4269 -0.9294  0.0665
  142MOL   O23048452   5.015   2.450   2.641  0.2395  0.5000  0.1019
  142MOL   H23148453   5.130   2.272   2.484 -2.2864  0.0179 -0.3545
  142MOL   H23248454   5.002   2.240   2.372  1.6784 -2.5476 -2.4568
  142MOL   H23348455   5.102   2.468   2.262  0.5948 -1.0407 -0.8396
  142MOL   H23448456   4.942   2.682   2.305  0.7083 -1.3406 -1.7888
  142MOL   H23548457   4.878   2.524   2.245 -0.4747 -1.9655  0.9128
  142MOL   H23648458   4.761   2.724   2.414  0.3511  0.5837  3.2251
  142MOL   H23748459   4.684   2.570   2.388  1.2172 -1.2316 -1.3063
  142MOL   H23848460   4.817   2.666   2.632 -0.1747 -0.1335 -0.6702
  142MOL   H23948461   4.744   2.508   2.609  0.6563 -0.8153 -0.4227
  142MOL   C24048462   5.230   2.509   2.417 -0.0070  0.1845 -1.0204
  142MOL   C24148463   5.268   2.658   2.371  0.1106 -0.5718  0.0366
  142MOL   N24248464   5.368   2.710   2.462 -0.3310  0.3457  0.4902
  142MOL   C24348465   5.330   2.798   2.563  0.3174 -0.4556  0.2039
  142MOL   C24448466   5.464   2.853   2.613  0.2639  0.0938 -0.5367
  142MOL   C24548467   5.576   2.760   2.564 -0.0957  0.1428  0.4361
  142MOL   C24648468   5.498   2.681   2.467  0.8344  0.1026  0.5017
  142MOL   O24748469   5.554   2.610   2.389 -1.5886  0.2602 -0.2893
  142MOL   H24848470   5.313   2.444   2.389  0.3026  0.6673 -1.2227
  142MOL   H24948471   5.226   2.516   2.526 -2.8852 -0.5572 -1.0258
  142MOL   H25048472   5.175   2.708   2.398  0.6581  0.3281  0.2808
  142MOL   H25148473   5.258   2.874   2.533  1.7392  0.7169 -0.2816
  142MOL   H25248474   5.280   2.721   2.622  1.5821 -0.2522  1.5665
  142MOL   H25348475   5.477   2.954   2.574  0.8454 -0.7807 -2.6762
  142MOL   H25448476   5.461   2.868   2.721  1.3874 -1.2684 -0.2904
  142MOL   H25548477   5.654   2.824   2.521 -1.0894  1.0239 -0.0800
  142MOL   H25648478   5.623   2.701   2.642  0.9265 -1.0084 -1.0216
  142MOL   C25748479   5.291   2.698   2.223 -0.2556 -0.9784 -0.3374
  142MOL   C25848480   5.282   2.853   2.210 -0.6866 -0.2618  0.1801
  142MOL   N25948481   5.352   2.889   2.082 -0.2166  0.6364  0.2094
  142MOL   C26048482   5.470   2.984   2.101  0.0014 -0.0591  0.4338
  142MOL   C26148483   5.506   3.015   1.955 -0.7602 -0.3037 -0.8473
  142MOL   C26248484   5.430   2.914   1.865  0.3115  0.2714  0.3510
  142MOL   C26348485   5.331   2.842   1.958  0.4283 -1.0026  0.0686
  142MOL   O26448486   5.243   2.765   1.912  0.1715  0.2390  0.4278
  142MOL   H26548487   5.224   2.633   2.167  0.2830 -2.6895  0.9455
  142MOL   H26648488   5.393   2.672   2.195 -0.2512 -2.2339  0.7699
  142MOL   H26748489   5.331   2.903   2.294 -0.4657  1.4504 -0.9353
  142MOL   H26848490   5.438   3.075   2.152 -0.7614  0.1334 -0.3743
  142MOL   H26948491   5.545   2.927   2.155 -0.0648 -0.1440  0.4370
  142MOL   H27048492   5.483   3.117   1.926  1.6114  0.0034 -1.7449
  142MOL   H27148493   5.614   3.013   1.939 -0.7673  3.3523 -1.6571
  142MOL   H27248494   5.386   2.977   1.788  1.9067  0.8616 -0.1053
  142MOL   H27348495   5.505   2.856   1.812  0.3752 -0.4400  1.2140
  142MOL   C27448496   5.135   2.905   2.215  0.1011 -0.2858  0.1112
  142MOL   C27548497   5.124   3.052   2.198 -0.4219 -0.2300 -0.5129
  142MOL   N27648498   4.982   3.097   2.164 -0.6503 -0.0929  0.2485
  142MOL   C27748499   4.958   3.172   2.038  0.0156  1.1225 -0.3354
  142MOL   C27848500   4.809   3.198   2.034 -0.6598  1.0316  0.1204
  142MOL   C27948501   4.750   3.139   2.167  0.5919  0.0647  0.5951
  142MOL   C28048502   4.868   3.061   2.223 -0.7935  0.0664 -0.1031
  142MOL   O28148503   4.853   2.982   2.309 -0.1171  0.1265  0.2940
  142MOL   H28248504   5.082   2.862   2.300 -0.1394  1.5377  0.9145
  142MOL   H28348505   5.089   2.847   2.134 -1.0521 -1.5302  1.6284
  142MOL   H28448506   5.179   3.088   2.111 -2.6457  0.4834 -1.6572
  142MOL   H28548507   5.020   3.261   2.028 -0.1745  1.5482  2.1594
  142MOL   H28648508   4.986   3.101   1.961  1.6991 -0.2106  1.4779
  142MOL   H28748509   4.782   3.300   2.010 -0.4172  0.8386 -0.9769
  142MOL   H28848510   4.777   3.146   1.944 -0.8636 -0.1496  0.8537
  142MOL   H28948511   4.733   3.213   2.245  3.9673  1.5197  0.0634
  142MOL   H29048512   4.663   3.073   2.165  1.8057 -1.5543  0.0434
  142MOL   C29148513   5.162   3.119   2.333  0.0540  0.2115 -0.1289
  142MOL   C29248514   5.229   3.249   2.320 -0.8711 -0.5189 -0.3808
  142MOL   N29348515   5.143   3.353   2.258  0.1471 -0.3733  0.3955
  142MOL   C29448516   5.186   3.416   2.132 -0.1976  0.3511  0.5277
  142MOL   C29548517   5.092   3.537   2.121  1.1593  0.0018  0.3362
  142MOL   C29648518   4.976   3.518   2.222  0.7669 -0.4613  0.9339
  142MOL   C29748519   5.029   3.410   2.308 -0.6144  0.6805 -0.4648
  142MOL   O29848520   4.988   3.387   2.418 -0.1277  0.2789  0.4939
  142MOL   H29948521   5.223   3.056   2.398 -1.6575 -0.5326  0.7745
  142MOL   H30048522   5.071   3.125   2.392  1.6370 -4.4346  3.1083
  142MOL   H30148523   5.313   3.244   2.250 -1.3015  1.7752 -1.1321
  142MOL   H30248524   5.288   3.452   2.151  0.1583 -0.3132 -0.1012
  142MOL   H30348525   5.207   3.349   2.049 -1.5708 -0.0878  0.5321
  142MOL   H30448526   5.151   3.625   2.146  1.1553  0.2140 -0.3930
  142MOL   H30548527   5.052   3.551   2.021 -0.7115 -1.0488  0.9114
  142MOL   H30648528   4.944   3.612   2.268  0.9534 -0.5933  1.3310
  142MOL   H30748529   4.886   3.476   2.177  0.7567  0.4456  0.0882
  142MOL   C30848530   5.280   3.301   2.457 -0.1908 -0.0560 -0.1284
  142MOL   C30948531   5.424   3.267   2.497 -0.0139 -0.2095 -0.1444
  142MOL   N31048532   5.516   3.324   2.400  0.1455  0.1545 -0.2555
  142MOL   C31148533   5.621   3.231   2.354 -0.8142  0.0269 -0.1337
  142MOL   C31248534   5.689   3.291   2.229 -0.0389 -0.1007  0.2707
  142MOL   C31348535   5.641   3.442   2.236  0.2277 -0.3252 -0.0896
  142MOL   C31448536   5.525   3.445   2.340 -0.3665  0.0810  0.7076
  142MOL   O31548537   5.451   3.543   2.353 -0.0542  0.3803 -0.6468
  142MOL   H31648538   5.208   3.263   2.530 -0.8155  0.3585 -0.5339
  142MOL   H31748539   5.265   3.409   2.455 -1.5718 -0.2316  0.1690
  142MOL   H31848540   5.433   3.159   2.506 -0.5635 -0.2304  0.2090
  142MOL   H31948541   5.695   3.241   2.434 -0.8579  0.8660 -0.1996
  142MOL   H32048542   5.577   3.133   2.333 -0.2188  0.1734 -2.1121
  142MOL   H32148543   5.797   3.287   2.237 -0.1699 -0.1427  2.1253
  142MOL   H32248544   5.666   3.246   2.132 -1.4670  1.4935 -0.1638
  142MOL   H32348545   5.717   3.503   2.284  0.1274 -0.0767 -0.2436
  142MOL   H32448546   5.614   3.481   2.138  0.8166 -1.0428 -0.5467
  142MOL   C32548547   5.465   3.317   2.638 -0.6739 -0.4212  0.0736
  142MOL   C32648548   5.378   3.257   2.747  0.2228  0.4582 -0.3218
  142MOL   N32748549   5.436   3.257   2.883  0.1907  0.3775  0.1417
  142MOL   C32848550   5.420   3.157   2.989  0.4062 -0.1624  0.5506
  142MOL   C32948551   5.512   3.200   3.098  0.1790 -0.3801 -0.3730
  142MOL   C33048552   5.567   3.341   3.065  0.2610  0.1366  0.6999
  142MOL   C33148553   5.497   3.368   2.933  1.0587  1.0701 -0.0088
  142MOL   O33248554   5.514   3.477   2.872 -0.0905  0.0950 -0.4611
  142MOL   H33348555   5.457   3.425   2.653 -1.7803 -0.2467 -1.6029
  142MOL   H33448556   5.568   3.285   2.653 -1.2287 -2.2921  0.0731
  142MOL   H33548557   5.362   3.151   2.729  2.8420  0.3322 -2.1619
  142MOL   H33648558   5.315   3.165   3.016  0.3916 -0.2023  0.5050
  142MOL   H33748559   5.444   3.060   2.946 -1.6910 -0.5235  0.1445
  142MOL   H33848560   5.464   3.188   3.195 -0.2455  1.1152 -0.3911
  142MOL   H33948561   5.601   3.136   3.104 -0.3837 -1.1683 -0.3673
  142MOL   H34048562   5.535   3.405   3.147  1.9492  0.3805  1.1988
  142MOL   H34148563   5.673   3.348   3.039 -0.1220  0.8391 -0.7081
  142MOL   H34248564   5.281   3.307   2.748  0.3407  0.6849 -0.2735
  143MOL     C148565   3.095   1.348   0.079  0.0236 -0.2397  0.4762
  143MOL     C248566   3.156   1.488   0.104 -0.3148 -0.2204  0.0041
  143MOL     N348567   3.237   1.531   7.895 -0.1381 -0.1864 -0.3977
  143MOL     C448568   3.377   1.535   0.021  0.1052  0.2047 -0.0453
  143MOL     C548569   3.443   1.571   7.798  0.1466  0.4514  0.5329
  143MOL     C648570   3.333   1.608   7.698 -0.5340 -0.1593 -0.9219
  143MOL     C748571   3.203   1.574   7.773 -0.2961  0.4784 -0.3614
  143MOL     O848572   3.095   1.572   7.718  0.2536 -0.4470  0.2542
  143MOL     H948573   3.023   1.351   7.903 -0.5355  1.2747  1.0158
  143MOL    H1048574   3.172   1.275   0.052  0.1160  0.1360 -0.3032
  143MOL    H1148575   3.218   1.469   0.191 -0.3924  0.9172  0.3127
  143MOL    H1248576   3.387   1.613   0.097  1.1609 -0.6722  0.7391
  143MOL    H1348577   3.416   1.440   0.056 -0.2504 -0.5519 -1.6377
  143MOL    H1448578   3.510   1.657   7.804 -0.9445  1.6681 -3.4093
  143MOL    H1548579   3.504   1.488   7.762 -0.8632 -0.1388  0.1910
  143MOL    H1648580   3.353   1.714   7.681  1.4805 -0.3761 -0.0992
  143MOL    H1748581   3.349   1.557   7.603 -2.2206 -1.3703 -0.5746
  143MOL    H1848582   3.023   1.326   0.158 -1.5700  1.4254 -0.4981
  143MOL    C1948583   3.038   1.585   0.139 -0.3354 -0.1388 -0.2747
  143MOL    C2048584   3.083   1.734   0.163 -0.7283 -0.1198  0.0378
  143MOL    N2148585   2.963   1.815   0.158  0.0952  0.0742 -0.6382
  143MOL    C2248586   2.923   1.874   0.030 -0.2500  0.7815 -0.3178
  143MOL    C2348587   2.773   1.897   0.038 -0.2312 -0.7951 -0.3158
  143MOL    C2448588   2.735   1.887   0.186  0.0860  0.0354  0.5177
  143MOL    C2548589   2.862   1.833   0.248 -0.6311 -0.2916 -0.5274
  143MOL    O2648590   2.863   1.807   0.363  0.9173 -0.1373 -0.0155
  143MOL    H2748591   2.981   1.537   0.219  1.6005  0.9610  1.8484
  143MOL    H2848592   2.974   1.596   0.052  0.5651 -2.4541 -1.2535
  143MOL    H2948593   3.144   1.761   0.077 -3.2831 -1.4619 -2.3122
  143MOL    H3048594   2.977   1.967   0.012 -0.5594  0.7320 -1.5923
  143MOL    H3148595   2.953   1.819   7.846 -1.5487 -0.0189 -0.2746
  143MOL    H3248596   2.744   1.993   7.901  0.6685  0.2857  1.4504
  143MOL    H3348597   2.735   1.810   7.890 -0.6128 -1.1595  0.5297
  143MOL    H3448598   2.705   1.985   0.224  1.8667  1.0612 -0.5919
  143MOL    H3548599   2.646   1.825   0.197 -0.9875  1.2489 -0.9918
  143MOL    C3648600   3.168   1.755   0.291 -0.5754 -0.5285 -1.2341
  143MOL    C3748601   3.227   1.897   0.315  0.3934  0.9919 -0.6825
  143MOL    N3848602   3.127   1.986   0.377 -0.1252  0.3771 -0.2004
  143MOL    C3948603   3.091   2.111   0.315  0.1950  0.2284  0.3807
  143MOL    C4048604   2.973   2.165   0.394 -0.4457  0.0219 -0.3666
  143MOL    C4148605   2.985   2.092   0.529 -0.2458 -0.5003 -0.3932
  143MOL    C4248606   3.085   1.978   0.506  0.1231  0.6624  0.1356
  143MOL    O4348607   3.121   1.889   0.589  0.7300  0.2674  0.1032
  143MOL    H4448608   3.256   1.690   0.289  0.1458  0.4185 -0.9616
  143MOL    H4548609   3.115   1.721   0.380  0.1347  0.7669 -0.2930
  143MOL    H4648610   3.249   1.937   0.216 -0.7999 -0.0764 -1.3931
  143MOL    H4748611   3.184   2.167   0.318  0.1495  0.2437  1.4877
  143MOL    H4848612   3.064   2.095   0.210  0.2701 -0.3951  0.4497
  143MOL    H4948613   2.971   2.274   0.395 -1.0116  0.0094  0.8106
  143MOL    H5048614   2.890   2.136   0.330  2.1578 -2.4831 -2.7185
  143MOL    H5148615   3.010   2.162   0.608  0.1400 -0.3053 -0.6893
  143MOL    H5248616   2.898   2.042   0.572 -0.6878 -0.6950 -1.4920
  143MOL    C5348617   3.356   1.896   0.394 -0.0535 -0.1726 -0.3013
  143MOL    C5448618   3.486   1.863   0.312 -0.0731 -0.2288 -0.0702
  143MOL    N5548619   3.510   1.956   0.199 -0.3329  0.1308 -0.4060
  143MOL    C5648620   3.531   1.900   0.063 -0.0192  0.0915 -0.0663
  143MOL    C5748621   3.533   2.014   7.867  0.1063 -0.0120 -0.1915
  143MOL    C5848622   3.555   2.142   0.054  0.2840  0.1684  0.0150
  143MOL    C5948623   3.512   2.087   0.194 -0.7243 -0.0025  0.3196
  143MOL    O6048624   3.476   2.163   0.282  0.0725  0.4839  0.1275
  143MOL    H6148625   3.339   1.825   0.475  2.3877 -0.3053  0.1355
  143MOL    H6248626   3.374   1.994   0.437  0.7962 -0.0008 -1.0498
  143MOL    H6348627   3.461   1.765   0.272 -0.2880 -0.2055  0.0071
  143MOL    H6448628   3.627   1.849   0.070  1.0087  1.5860 -2.7375
  143MOL    H6548629   3.452   1.828   0.042 -0.1575 -0.0429  0.8931
  143MOL    H6648630   3.606   2.003   7.786 -0.1047 -0.1636 -0.3622
  143MOL    H6748631   3.436   2.016   7.818  0.7092  1.3318 -1.3810
  143MOL    H6848632   3.663   2.152   0.046  0.3983 -1.4185 -0.7365
  143MOL    H6948633   3.510   2.236   0.024 -1.9674 -0.3845  1.5450
  143MOL    C7048634   3.605   1.845   0.404  0.0791  0.2632  0.2409
  143MOL    C7148635   3.604   1.735   0.513 -0.0197 -0.0079  0.1643
  143MOL    N7248636   3.565   1.606   0.458 -0.0329 -0.0681  0.2805
  143MOL    C7348637   3.447   1.530   0.502  0.2954  0.2672 -0.7872
  143MOL    C7448638   3.447   1.394   0.434  0.2177  0.7805 -0.1271
  143MOL    C7548639   3.566   1.394   0.346 -0.7814 -0.7066  0.0271
  143MOL    C7648640   3.635   1.529   0.369  0.5343  0.5177  0.1051
  143MOL    O7748641   3.744   1.557   0.324 -0.2659 -0.5966  0.2139
  143MOL    H7848642   3.624   1.948   0.434  3.1702 -0.2989  0.3816
  143MOL    H7948643   3.701   1.831   0.354 -0.7145  2.5159 -2.0048
  143MOL    H8048644   3.517   1.748   0.577  1.0457  0.6144  1.4923
  143MOL    H8148645   3.450   1.520   0.611  2.7816 -2.0163 -1.0246
  143MOL    H8248646   3.353   1.579   0.473  0.4772  0.1655 -1.5579
  143MOL    H8348647   3.454   1.316   0.510  0.6844 -0.3915 -1.3432
  143MOL    H8448648   3.351   1.374   0.387 -0.8008  0.0949  2.1739
  143MOL    H8548649   3.627   1.308   0.373  0.7865  0.8673  1.6319
  143MOL    H8648650   3.525   1.400   0.245  0.3923  0.1810 -0.4114
  143MOL    C8748651   3.735   1.740   0.596  0.1623 -0.2224 -0.4255
  143MOL    C8848652   3.763   1.627   0.699  0.1677 -0.5142  0.4773
  143MOL    N8948653   3.842   1.518   0.643 -0.2076  0.2068  0.0389
  143MOL    C9048654   3.785   1.386   0.641  0.3191  0.0175 -0.1443
  143MOL    C9148655   3.885   1.300   0.562  0.8772  0.0160 -0.1018
  143MOL    C9248656   4.008   1.387   0.545 -0.1374 -0.2241  0.3729
  143MOL    C9348657   3.965   1.521   0.589 -0.3495 -0.7630 -0.4721
  143MOL    O9448658   4.047   1.611   0.571  0.1021 -0.1057  0.7565
  143MOL    H9548659   3.724   1.828   0.660  0.8246 -0.4453 -0.0026
  143MOL    H9648660   3.823   1.763   0.536  0.1761 -1.0454 -0.7251
  143MOL    H9748661   3.664   1.585   0.721 -0.7143  1.7043  0.8662
  143MOL    H9848662   3.767   1.349   0.741 -1.6046  1.2282 -0.0161
  143MOL    H9948663   3.687   1.368   0.598  1.1193  0.3297 -2.1731
  143MOL   H10048664   3.901   1.198   0.596  1.1309 -0.1502 -0.7132
  143MOL   H10148665   3.854   1.294   0.457 -0.3422 -0.1565  0.2611
  143MOL   H10248666   4.095   1.370   0.609  0.6121  0.1173 -0.5432
  143MOL   H10348667   4.041   1.390   0.441 -2.4046  0.8751 -0.3441
  143MOL   C10448668   3.829   1.679   0.828 -0.0313  0.7760  0.2579
  143MOL   C10548669   3.740   1.699   0.960 -0.4547 -0.0862  0.3008
  143MOL   N10648670   3.826   1.694   1.081 -0.2724 -0.2693  0.1652
  143MOL   C10748671   3.768   1.653   1.211  0.2232 -0.4865 -0.0916
  143MOL   C10848672   3.889   1.622   1.306 -1.2693 -0.0306  0.3115
  143MOL   C10948673   4.009   1.692   1.240 -0.0950  0.0589 -0.4604
  143MOL   C11048674   3.955   1.734   1.106 -0.6883  0.2245  0.0354
  143MOL   O11148675   4.022   1.793   1.024  0.3265  0.1467 -0.0617
  143MOL   H11248676   3.898   1.758   0.797  1.0586 -0.3693 -0.2767
  143MOL   H11348677   3.902   1.607   0.865 -2.0756 -1.6593 -0.3120
  143MOL   H11448678   3.659   1.626   0.965 -0.7927  0.2948  0.3819
  143MOL   H11548679   3.705   1.719   1.270  0.2976 -0.8146  0.3519
  143MOL   H11648680   3.699   1.571   1.192 -0.9635  0.2154  1.1074
  143MOL   H11748681   3.870   1.651   1.409  0.3297 -1.1303  0.9338
  143MOL   H11848682   3.916   1.516   1.300 -0.4925  0.1092  1.3921
  143MOL   H11948683   4.092   1.626   1.214  0.7073  0.4087  1.1545
  143MOL   H12048684   4.047   1.772   1.303 -1.6478  0.8649 -0.5348
  143MOL   C12148685   3.679   1.847   0.976 -0.4795  1.1216  0.3196
  143MOL   C12248686   3.544   1.880   0.901 -0.2181 -0.4256 -0.1635
  143MOL   N12348687   3.446   1.777   0.932  0.5826  0.5623  1.0034
  143MOL   C12448688   3.370   1.728   0.817  0.5102  0.1781 -0.0370
  143MOL   C12548689   3.256   1.644   0.872 -0.2652  0.3877  0.1358
  143MOL   C12648690   3.295   1.620   1.019 -0.2328 -0.1923  0.6332
  143MOL   C12748691   3.406   1.720   1.044 -0.1007  0.7705  0.0844
  143MOL   O12848692   3.461   1.729   1.154 -0.2868  0.3383 -0.0661
  143MOL   H12948693   3.751   1.927   0.957 -3.0279  3.2959 -0.5724
  143MOL   H13048694   3.658   1.861   1.082  0.8152  0.9315  0.6054
  143MOL   H13148695   3.559   1.868   0.794 -0.7702 -0.3614 -0.2457
  143MOL   H13248696   3.433   1.654   0.766 -0.5533 -0.4781 -0.4290
  143MOL   H13348697   3.349   1.793   0.733  0.7794 -0.9787 -1.0224
  143MOL   H13448698   3.164   1.700   0.853 -0.9865 -1.4968 -2.3020
  143MOL   H13548699   3.240   1.551   0.817 -0.6990 -0.3975  1.5562
  143MOL   H13648700   3.213   1.638   1.088 -0.8069 -0.1510 -0.0537
  143MOL   H13748701   3.323   1.515   1.028  1.7469  0.1351 -1.1800
  143MOL   C13848702   3.488   2.027   0.946 -0.5277 -0.9627  0.2380
  143MOL   C13948703   3.579   2.152   0.919 -0.3664 -0.2357  0.1087
  143MOL   N14048704   3.568   2.194   0.778  0.4758  0.1465  0.3648
  143MOL   C14148705   3.689   2.169   0.691  0.6055  0.4242 -0.7485
  143MOL   C14248706   3.671   2.255   0.566 -0.6907  0.2015  0.0821
  143MOL   C14348707   3.521   2.289   0.574 -0.3948 -0.4335 -0.1201
  143MOL   C14448708   3.483   2.276   0.719  0.1213 -0.9184  0.2542
  143MOL   O14548709   3.373   2.317   0.758  0.5704  0.0518  0.3092
  143MOL   H14648710   3.484   2.019   1.055  0.0840  0.9687  0.4280
  143MOL   H14748711   3.394   2.043   0.893 -1.1568 -2.2817  0.9461
  143MOL   H14848712   3.681   2.134   0.952  0.9564  2.0179 -2.4838
  143MOL   H14948713   3.778   2.213   0.738  0.1256 -1.6419  2.2299
  143MOL   H15048714   3.686   2.060   0.682 -4.3275  0.3627  0.4142
  143MOL   H15148715   3.725   2.349   0.568  2.0349 -1.3056  0.4084
  143MOL   H15248716   3.698   2.211   0.470  0.2841  2.0786 -0.5212
  143MOL   H15348717   3.464   2.214   0.519 -1.9652  0.5465  0.1425
  143MOL   H15448718   3.502   2.390   0.537  1.0627 -0.1441 -0.1340
  143MOL   C15548719   3.525   2.271   1.011  0.0548 -0.0021 -0.3175
  143MOL   C15648720   3.567   2.264   1.164 -0.6603  0.5205  0.5474
  143MOL   N15748721   3.718   2.267   1.183 -0.0410  0.5717  0.1988
  143MOL   C15848722   3.789   2.162   1.257  0.0612 -0.1178  0.4692
  143MOL   C15948723   3.926   2.221   1.295  0.6461 -0.0904 -0.1248
  143MOL   C16048724   3.949   2.328   1.182 -0.4138 -0.2736 -0.7216
  143MOL   C16148725   3.808   2.358   1.136  0.2594  0.3344  0.7725
  143MOL   O16248726   3.780   2.449   1.067  0.4434  0.1998  0.1495
  143MOL   H16348727   3.417   2.271   0.999 -0.1150  1.8505  0.9325
  143MOL   H16448728   3.559   2.365   0.968 -1.5484  0.8959  0.3666
  143MOL   H16548729   3.541   2.164   1.197 -1.7413  0.8443  0.6775
  143MOL   H16648730   3.744   2.139   1.354  0.9444  1.1762  1.1975
  143MOL   H16748731   3.799   2.080   1.187  1.9155  0.6017 -0.1495
  143MOL   H16848732   3.910   2.272   1.390 -0.3028 -3.2281  1.4870
  143MOL   H16948733   4.002   2.146   1.315 -0.3139 -0.9667  0.3290
  143MOL   H17048734   3.995   2.413   1.232  0.1780  0.4482 -2.4400
  143MOL   H17148735   4.009   2.298   1.096  0.9108  0.4990 -0.0770
  143MOL   C17248736   3.492   2.369   1.253 -0.3601 -0.0015 -0.0350
  143MOL   C17348737   3.473   2.331   1.412 -0.0348  0.3938  0.0366
  143MOL   N17448738   3.540   2.439   1.491 -0.2344 -0.2310 -0.1413
  143MOL   C17548739   3.648   2.403   1.588  0.1466 -0.8922  0.3009
  143MOL   C17648740   3.688   2.541   1.650 -0.6311 -0.3004  0.3372
  143MOL   C17748741   3.578   2.642   1.609  0.3551  0.5185  0.1722
  143MOL   C17848742   3.504   2.569   1.497  0.3745  0.0443  0.7918
  143MOL   O17948743   3.425   2.633   1.428  0.7035  0.1755 -0.0372
  143MOL   H18048744   3.393   2.368   1.209  0.1018 -2.0771 -1.0741
  143MOL   H18148745   3.534   2.469   1.243 -0.3046  0.0759  0.9417
  143MOL   H18248746   3.525   2.236   1.419 -0.0247  0.4483  0.6843
  143MOL   H18348747   3.606   2.348   1.672 -3.3774 -0.7365 -1.2859
  143MOL   H18448748   3.726   2.350   1.534  1.1507 -1.2369  2.0612
  143MOL   H18548749   3.782   2.572   1.605 -0.2086 -0.3898  1.1472
  143MOL   H18648750   3.700   2.526   1.758 -0.1057  1.8833  0.6019
  143MOL   H18748751   3.515   2.660   1.697 -0.4071 -0.1951 -0.2169
  143MOL   H18848752   3.611   2.739   1.573 -2.2965  1.0069 -1.1022
  143MOL   C18948753   3.330   2.319   1.445  0.1477  0.6197  0.5626
  143MOL   C19048754   3.266   2.187   1.404 -0.6593  0.7533  0.0141
  143MOL   N19148755   3.327   2.064   1.461  0.4057 -0.1012  0.4295
  143MOL   C19248756   3.379   1.959   1.370  0.6750  0.3450 -0.3250
  143MOL   C19348757   3.425   1.837   1.458  0.5965  0.5367 -0.5397
  143MOL   C19448758   3.433   1.905   1.601  0.1755  0.2535 -0.3958
  143MOL   C19548759   3.366   2.042   1.589 -0.0648 -0.0362 -0.5375
  143MOL   O19648760   3.351   2.118   1.685  0.2955  0.3699 -1.0694
  143MOL   H19748761   3.263   2.396   1.407 -0.7123 -0.4595 -0.1433
  143MOL   H19848762   3.306   2.322   1.551 -1.1548 -2.4493  0.4042
  143MOL   H19948763   3.275   2.191   1.295 -0.5975 -2.0970 -0.1268
  143MOL   H20048764   3.297   1.920   1.309  0.9767 -1.7804  0.5789
  143MOL   H20148765   3.459   1.992   1.304  0.3675  1.2440 -0.2442
  143MOL   H20248766   3.353   1.756   1.452 -1.9172  2.7177 -0.8343
  143MOL   H20348767   3.528   1.807   1.435  0.8395  0.1931  0.9449
  143MOL   H20448768   3.391   1.834   1.672  1.1024 -0.0133 -0.1116
  143MOL   H20548769   3.532   1.923   1.643  0.0663 -0.8588  0.3655
  143MOL   C20648770   3.117   2.180   1.440 -0.1149 -0.0310 -0.8809
  143MOL   C20748771   3.019   2.252   1.351  0.0171  0.2304  0.1156
  143MOL   N20848772   3.021   2.195   1.205 -0.0947 -0.8277  0.8416
  143MOL   C20948773   3.078   2.279   1.100 -0.0807  0.6577 -0.3104
  143MOL   C21048774   3.096   2.178   0.986 -0.1985  0.2315 -0.3633
  143MOL   C21148775   2.978   2.082   1.001  0.2064  0.2240  0.3559
  143MOL   C21248776   2.957   2.091   1.156  0.0742  1.1048 -0.4155
  143MOL   O21348777   2.888   2.013   1.212  0.3367 -0.7085  0.0684
  143MOL   H21448778   3.105   2.230   1.536  1.4128 -1.0802 -0.1281
  143MOL   H21548779   3.083   2.077   1.450  1.3588 -0.4040  0.4045
  143MOL   H21648780   3.058   2.354   1.350 -1.0163  0.6343 -0.1937
  143MOL   H21748781   3.010   2.360   1.075  0.7668  1.7094  0.7490
  143MOL   H21848782   3.173   2.318   1.136  0.0079 -1.2769  1.7240
  143MOL   H21948783   3.093   2.227   0.889 -1.5536  0.5459 -0.1847
  143MOL   H22048784   3.191   2.125   0.979 -0.6714 -0.5094 -1.3351
  143MOL   H22148785   2.888   2.118   0.952 -0.5099  0.1406  1.6105
  143MOL   H22248786   3.004   1.979   0.974  0.0982  0.3187 -0.1106
  143MOL   C22348787   2.876   2.278   1.411 -0.3046 -0.0438 -0.8730
  143MOL   C22448788   2.870   2.363   1.540 -0.5061  0.3857 -0.2640
  143MOL   N22548789   2.950   2.489   1.547  0.4403  0.5033 -0.5936
  143MOL   C22648790   3.046   2.509   1.654 -0.1220 -0.0576  0.0149
  143MOL   C22748791   3.109   2.645   1.625  0.7810 -0.1492  0.0398
  143MOL   C22848792   3.064   2.687   1.484 -0.4847 -0.2907 -0.2638
  143MOL   C22948793   2.958   2.583   1.452 -0.1536  0.1529 -0.1370
  143MOL   O23048794   2.893   2.583   1.349 -0.4960  0.1326 -0.0590
  143MOL   H23148795   2.827   2.187   1.445  0.5337 -0.3883 -0.5680
  143MOL   H23248796   2.817   2.323   1.331  0.8629 -1.5814 -2.6182
  143MOL   H23348797   2.908   2.305   1.625 -1.1435  0.3303 -0.0134
  143MOL   H23448798   3.003   2.507   1.754  1.6922  1.4210  0.8598
  143MOL   H23548799   3.113   2.426   1.633 -1.4881 -1.5412  1.3780
  143MOL   H23648800   3.073   2.721   1.694  0.8100  0.2275 -0.3620
  143MOL   H23748801   3.217   2.639   1.634  0.7344 -0.7692  0.1970
  143MOL   H23848802   3.009   2.780   1.472  0.4512  0.0163 -2.4036
  143MOL   H23948803   3.148   2.692   1.415 -1.3269 -0.3917 -1.3032
  143MOL   C24048804   2.721   2.400   1.572 -0.3820 -0.2808  0.1241
  143MOL   C24148805   2.634   2.284   1.637  0.1223  0.3940 -0.4024
  143MOL   N24248806   2.704   2.210   1.747  0.5773 -0.2092 -0.0708
  143MOL   C24348807   2.721   2.067   1.729 -0.4254 -0.4904  0.2754
  143MOL   C24448808   2.725   2.016   1.874 -0.4289 -0.2264  0.0616
  143MOL   C24548809   2.771   2.136   1.956  0.5312  0.1739  0.4144
  143MOL   C24648810   2.725   2.255   1.869  0.4205  0.3984  0.2919
  143MOL   O24748811   2.716   2.370   1.909 -0.4302 -0.3219 -0.6678
  143MOL   H24848812   2.664   2.420   1.482  0.8591 -0.7442 -0.7826
  143MOL   H24948813   2.705   2.491   1.630 -0.7098 -0.6346  0.5980
  143MOL   H25048814   2.617   2.213   1.556  0.5015 -2.0062  1.5677
  143MOL   H25148815   2.624   2.037   1.691  0.3998 -0.9384 -1.5175
  143MOL   H25248816   2.802   2.041   1.661 -1.1637 -0.1265 -0.7489
  143MOL   H25348817   2.629   1.978   1.908 -1.4365  1.2298 -1.1083
  143MOL   H25448818   2.786   1.928   1.897 -0.5690 -0.9260 -2.1440
  143MOL   H25548819   2.713   2.142   2.048  0.2127 -0.7702  0.2773
  143MOL   H25648820   2.878   2.143   1.974  0.1465  0.9737  2.5389
  143MOL   C25748821   2.490   2.344   1.680 -0.2837 -0.1968 -0.3843
  143MOL   C25848822   2.396   2.248   1.757 -0.1590 -0.2557 -0.3666
  143MOL   N25948823   2.291   2.328   1.832  0.3122 -0.4809 -0.2315
  143MOL   C26048824   2.311   2.355   1.968  0.0400  0.1363 -0.2246
  143MOL   C26148825   2.193   2.435   2.022  0.5988 -0.9427  0.4987
  143MOL   C26248826   2.146   2.499   1.895  0.5113  0.7074  0.2859
  143MOL   C26348827   2.197   2.404   1.787 -0.5373  0.5561 -0.0709
  143MOL   O26448828   2.140   2.424   1.680  0.1739  0.5293  0.3663
  143MOL   H26548829   2.437   2.368   1.588 -2.1336  0.1071  0.7238
  143MOL   H26648830   2.507   2.433   1.742 -2.6501  0.1150 -0.1473
  143MOL   H26748831   2.458   2.194   1.829 -1.0790 -2.0043 -0.8638
  143MOL   H26848832   2.314   2.262   2.026  1.3407  0.3441  0.0617
  143MOL   H26948833   2.399   2.416   1.985 -0.5022  0.7509  0.3779
  143MOL   H27048834   2.114   2.373   2.063 -1.8536  0.2570 -2.3143
  143MOL   H27148835   2.237   2.501   2.098  1.1153  0.0072 -0.6164
  143MOL   H27248836   2.038   2.513   1.901  0.3114 -0.6529  0.0020
  143MOL   H27348837   2.187   2.599   1.883  1.8316  0.1944  0.4471
  143MOL   C27448838   2.337   2.140   1.674 -0.8396 -0.3729  0.1705
  143MOL   C27548839   2.241   2.035   1.733  0.9372  0.8569  1.0175
  143MOL   N27648840   2.204   1.941   1.631  0.7796 -0.2571 -0.2763
  143MOL   C27748841   2.069   1.947   1.579  0.3530 -0.2671 -0.5134
  143MOL   C27848842   2.050   1.824   1.492  0.4342  0.1643 -0.1612
  143MOL   C27948843   2.187   1.763   1.474  0.1578  0.9014  0.6263
  143MOL   C28048844   2.272   1.843   1.573 -0.5216  0.4070 -0.6755
  143MOL   O28148845   2.384   1.808   1.603 -0.2799  0.3465 -0.2455
  143MOL   H28248846   2.423   2.090   1.629  1.2427  1.9714  1.4429
  143MOL   H28348847   2.280   2.174   1.587  2.3486 -2.5956 -2.9488
  143MOL   H28448848   2.151   2.085   1.771  0.5832  1.4943 -0.6250
  143MOL   H28548849   2.010   1.933   1.670 -2.4207 -1.5495 -2.4453
  143MOL   H28648850   2.059   2.044   1.531  0.8250  0.1483  0.2231
  143MOL   H28748851   1.978   1.754   1.535  0.2032 -0.0962 -0.9633
  143MOL   H28848852   2.004   1.850   1.397 -0.2281  1.4943  0.5175
  143MOL   H28948853   2.181   1.656   1.494 -0.8014  0.8380  0.0605
  143MOL   H29048854   2.223   1.789   1.374  1.9246 -0.8807  0.7843
  143MOL   C29148855   2.315   1.982   1.855  0.4888 -0.5758  0.1554
  143MOL   C29248856   2.253   1.868   1.945  0.0672  0.2095  0.2228
  143MOL   N29348857   2.358   1.790   2.016  0.0178 -0.7495  0.0205
  143MOL   C29448858   2.370   1.650   1.981 -1.0364 -0.2104  0.0920
  143MOL   C29548859   2.463   1.599   2.098 -0.1930 -0.0867  0.0113
  143MOL   C29648860   2.537   1.723   2.147 -0.5961  0.1200  0.1000
  143MOL   C29748861   2.451   1.835   2.094 -0.0976  0.4800  0.2372
  143MOL   O29848862   2.466   1.949   2.137  0.5859 -0.1561 -0.1644
  143MOL   H29948863   2.324   2.073   1.914  2.3284  0.2254 -1.3347
  143MOL   H30048864   2.416   1.958   1.822 -0.3944 -1.5660 -1.9183
  143MOL   H30148865   2.216   1.796   1.872  0.0434 -0.6061  1.0291
  143MOL   H30248866   2.269   1.609   1.986 -0.7449 -0.8304  1.1461
  143MOL   H30348867   2.423   1.635   1.887 -1.7461  0.0194 -0.3498
  143MOL   H30448868   2.417   1.540   2.177 -1.1089  1.7552  0.8893
  143MOL   H30548869   2.534   1.528   2.055 -2.2163 -2.5056  0.5590
  143MOL   H30648870   2.547   1.721   2.255  1.0661 -0.0670 -0.0480
  143MOL   H30748871   2.632   1.738   2.095  0.1507  1.7773  1.8924
  143MOL   C30848872   2.147   1.920   2.044  0.5892  0.5620 -0.2566
  143MOL   C30948873   2.037   1.821   2.089  0.4582  0.3569 -0.0405
  143MOL   N31048874   1.993   1.856   2.227 -0.4330 -0.2350  0.0509
  143MOL   C31148875   1.988   1.758   2.332 -0.4522  0.0725  1.0205
  143MOL   C31248876   1.897   1.814   2.439  0.5901  0.5001  0.1638
  143MOL   C31348877   1.884   1.963   2.409 -0.3881 -0.3706  0.9409
  143MOL   C31448878   1.950   1.978   2.275 -0.1830  0.2978  1.2502
  143MOL   O31548879   1.960   2.084   2.215 -0.6960  0.0503  0.1041
  143MOL   H31648880   2.097   2.007   2.001 -0.1393  1.0444  1.4896
  143MOL   H31748881   2.207   1.956   2.128  0.9041 -0.7278  0.0847
  143MOL   H31848882   2.096   1.735   2.119  0.1183  0.6102  1.3971
  143MOL   H31948883   1.941   1.666   2.296 -0.2349 -0.7814  2.8450
  143MOL   H32048884   2.084   1.728   2.374  0.4969  1.1808 -0.3218
  143MOL   H32148885   1.800   1.765   2.429  0.7474  0.1052  0.5150
  143MOL   H32248886   1.944   1.799   2.537 -1.7224  3.0118  1.7238
  143MOL   H32348887   1.779   1.986   2.390 -0.0876  0.4724  0.3130
  143MOL   H32448888   1.930   2.018   2.491  1.0330  1.6393 -1.1527
  143MOL   C32548889   1.912   1.804   2.000 -0.5506 -0.1761  0.6994
  143MOL   C32648890   1.848   1.664   1.988 -0.3456  0.4338 -0.7381
  143MOL   N32748891   1.939   1.562   1.942 -0.2656 -0.0183 -0.5156
  143MOL   C32848892   1.961   1.452   2.027  0.4598 -0.0426 -0.5227
  143MOL   C32948893   2.087   1.383   1.980 -0.0715 -0.4960  0.1185
  143MOL   C33048894   2.110   1.440   1.844 -0.6454 -0.7290 -0.7449
  143MOL   C33148895   2.017   1.563   1.834  0.0377 -0.2902  0.5483
  143MOL   O33248896   2.028   1.642   1.742  0.1993 -0.6695  0.1090
  143MOL   H33348897   1.956   1.824   1.902 -0.8118 -0.9185  0.4304
  143MOL   H33448898   1.836   1.881   2.015  0.2999  1.1018 -1.3605
  143MOL   H33548899   1.760   1.662   1.923 -2.1780  0.3061  1.6642
  143MOL   H33648900   1.962   1.487   2.130  0.7166  1.2218 -0.9397
  143MOL   H33748901   1.881   1.380   2.016 -2.6635  3.0350  1.0985
  143MOL   H33848902   2.165   1.406   2.053 -1.4305  1.2902  1.0460
  143MOL   H33948903   2.084   1.274   1.984  1.7296 -0.5741 -0.2491
  143MOL   H34048904   2.215   1.464   1.829  0.0312 -2.0536  1.5709
  143MOL   H34148905   2.084   1.365   1.769 -0.2120 -1.9820  0.3295
  143MOL   H34248906   1.802   1.639   2.084 -2.5562  1.4215 -1.5104
  144MOL     C148907   7.392   7.888   1.344 -0.5468  0.5596  0.5906
  144MOL     C248908   7.358   0.129   1.336  0.1326 -0.8322 -0.8735
  144MOL     N348909   7.439   0.213   1.431  0.2170 -0.1247  0.2566
  144MOL     C448910   7.544   0.305   1.388 -0.3487 -0.7367  0.0152
  144MOL     C548911   7.625   0.344   1.510 -0.1058 -0.4395 -0.2648
  144MOL     C648912   7.528   0.311   1.629 -0.0871  0.4420  0.1658
  144MOL     C748913   7.424   0.217   1.566 -0.5188  0.3371 -0.1209
  144MOL     O848914   7.336   0.158   1.633 -0.2311  0.0538  0.0743
  144MOL     H948915   7.480   7.860   1.286  0.5003 -2.1798  3.3744
  144MOL    H1048916   7.417   7.863   1.447 -0.4997 -0.1689  0.4085
  144MOL    H1148917   7.259   0.142   1.379  0.7173 -0.1740  0.2962
  144MOL    H1248918   7.607   0.254   1.315 -1.3968 -0.8348 -0.8273
  144MOL    H1348919   7.504   0.399   1.348  1.6349  0.2949  0.3894
  144MOL    H1448920   7.711   0.278   1.517 -0.9274 -1.6912 -1.6278
  144MOL    H1548921   7.655   0.449   1.512  2.7359 -1.1552 -2.3390
  144MOL    H1648922   7.580   0.265   1.713 -1.4729 -1.0982  0.1927
  144MOL    H1748923   7.482   0.399   1.674  3.9817  1.2205  3.0782
  144MOL    H1848924   7.319   7.815   1.309  0.3202 -0.6551  1.2695
  144MOL    C1948925   7.361   0.186   1.193 -0.1886 -0.0303  0.1384
  144MOL    C2048926   7.285   0.313   1.165  0.4835  0.1040  0.4547
  144MOL    N2148927   7.325   0.383   1.036  0.2564  0.5081  0.0065
  144MOL    C2248928   7.303   0.319   0.911  0.1249  0.4676  0.1594
  144MOL    C2348929   7.340   0.432   0.808  0.3680  0.1005  0.1449
  144MOL    C2448930   7.433   0.527   0.881  0.5850 -0.5888 -0.8085
  144MOL    C2548931   7.404   0.490   1.029  0.8257 -0.6449  0.3032
  144MOL    O2648932   7.450   0.548   1.127 -0.1780 -0.2623 -0.4037
  144MOL    H2748933   7.321   0.107   1.130 -2.4902  1.6381 -0.5292
  144MOL    H2848934   7.461   0.201   1.152 -0.0665 -0.1622  0.3908
  144MOL    H2948935   7.312   0.375   1.250 -0.4928 -0.7615  1.4139
  144MOL    H3048936   7.359   0.227   0.895  0.0784  0.2103  1.4166
  144MOL    H3148937   7.197   0.297   0.897 -0.3346  2.9276 -0.5218
  144MOL    H3248938   7.371   0.399   0.709 -0.5519  0.7307 -0.3597
  144MOL    H3348939   7.255   0.498   0.793  0.8957  1.0291  1.0668
  144MOL    H3448940   7.538   0.516   0.854  0.2887 -0.4940 -2.0244
  144MOL    H3548941   7.402   0.631   0.878 -1.5515 -1.1080  1.5677
  144MOL    C3648942   7.130   0.291   1.175 -0.4853  0.2094 -0.2304
  144MOL    C3748943   7.042   0.420   1.200 -0.6037  0.7535 -0.0192
  144MOL    N3848944   6.989   0.471   1.075 -0.3506 -0.1234  0.1885
  144MOL    C3948945   7.006   0.615   1.050 -0.4436 -0.1347  0.3474
  144MOL    C4048946   6.974   0.624   0.895  0.2460  0.5435 -0.3584
  144MOL    C4148947   6.905   0.497   0.851 -0.1455  1.4499 -0.4706
  144MOL    C4248948   6.918   0.406   0.979  0.1873  0.2296 -0.5693
  144MOL    O4348949   6.863   0.291   0.981  0.1581 -0.6311  0.3173
  144MOL    H4448950   7.110   0.229   1.262 -3.1595  1.6679  0.2479
  144MOL    H4548951   7.096   0.236   1.086  1.8290 -1.0103 -0.3891
  144MOL    H4648952   7.113   0.495   1.234 -0.5803  1.0244 -0.6677
  144MOL    H4748953   6.937   0.670   1.113 -0.5628 -0.9479  0.9250
  144MOL    H4848954   7.103   0.659   1.075 -0.1477 -2.4831  3.6654
  144MOL    H4948955   6.920   0.715   0.870 -0.1006  0.4102 -0.0904
  144MOL    H5048956   7.077   0.624   0.860  0.8419 -0.2846  1.3723
  144MOL    H5148957   6.798   0.514   0.861 -0.2746  0.1702  0.4625
  144MOL    H5248958   6.934   0.449   0.758 -0.9810 -0.8954  0.4417
  144MOL    C5348959   6.925   0.394   1.297 -0.1765  0.3830  0.0035
  144MOL    C5448960   6.973   0.380   1.446 -0.7504 -0.5241  0.6518
  144MOL    N5548961   7.056   0.492   1.500 -0.0839 -0.0796  0.1180
  144MOL    C5648962   7.191   0.461   1.547  0.0783 -1.0488 -0.5453
  144MOL    C5748963   7.253   0.596   1.595  0.6565 -0.0508  0.0299
  144MOL    C5848964   7.160   0.701   1.537 -0.3390 -0.2537  0.6188
  144MOL    C5948965   7.039   0.625   1.492  0.1823  0.2338 -0.0893
  144MOL    O6048966   6.931   0.680   1.460  0.2529 -0.1429  0.0217
  144MOL    H6148967   6.867   0.307   1.266 -0.8606  0.7098  0.3445
  144MOL    H6248968   6.858   0.479   1.279 -0.6362  0.3177  1.3543
  144MOL    H6348969   7.034   0.290   1.458 -1.6513 -1.2343  0.0203
  144MOL    H6448970   7.187   0.397   1.636 -1.8123 -1.3881 -0.8598
  144MOL    H6548971   7.247   0.423   1.462 -1.7413 -2.9810 -0.9315
  144MOL    H6648972   7.258   0.607   1.703 -1.3907 -0.2044  0.1663
  144MOL    H6748973   7.356   0.610   1.561 -0.5840  1.2638 -3.5248
  144MOL    H6848974   7.139   0.783   1.604 -1.5834 -0.9516  1.1067
  144MOL    H6948975   7.190   0.755   1.447  0.0195  1.6127  1.8391
  144MOL    C7048976   6.852   0.354   1.540 -0.4119  0.5339  0.0785
  144MOL    C7148977   6.873   0.357   1.693 -0.2651  0.3141 -0.4441
  144MOL    N7248978   6.864   0.492   1.746 -0.3065 -0.2953 -0.1359
  144MOL    C7348979   6.964   0.546   1.833 -0.7549  0.6603  0.3181
  144MOL    C7448980   6.902   0.673   1.900  0.2751 -0.1924 -0.3364
  144MOL    C7548981   6.776   0.702   1.825  0.0301  0.3291  0.2877
  144MOL    C7648982   6.760   0.575   1.735  0.5204  0.6563  0.0410
  144MOL    O7748983   6.650   0.541   1.691  0.0489  0.0645 -0.6338
  144MOL    H7848984   6.814   0.259   1.502  1.0168 -0.0040 -0.0309
  144MOL    H7948985   6.770   0.421   1.516 -0.7792  0.2341  0.4793
  144MOL    H8048986   6.975   0.336   1.724 -0.3073 -0.5891 -0.9007
  144MOL    H8148987   6.981   0.473   1.912 -1.0970 -0.7683 -0.9046
  144MOL    H8248988   7.063   0.569   1.794 -0.8697 -0.3104 -0.5777
  144MOL    H8348989   6.883   0.658   2.006  0.9331  1.9755  0.1072
  144MOL    H8448990   6.968   0.760   1.895 -0.8514  0.6796 -0.3452
  144MOL    H8548991   6.690   0.717   1.890 -0.1927 -0.6305  0.2181
  144MOL    H8648992   6.780   0.799   1.775  1.6696 -0.1592 -0.5607
  144MOL    C8748993   6.776   0.258   1.765 -0.1079  0.3647  0.0507
  144MOL    C8848994   6.798   0.109   1.740 -0.3772  0.5082  0.1787
  144MOL    N8948995   6.898   0.042   1.836 -0.3876 -0.8798 -0.0959
  144MOL    C9048996   7.029   7.903   1.782 -0.2430  0.6147 -0.1288
  144MOL    C9148997   7.097   7.820   1.893 -0.3453 -0.4397  0.4294
  144MOL    C9248998   7.009   7.849   2.015  0.5468  0.5429  0.3558
  144MOL    C9348999   6.890   0.021   1.967  0.6155  0.5359 -0.0818
  144MOL    O9449000   6.804   0.066   2.046  0.0509  0.3242 -0.4109
  144MOL    H9549001   6.675   0.290   1.740  1.2179  2.7117 -2.7384
  144MOL    H9649002   6.794   0.277   1.870  0.9458 -0.2227 -0.0207
  144MOL    H9749003   6.847   0.089   1.645  0.2180 -0.1966  0.6345
  144MOL    H9849004   7.019   7.836   1.696 -0.2772 -2.3115  2.0754
  144MOL    H9949005   7.096   0.079   1.758  1.7239 -0.4458  1.5511
  144MOL   H10049006   7.090   7.713   1.871 -3.1492 -0.1010 -0.5612
  144MOL   H10149007   7.200   7.850   1.910 -1.0849  2.1138  0.5310
  144MOL   H10249008   6.983   7.755   2.065 -0.9457  0.5268 -0.4374
  144MOL   H10349009   7.054   0.015   2.084  2.9790  2.5331 -3.1626
  144MOL   C10449010   6.668   0.031   1.730  0.5698 -0.3184  0.1628
  144MOL   C10549011   6.682   7.788   1.707  0.2181 -1.0700  0.0605
  144MOL   N10649012   6.573   7.720   1.779 -0.1679  0.4119 -0.5978
  144MOL   C10749013   6.594   7.677   1.918  0.4677 -0.2945  0.4316
  144MOL   C10849014   6.460   7.659   1.987  0.1901  0.6562  0.2276
  144MOL   C10949015   6.362   7.649   1.868 -0.2623 -0.2575 -0.1856
  144MOL   C11049016   6.445   7.695   1.748 -0.5429  0.1188  0.1108
  144MOL   O11149017   6.385   7.722   1.640 -0.3842  0.4385  0.0524
  144MOL   H11249018   6.604   0.076   1.654  0.3923 -0.1590  0.4064
  144MOL   H11349019   6.607   0.061   1.815  0.7751 -2.0963  0.9459
  144MOL   H11449020   6.771   7.754   1.759  2.7594  2.4601 -1.7690
  144MOL   H11549021   6.654   7.586   1.910 -1.6512 -1.9152  1.9885
  144MOL   H11649022   6.661   7.745   1.970  0.6444  0.8081 -1.2357
  144MOL   H11749023   6.444   7.574   2.054 -0.7925 -0.6060 -1.5540
  144MOL   H11849024   6.443   7.749   2.046  1.4759  1.1234 -0.1008
  144MOL   H11949025   6.273   7.710   1.885  1.5314  2.5358 -0.4272
  144MOL   H12049026   6.332   7.545   1.862 -0.7206 -0.0968 -0.7383
  144MOL   C12149027   6.695   7.754   1.556 -0.4589  0.3512 -0.1137
  144MOL   C12249028   6.750   7.613   1.508  0.1870 -0.3558  1.3402
  144MOL   N12349029   6.716   7.625   1.363  0.7993 -0.2170 -0.1084
  144MOL   C12449030   6.604   7.554   1.310 -0.3286  0.1192  0.0761
  144MOL   C12549031   6.602   7.578   1.162 -0.7210  0.9721 -0.3765
  144MOL   C12649032   6.720   7.675   1.132  0.4116  0.3271  0.0516
  144MOL   C12749033   6.780   7.700   1.270  0.3751 -0.9187 -1.0190
  144MOL   O12849034   6.872   7.776   1.289 -0.4408 -0.0414  0.0793
  144MOL   H12949035   6.757   7.835   1.517 -1.0889 -0.5597 -3.1948
  144MOL   H13049036   6.596   7.778   1.517 -0.2747  1.4877  0.1032
  144MOL   H13149037   6.699   7.529   1.556 -0.8185 -0.2423  0.4822
  144MOL   H13249038   6.513   7.583   1.363  0.1613 -0.8891  1.4963
  144MOL   H13349039   6.621   7.448   1.328 -0.7183  0.2124  1.0077
  144MOL   H13449040   6.631   7.480   1.122  0.1480  1.3595 -0.7006
  144MOL   H13549041   6.509   7.610   1.114 -2.0403 -1.0439  0.7179
  144MOL   H13649042   6.783   7.628   1.057  1.3553  0.4754  0.7464
  144MOL   H13749043   6.696   7.770   1.084  0.9481 -1.3087 -3.6846
  144MOL   C13849044   6.904   7.597   1.538  1.0884 -0.0946  0.6134
  144MOL   C13949045   6.981   7.485   1.453  0.3979 -0.9261 -0.0466
  144MOL   N14049046   7.124   7.516   1.467  0.1796 -0.2198  0.6419
  144MOL   C14149047   7.196   7.556   1.348  0.3299  0.5647  0.8908
  144MOL   C14249048   7.340   7.546   1.395  0.4276 -0.1048 -0.6853
  144MOL   C14349049   7.336   7.565   1.550  0.4401  0.6502 -0.4493
  144MOL   C14449050   7.193   7.530   1.582  0.2508 -0.5473  0.0795
  144MOL   O14549051   7.144   7.541   1.694  0.4767  0.0536 -0.5835
  144MOL   H14649052   6.905   7.590   1.647 -1.0743 -0.0945  0.6649
  144MOL   H14749053   6.963   7.684   1.512  0.9801 -0.1444  0.1919
  144MOL   H14849054   6.953   7.493   1.348  1.2090  1.6068 -0.1069
  144MOL   H14949055   7.180   7.482   1.269  2.1631  0.6466  0.4226
  144MOL   H15049056   7.162   7.654   1.313  0.3385 -0.1169 -1.1253
  144MOL   H15149057   7.370   7.442   1.386  2.0146  0.1652  1.0375
  144MOL   H15249058   7.408   7.614   1.343  2.4502 -0.8644  0.8775
  144MOL   H15349059   7.373   7.663   1.579 -0.9548  1.2800 -0.7605
  144MOL   H15449060   7.400   7.485   1.589  0.7421  0.0180 -2.2142
  144MOL   C15549061   6.949   7.336   1.498  0.1153 -0.8295  0.3939
  144MOL   C15649062   6.987   7.234   1.384  0.3281  0.2855 -0.1569
  144MOL   N15749063   6.967   7.097   1.434 -0.9098 -0.9258  0.0485
  144MOL   C15849064   7.088   7.028   1.483  0.7234  1.2146 -0.5614
  144MOL   C15949065   7.036   6.888   1.524 -0.6972 -0.1510  1.0209
  144MOL   C16049066   6.882   6.897   1.511  0.4587  0.2665  0.0558
  144MOL   C16149067   6.855   7.032   1.448  0.2016 -0.7396  0.3475
  144MOL   O16249068   6.735   7.072   1.427  0.0249  0.5276 -0.5734
  144MOL   H16349069   6.842   7.327   1.519  0.3095  1.0331  2.2980
  144MOL   H16449070   6.988   7.313   1.597  0.7788  0.3563  0.4192
  144MOL   H16549071   7.095   7.242   1.372  0.4693 -0.1542  0.8312
  144MOL   H16649072   7.151   7.020   1.395  0.7730  0.4018 -0.4533
  144MOL   H16749073   7.146   7.063   1.568 -0.3320 -0.1768  0.7684
  144MOL   H16849074   7.065   6.812   1.451 -0.2343 -0.9292  2.0071
  144MOL   H16949075   7.063   6.867   1.627  1.1888  1.0074  0.7959
  144MOL   H17049076   6.847   6.823   1.440  1.4655  0.1040 -0.2851
  144MOL   H17149077   6.826   6.895   1.605 -0.8328  0.8744 -0.6954
  144MOL   C17249078   6.920   7.265   1.243  0.1920 -0.0992  0.3823
  144MOL   C17349079   6.896   7.153   1.146 -0.0510  0.0302  0.4370
  144MOL   N17449080   6.786   7.191   1.050 -0.5540 -0.0333  0.2542
  144MOL   C17549081   6.671   7.112   1.035  0.3119 -0.4373  0.0383
  144MOL   C17649082   6.587   7.187   0.936  0.3667 -0.4157 -0.3078
  144MOL   C17749083   6.667   7.298   0.877  0.4364 -0.3570  0.0559
  144MOL   C17849084   6.794   7.293   0.955 -0.5189  0.0957 -0.5733
  144MOL   O17949085   6.887   7.372   0.931 -0.1300 -0.4883  0.0888
  144MOL   H18049086   6.972   7.342   1.186 -0.8418  0.1452 -0.2330
  144MOL   H18149087   6.825   7.310   1.270 -0.1919 -0.7669  0.1505
  144MOL   H18249088   6.849   7.073   1.202  0.5680 -0.8378 -0.2702
  144MOL   H18349089   6.711   7.019   0.995  2.5436 -1.0208  3.4045
  144MOL   H18449090   6.608   7.084   1.120 -1.1899 -4.4019 -2.2243
  144MOL   H18549091   6.503   7.220   0.997 -0.4247 -2.3770 -0.3163
  144MOL   H18649092   6.541   7.127   0.858 -1.1383  0.2092  0.0871
  144MOL   H18749093   6.696   7.280   0.774 -1.7507 -1.7177 -0.3718
  144MOL   H18849094   6.611   7.391   0.870 -0.3590 -0.9628 -1.7755
  144MOL   C18949095   7.025   7.099   1.081 -0.4355 -0.2270  0.5350
  144MOL   C19049096   7.014   6.953   1.020 -0.0273 -0.1681  0.4753
  144MOL   N19149097   7.145   6.908   0.958 -0.2458 -0.1064  0.2901
  144MOL   C19249098   7.157   6.861   0.818 -0.3923 -0.1678  0.0115
  144MOL   C19349099   7.291   6.785   0.812  0.0107  0.2775 -0.2939
  144MOL   C19449100   7.365   6.842   0.931  0.1215 -0.0651  0.3767
  144MOL   C19549101   7.259   6.895   1.024  0.4657 -0.4943 -0.7470
  144MOL   O19649102   7.280   6.923   1.143 -1.1279  0.6940  0.2640
  144MOL   H19749103   7.096   7.086   1.164  2.6070  0.2398 -1.8954
  144MOL   H19849104   7.066   7.176   1.015 -0.9410 -0.7015 -0.3346
  144MOL   H19949105   6.943   6.968   0.939 -0.3154  1.8943  1.0801
  144MOL   H20049106   7.072   6.798   0.794  0.1787 -1.9006  2.4214
  144MOL   H20149107   7.158   6.943   0.746  2.8858  1.3577  1.6922
  144MOL   H20249108   7.287   6.676   0.817 -2.4675  0.2656 -1.5757
  144MOL   H20349109   7.338   6.798   0.715 -2.1153  1.6900 -1.1660
  144MOL   H20449110   7.429   6.769   0.979  0.8116 -0.2275 -0.7684
  144MOL   H20549111   7.438   6.914   0.895 -1.1639  1.9326  1.6800
  144MOL   C20649112   6.956   6.858   1.127  0.4733  0.2824  0.3475
  144MOL   C20749113   6.962   6.704   1.091 -0.4938  0.1156 -0.7276
  144MOL   N20849114   6.915   6.625   1.201 -0.2216  0.2240  0.2481
  144MOL   C20949115   6.991   6.507   1.253 -0.2865  0.2295  0.4581
  144MOL   C21049116   6.900   6.427   1.344 -0.2056 -0.3564  0.3778
  144MOL   C21149117   6.791   6.528   1.380 -0.4155  0.6306  0.0238
  144MOL   C21249118   6.796   6.625   1.268 -0.3998  0.2793 -0.0090
  144MOL   O21349119   6.693   6.700   1.244 -0.5702 -0.1366  0.6177
  144MOL   H21449120   6.849   6.878   1.132  0.1131 -1.6307  0.7584
  144MOL   H21549121   7.007   6.872   1.222  3.4121  0.9182 -1.2889
  144MOL   H21649122   7.070   6.695   1.081 -0.4407 -0.2649  0.1104
  144MOL   H21749123   7.041   6.440   1.183  0.5251  1.9377 -0.6059
  144MOL   H21849124   7.071   6.551   1.313  0.8937 -0.1330 -0.8252
  144MOL   H21949125   6.861   6.348   1.280  1.8642 -3.1832  2.5013
  144MOL   H22049126   6.964   6.378   1.417  0.9406  0.7134  0.1125
  144MOL   H22149127   6.698   6.471   1.395 -0.1088  0.6461  2.2423
  144MOL   H22249128   6.812   6.586   1.470 -0.3676 -0.6173  0.8295
  144MOL   C22349129   6.872   6.680   0.972 -0.4069  0.3465  0.4010
  144MOL   C22449130   6.875   6.537   0.913 -0.2060 -0.2591 -0.2448
  144MOL   N22549131   6.782   6.524   0.804  0.0130 -0.2152 -0.2328
  144MOL   C22649132   6.652   6.466   0.826 -0.6245 -0.3355  0.5365
  144MOL   C22749133   6.570   6.480   0.700 -0.1608  0.2322  0.4599
  144MOL   C22849134   6.648   6.576   0.615  0.0373  0.1878  0.0042
  144MOL   C22949135   6.778   6.599   0.692 -0.4523  1.2418  0.3618
  144MOL   O23049136   6.865   6.669   0.644 -0.2295  0.6088  0.2729
  144MOL   H23149137   6.884   6.759   0.898 -1.8052  0.1376 -0.0597
  144MOL   H23249138   6.772   6.692   1.013  0.6178  0.9677  2.8116
  144MOL   H23349139   6.843   6.481   1.000 -1.7661  4.4133  2.3545
  144MOL   H23449140   6.667   6.368   0.870  2.0811 -0.5314 -0.7437
  144MOL   H23549141   6.620   6.528   0.910 -2.1539 -1.3187  0.6911
  144MOL   H23649142   6.573   6.385   0.647  3.1047 -1.3904  3.3754
  144MOL   H23749143   6.468   6.517   0.710 -0.8505 -1.4060 -0.3342
  144MOL   H23849144   6.668   6.525   0.521 -2.5404 -2.3086  0.7037
  144MOL   H23949145   6.598   6.672   0.604 -1.7494 -0.7393 -0.2140
  144MOL   C24049146   7.016   6.487   0.874 -0.5268 -0.4897 -0.4980
  144MOL   C24149147   7.038   6.339   0.831  0.2455  0.1643  0.7424
  144MOL   N24249148   7.020   6.317   0.691 -0.2399 -0.5491  0.2579
  144MOL   C24349149   6.906   6.235   0.639  0.5762 -0.7632  0.1230
  144MOL   C24449150   6.896   6.268   0.497  0.5439  0.4284 -0.4797
  144MOL   C24549151   7.032   6.327   0.464  0.5224 -0.2876  0.2493
  144MOL   C24649152   7.100   6.364   0.595  0.2702  0.8098 -0.2950
  144MOL   O24749153   7.198   6.435   0.599  0.2254  0.0808 -0.3850
  144MOL   H24849154   7.076   6.505   0.964 -0.2539  0.3656 -0.8503
  144MOL   H24949155   7.067   6.550   0.802  0.7375  1.6819  2.2063
  144MOL   H25049156   6.964   6.283   0.889 -0.8149  0.8660  0.0785
  144MOL   H25149157   6.922   6.128   0.650  1.1616 -0.7647 -0.6562
  144MOL   H25249158   6.818   6.258   0.699  1.1521 -1.2248  1.1675
  144MOL   H25349159   6.876   6.181   0.434  0.9428 -0.1857  0.2418
  144MOL   H25449160   6.815   6.340   0.484  0.4880 -0.0243 -2.8710
  144MOL   H25549161   7.091   6.244   0.427  1.1007 -0.6525  1.9773
  144MOL   H25649162   7.032   6.406   0.388  1.9953 -0.5020  0.0077
  144MOL   C25749163   7.181   6.279   0.886 -0.0802  0.2568 -0.4185
  144MOL   C25849164   7.238   6.149   0.815  0.5855  0.1277 -0.6747
  144MOL   N25949165   7.384   6.140   0.828  0.3651  0.3775  0.1602
  144MOL   C26049166   7.466   6.175   0.719 -0.3191 -0.3816 -0.5879
  144MOL   C26149167   7.610   6.146   0.760 -0.2896  0.7578 -0.0012
  144MOL   C26249168   7.609   6.107   0.903 -0.3804 -0.0515 -0.0977
  144MOL   C26349169   7.459   6.097   0.933  0.4199  0.3662 -0.4525
  144MOL   O26449170   7.412   6.062   1.043 -0.2818  0.3859  0.3222
  144MOL   H26549171   7.170   6.257   0.992  2.0943 -0.6415 -0.3581
  144MOL   H26649172   7.261   6.352   0.880  0.5572 -0.2760  1.4497
  144MOL   H26749173   7.217   6.149   0.708 -1.4069  1.0306 -0.3195
  144MOL   H26849174   7.436   6.120   0.630 -1.2865 -2.6586  1.1166
  144MOL   H26949175   7.443   6.280   0.700 -0.0025 -0.1588  0.2570
  144MOL   H27049176   7.645   6.066   0.695 -0.1619 -0.1376  1.1599
  144MOL   H27149177   7.669   6.235   0.740 -0.1292  0.5759 -0.3335
  144MOL   H27249178   7.654   6.008   0.907 -1.1729 -0.4705 -1.3075
  144MOL   H27349179   7.666   6.168   0.974 -0.5172 -0.4031  0.3163
  144MOL   C27449180   7.167   6.023   0.873  0.1953 -0.1677 -0.5818
  144MOL   C27549181   7.175   5.895   0.796 -0.5111 -0.2409  0.0354
  144MOL   N27649182   7.128   5.777   0.871  0.0914  0.5739  0.7747
  144MOL   C27749183   7.233   5.703   0.922 -0.1148  0.2927  0.2295
  144MOL   C27849184   7.173   5.638   1.050  0.5572 -0.7327 -0.1917
  144MOL   C27949185   7.020   5.651   1.032  0.1290  0.1250  0.6061
  144MOL   C28049186   7.011   5.762   0.930 -0.1772 -0.8072  0.5755
  144MOL   O28149187   6.906   5.827   0.899  0.0093 -0.3450 -0.1776
  144MOL   H28249188   7.064   6.055   0.888  0.3570 -0.2432  0.7327
  144MOL   H28349189   7.202   6.000   0.974 -0.4290 -2.6073 -0.9094
  144MOL   H28449190   7.279   5.877   0.769 -0.4317 -0.3353  0.4035
  144MOL   H28549191   7.249   5.620   0.853 -0.9416  0.4346 -0.1472
  144MOL   H28649192   7.331   5.751   0.930  0.3215 -0.3684 -1.0428
  144MOL   H28749193   7.203   5.537   1.080  0.6273 -0.9628 -1.0195
  144MOL   H28849194   7.191   5.713   1.127 -1.4622  0.0207 -0.4323
  144MOL   H28949195   6.971   5.564   0.989 -2.5450 -0.0144  3.7707
  144MOL   H29049196   6.976   5.676   1.128 -0.7513 -3.5929  1.2558
  144MOL   C29149197   7.107   5.896   0.658 -0.5568 -0.5027 -0.3811
  144MOL   C29249198   7.103   5.753   0.584 -0.5700  0.3902 -0.5291
  144MOL   N29349199   6.976   5.674   0.590 -0.0375 -0.3116 -0.0124
  144MOL   C29449200   6.977   5.541   0.641  0.2316 -0.6317  0.4984
  144MOL   C29549201   6.830   5.491   0.616 -0.8474 -0.4255  0.3757
  144MOL   C29649202   6.748   5.618   0.602  0.4397 -0.2304 -0.5000
  144MOL   C29749203   6.852   5.723   0.570  0.3129 -0.8053 -0.4954
  144MOL   O29849204   6.819   5.826   0.519 -0.0023 -1.3024  0.5543
  144MOL   H29949205   7.158   5.971   0.597 -0.7146 -0.7998 -0.8830
  144MOL   H30049206   7.008   5.939   0.673 -0.0105  0.4444  0.5648
  144MOL   H30149207   7.184   5.696   0.630 -2.1624 -2.2219 -0.8634
  144MOL   H30249208   7.047   5.479   0.587 -0.1216 -0.9345  0.3833
  144MOL   H30349209   7.016   5.537   0.743  0.9378 -4.0119  0.1469
  144MOL   H30449210   6.809   5.452   0.516  0.0839  0.4061 -0.1606
  144MOL   H30549211   6.805   5.432   0.704  0.6569  2.0800  2.5696
  144MOL   H30649212   6.679   5.620   0.518 -0.4498  0.3976  0.2323
  144MOL   H30749213   6.705   5.648   0.698  2.6389 -0.6420  0.6655
  144MOL   C30849214   7.147   5.769   0.435 -0.6648  0.0275  0.6336
  144MOL   C30949215   7.149   5.637   0.356  0.7267 -0.5335  0.0051
  144MOL   N31049216   7.156   5.661   0.212  0.0791  0.5493 -0.2840
  144MOL   C31149217   7.042   5.643   0.119 -0.5057  0.0722 -0.2955
  144MOL   C31249218   7.097   5.681   7.886 -0.1702  0.0819  0.6974
  144MOL   C31349219   7.253   5.677   7.899  0.2148  0.4372 -0.8857
  144MOL   C31449220   7.269   5.688   0.145  0.1048  0.1455  0.6179
  144MOL   O31549221   7.387   5.700   0.188  0.2719  0.0061 -0.5367
  144MOL   H31649222   7.245   5.816   0.430 -0.1364 -0.8268  2.5193
  144MOL   H31749223   7.071   5.830   0.386  0.4124 -0.7087 -2.0602
  144MOL   H31849224   7.050   5.595   0.376  1.1478 -1.3003  0.4837
  144MOL   H31949225   7.018   5.537   0.128  0.8079 -0.3131 -1.2359
  144MOL   H32049226   6.957   5.706   0.142 -0.5895  0.6852 -2.2141
  144MOL   H32149227   7.075   5.604   7.811 -1.1157  0.8553  0.1828
  144MOL   H32249228   7.048   5.771   7.852  0.2653 -0.3366 -1.1009
  144MOL   H32349229   7.296   5.585   7.861 -0.8530  0.4024 -2.0507
  144MOL   H32449230   7.308   5.757   7.850 -3.4901  4.0100  0.4802
  144MOL   C32549231   7.261   5.529   0.410 -0.1076  0.6532 -0.2016
  144MOL   C32649232   7.248   5.393   0.338  0.3745 -0.4962  0.0805
  144MOL   N32749233   7.299   5.273   0.409 -0.6995 -0.0983  0.5111
  144MOL   C32849234   7.217   5.158   0.419 -0.5814 -0.1662 -0.9568
  144MOL   C32949235   7.290   5.077   0.535  0.1833 -0.2859 -0.7497
  144MOL   C33049236   7.434   5.138   0.552  0.5530 -0.2775 -0.2117
  144MOL   C33149237   7.421   5.270   0.470 -0.5508 -0.4587  0.2252
  144MOL   O33249238   7.513   5.356   0.465  0.2240 -0.1793  0.4058
  144MOL   H33349239   7.259   5.497   0.514 -2.0399 -1.6545 -0.8994
  144MOL   H33449240   7.356   5.575   0.382 -0.8128  3.0074  1.1016
  144MOL   H33549241   7.295   5.393   0.240  1.6928 -1.0870  0.6970
  144MOL   H33649242   7.116   5.189   0.444 -0.7111 -0.8577 -0.6157
  144MOL   H33749243   7.211   5.104   0.325 -0.1926 -3.3620  0.7452
  144MOL   H33849244   7.228   5.102   0.620 -0.2383  0.1934 -1.1915
  144MOL   H33949245   7.298   4.972   0.507  0.5438  0.4322 -3.5824
  144MOL   H34049246   7.469   5.154   0.654  0.2314  1.2457 -0.3301
  144MOL   H34149247   7.503   5.071   0.501  0.1448 -0.3883 -0.6250
  144MOL   H34249248   7.143   5.369   0.322 -0.4437  0.7074  3.3090
  145MOL     C149249   7.837   1.523   7.647  0.3065 -0.2812  0.4000
  145MOL     C249250   0.002   1.642   7.719  0.6321  0.0402 -0.2849
  145MOL     N349251   0.032   1.604   7.859  0.6859 -0.5412 -0.3319
  145MOL     C449252   7.883   1.689   0.065 -0.9690  0.8023 -0.0227
  145MOL     C549253   0.029   1.616   0.192 -0.3326 -0.5792 -1.0638
  145MOL     C649254   0.129   1.512   0.139 -0.1270  0.4221  0.4233
  145MOL     C749255   0.116   1.511   7.894 -0.1295  0.1495  0.9357
  145MOL     O849256   0.175   1.432   7.824  0.0954  0.1022  0.2177
  145MOL     H949257   7.792   1.540   7.550  0.3244 -0.7259  0.3103
  145MOL    H1049258   7.902   1.436   7.637 -0.6067 -0.9867  0.5454
  145MOL    H1149259   7.839   1.726   7.724 -1.8832 -1.9017 -1.3160
  145MOL    H1249260   0.018   1.789   0.051  1.5665  0.0119  1.4908
  145MOL    H1349261   7.775   1.704   0.059 -1.3543 -0.7280  2.4188
  145MOL    H1449262   0.067   1.688   0.264  1.0116 -0.7965 -1.5414
  145MOL    H1549263   7.846   1.569   0.233  1.2657 -3.0512 -0.3093
  145MOL    H1649264   0.232   1.542   0.156 -0.8346  3.6464 -0.6238
  145MOL    H1749265   0.114   1.414   0.184  0.5802 -1.1390 -2.5968
  145MOL    H1849266   7.756   1.493   7.714  0.1218 -1.1095 -0.1880
  145MOL    C1949267   0.117   1.698   7.644 -0.4450  0.2906  0.6545
  145MOL    C2049268   0.087   1.747   7.499 -0.6703  0.1554 -0.1111
  145MOL    N2149269   7.885   1.855   7.497 -0.4226 -0.5163  1.1585
  145MOL    C2249270   7.786   1.849   7.393  0.0206 -0.1233 -0.0973
  145MOL    C2349271   7.706   1.980   7.402 -0.1947  0.3928  0.4517
  145MOL    C2449272   7.756   2.053   7.528 -0.4644  0.4697 -0.6910
  145MOL    C2549273   7.865   1.959   7.579 -0.0628 -0.3602 -0.4175
  145MOL    O2649274   0.028   1.991   7.685 -0.4609 -0.2164  0.2043
  145MOL    H2749275   0.190   1.618   7.633  0.5966  0.9695  2.4612
  145MOL    H2849276   0.169   1.775   7.700  0.4392  0.7524 -0.7525
  145MOL    H2949277   0.051   1.656   7.451  2.8701 -1.5470  0.2968
  145MOL    H3049278   7.851   1.843   7.305  1.2040  2.4105  0.5419
  145MOL    H3149279   7.729   1.757   7.406 -0.9538  0.2797 -1.3460
  145MOL    H3249280   7.731   2.041   7.316 -1.5932  0.0088 -0.2515
  145MOL    H3349281   7.597   1.977   7.400 -0.2737  2.8419 -0.8286
  145MOL    H3449282   7.773   2.159   7.513 -3.7882  1.0742 -0.6919
  145MOL    H3549283   7.684   2.045   7.610  1.4182  1.7752  1.1264
  145MOL    C3649284   0.218   1.801   7.443 -0.1848  0.3159 -0.5986
  145MOL    C3749285   0.315   1.689   7.386 -0.2409  0.6410 -0.5168
  145MOL    N3849286   0.237   1.603   7.285 -0.1456 -0.0489 -0.2280
  145MOL    C3949287   0.217   1.463   7.313  0.7881 -0.8737 -0.5483
  145MOL    C4049288   0.207   1.397   7.172  0.0087  0.8106 -0.8036
  145MOL    C4149289   0.148   1.503   7.087  0.0867 -0.2702 -0.6182
  145MOL    C4249290   0.194   1.630   7.161 -0.0408  0.0600 -0.0453
  145MOL    O4349291   0.186   1.739   7.111  0.1516 -0.6137  0.0514
  145MOL    H4449292   0.281   1.852   7.515  1.5291  0.8991 -2.4703
  145MOL    H4549293   0.194   1.879   7.370 -0.2373  1.1213  0.2744
  145MOL    H4649294   0.352   1.624   7.466 -2.0445  0.1089 -0.0909
  145MOL    H4749295   0.301   1.412   7.361  0.5171 -0.0965  0.7857
  145MOL    H4849296   0.126   1.455   7.372  2.2665 -0.8527  1.7943
  145MOL    H4949297   0.305   1.376   7.128  0.4485 -2.9137  1.7051
  145MOL    H5049298   0.155   1.301   7.167 -0.2488  0.8383  1.0548
  145MOL    H5149299   0.198   1.503   6.990 -0.3276  2.6147 -0.8819
  145MOL    H5249300   0.040   1.506   7.073 -0.1754 -1.0073  1.0416
  145MOL    C5349301   0.440   1.744   7.313 -0.0823  0.1123 -0.2590
  145MOL    C5449302   0.534   1.828   7.405  0.2812 -0.1053  0.3750
  145MOL    N5549303   0.593   1.759   7.522 -0.1429  0.6280 -0.0471
  145MOL    C5649304   0.580   1.835   7.646  0.1536 -0.1200  0.7492
  145MOL    C5749305   0.650   1.740   7.749  0.2447  0.8108 -0.0201
  145MOL    C5849306   0.693   1.606   7.671 -0.0555  0.0382  0.4631
  145MOL    C5949307   0.666   1.646   7.530  0.5343 -0.0146 -0.2364
  145MOL    O6049308   0.699   1.576   7.439  0.9130  0.9046  0.4545
  145MOL    H6149309   0.405   1.799   7.226 -0.9548  0.4988  0.3317
  145MOL    H6249310   0.494   1.657   7.274  1.4777  0.1571  1.7300
  145MOL    H6349311   0.476   1.913   7.441 -2.7456 -1.8506 -0.1642
  145MOL    H6449312   0.634   1.929   7.640 -2.3930  1.3048 -0.3532
  145MOL    H6549313   0.474   1.850   7.665  0.1053 -1.5528  1.6956
  145MOL    H6649314   0.733   1.782   7.806  0.9499  0.8970 -1.0927
  145MOL    H6749315   0.576   1.708   7.822 -1.8316  2.4440 -1.3532
  145MOL    H6849316   0.796   1.572   7.682 -0.1702  0.6270  4.0195
  145MOL    H6949317   0.630   1.519   7.687  0.8027 -0.5525  0.6669
  145MOL    C7049318   0.646   1.890   7.311  0.0402  0.4431 -0.1038
  145MOL    C7149319   0.598   1.980   7.193  0.2148 -0.4774  0.0507
  145MOL    N7249320   0.494   2.071   7.243  0.6715 -0.3174  0.7077
  145MOL    C7349321   0.361   2.074   7.188  0.7470 -0.4665 -0.1142
  145MOL    C7449322   0.283   2.165   7.289  0.2112  0.4614  0.8947
  145MOL    C7549323   0.387   2.249   7.358  0.2011 -0.2621  0.1151
  145MOL    C7649324   0.512   2.178   7.326  0.6925  0.2872 -0.6558
  145MOL    O7749325   0.618   2.218   7.376  0.1068 -0.9999  1.0385
  145MOL    H7849326   0.699   1.803   7.271 -1.6637 -0.4717 -0.4330
  145MOL    H7949327   0.727   1.932   7.370 -0.3966 -0.0371  0.8382
  145MOL    H8049328   0.551   1.923   7.113  0.2007 -0.2482 -0.1057
  145MOL    H8149329   0.368   2.114   7.087 -0.1588  1.5608  0.5912
  145MOL    H8249330   0.313   1.977   7.179 -0.2073  0.0104 -0.2169
  145MOL    H8349331   0.208   2.225   7.237  0.3009  0.7286  1.0716
  145MOL    H8449332   0.243   2.101   7.367 -2.9731  1.8917  0.5333
  145MOL    H8549333   0.397   2.350   7.319  2.6597 -0.3760  0.3793
  145MOL    H8649334   0.369   2.252   7.466 -1.3538 -0.8668 -0.1042
  145MOL    C8749335   0.725   2.055   7.127  0.0626  0.0334 -0.2014
  145MOL    C8849336   0.696   2.165   7.030  1.2461  0.1679  0.8284
  145MOL    N8949337   0.827   2.231   7.001 -0.0147  0.2095 -0.3533
  145MOL    C9049338   0.853   2.368   7.044  0.5009 -0.0391  0.3429
  145MOL    C9149339   1.002   2.393   7.033  1.0063  0.1188 -0.1641
  145MOL    C9249340   1.056   2.262   6.966  0.3088  0.5594  0.6497
  145MOL    C9349341   0.934   2.174   6.943 -0.3095 -0.0273  0.2281
  145MOL    O9449342   0.936   2.071   6.874  0.4608 -0.1547 -0.0205
  145MOL    H9549343   0.777   1.977   7.071  1.5063  1.0097 -0.2557
  145MOL    H9649344   0.796   2.095   7.200 -1.2138  2.2375 -0.1264
  145MOL    H9749345   0.640   2.245   7.079  2.7442  2.0974 -0.5234
  145MOL    H9849346   0.805   2.444   6.982  0.4818  0.4555  0.9585
  145MOL    H9949347   0.819   2.379   7.147  2.0624 -0.8773  0.9803
  145MOL   H10049348   1.026   2.465   6.955 -0.4663 -0.6503 -1.3515
  145MOL   H10149349   1.038   2.407   7.135  1.8370 -0.1235 -0.4171
  145MOL   H10249350   1.114   2.282   6.875 -0.3511 -2.4057 -0.4788
  145MOL   H10349351   1.124   2.214   7.036  1.3001  3.7207  1.9330
  145MOL   C10449352   0.615   2.131   6.905  0.2123 -0.1329  0.3794
  145MOL   C10549353   0.585   2.249   6.812 -0.2620  1.2316 -0.4751
  145MOL   N10649354   0.501   2.201   6.698  0.5234 -0.2075  0.0069
  145MOL   C10749355   0.565   2.185   6.563 -0.4519  0.3961  0.0298
  145MOL   C10849356   0.474   2.090   6.487  0.4504  0.4051  0.2466
  145MOL   C10949357   0.345   2.090   6.569  0.4064 -0.1889  0.9937
  145MOL   C11049358   0.376   2.155   6.702 -0.1386  0.1862 -0.3739
  145MOL   O11149359   0.291   2.162   6.786  0.2933  0.4063  0.7076
  145MOL   H11249360   0.527   2.081   6.944  0.5575  0.0189  1.3608
  145MOL   H11349361   0.670   2.051   6.854 -0.2211  0.6766 -1.3923
  145MOL   H11449362   0.680   2.284   6.772  1.0972 -1.7174  0.0094
  145MOL   H11549363   0.575   2.282   6.514  0.2707  0.3620  0.1101
  145MOL   H11649364   0.663   2.139   6.570 -0.6862  0.1358  2.0478
  145MOL   H11749365   0.465   2.124   6.384 -0.0934  0.9501  0.4736
  145MOL   H11849366   0.503   1.985   6.477  0.3532  0.1040  2.8519
  145MOL   H11949367   0.309   1.988   6.574 -2.3054  0.6106 -1.5465
  145MOL   H12049368   0.271   2.140   6.508  0.5010 -0.4041  0.7019
  145MOL   C12149369   0.509   2.369   6.874  0.3769 -0.5141 -0.7279
  145MOL   C12249370   0.500   2.487   6.772 -0.2231  0.2536  0.3103
  145MOL   N12349371   0.366   2.544   6.753  0.2371  0.4862  0.1873
  145MOL   C12449372   0.296   2.604   6.868  0.5118  0.1955  0.8069
  145MOL   C12549373   0.152   2.604   6.825  0.0554  0.6030 -0.5601
  145MOL   C12649374   0.148   2.542   6.683 -0.0677  0.5275 -0.2187
  145MOL   C12749375   0.289   2.512   6.650  0.1051  0.0673 -0.4771
  145MOL   O12849376   0.321   2.462   6.545 -0.4513  0.1651  1.0415
  145MOL   H12949377   0.558   2.408   6.963  1.1644  0.8744 -1.7574
  145MOL   H13049378   0.404   2.342   6.887  0.0417  1.3382  0.4861
  145MOL   H13149379   0.539   2.453   6.677 -0.3236 -1.3947  0.8456
  145MOL   H13249380   0.329   2.708   6.873  0.1772  0.2167  3.0750
  145MOL   H13349381   0.323   2.572   6.968 -0.1452  1.0725  1.2727
  145MOL   H13449382   0.080   2.549   6.884  1.2603  0.1544  0.5082
  145MOL   H13549383   0.096   2.698   6.827  0.5929  0.9823 -2.3057
  145MOL   H13649384   0.084   2.453   6.687 -0.7681  1.0535  0.3067
  145MOL   H13749385   0.102   2.612   6.613 -0.7367  1.4280  1.1154
  145MOL   C13849386   0.590   2.603   6.819 -0.2712 -0.0436 -0.7437
  145MOL   C13949387   0.630   2.697   6.703 -0.0010 -0.4619 -0.0105
  145MOL   N14049388   0.686   2.818   6.751  0.1321 -0.4479 -0.3093
  145MOL   C14149389   0.642   2.935   6.685 -0.0716 -0.0120 -0.2164
  145MOL   C14249390   0.736   3.046   6.731  0.8803  0.0807 -0.0450
  145MOL   C14349391   0.824   2.983   6.848  0.3217  0.3832 -0.2890
  145MOL   C14449392   0.788   2.836   6.835  0.7483 -0.4584 -0.3487
  145MOL   O14549393   0.848   2.741   6.886 -0.3390 -0.0187  0.2801
  145MOL   H14649394   0.683   2.561   6.857 -1.0858 -0.6271  0.6445
  145MOL   H14749395   0.544   2.666   6.895  0.1087 -0.6214 -0.0273
  145MOL   H14849396   0.539   2.724   6.650 -0.1159  0.8739  0.8569
  145MOL   H14949397   0.647   2.940   6.576 -1.1511 -0.3941 -0.2859
  145MOL   H15049398   0.537   2.938   6.712 -0.3066  3.1215 -1.2757
  145MOL   H15149399   0.792   3.062   6.638 -1.6534 -0.6552 -1.7441
  145MOL   H15249400   0.682   3.133   6.766  1.5625  0.3958  0.2276
  145MOL   H15349401   0.791   3.033   6.939 -0.0020  0.2457 -0.3288
  145MOL   H15449402   0.930   3.003   6.834  0.3694  0.3765  0.0692
  145MOL   C15549403   0.717   2.630   6.596 -0.0685 -0.5595  0.0929
  145MOL   C15649404   0.645   2.616   6.460 -0.5037 -0.3817  0.3318
  145MOL   N15749405   0.623   2.745   6.389 -0.1034 -0.3549 -0.1551
  145MOL   C15849406   0.484   2.797   6.374 -0.0107 -0.3272  0.7437
  145MOL   C15949407   0.485   2.914   6.276  0.3981 -0.0948 -0.6480
  145MOL   C16049408   0.636   2.920   6.234  0.0900 -0.1258  0.3128
  145MOL   C16149409   0.705   2.821   6.315 -1.4533 -0.2267 -0.6814
  145MOL   O16249410   0.832   2.817   6.321 -0.0128  0.4614  0.4725
  145MOL   H16349411   0.754   2.531   6.622  1.7585 -0.2769 -1.3544
  145MOL   H16449412   0.814   2.677   6.579 -0.1459 -0.2007  0.6173
  145MOL   H16549413   0.546   2.569   6.468 -2.1162  2.8509  0.2117
  145MOL   H16649414   0.414   2.716   6.350 -0.2647  0.4419 -1.2095
  145MOL   H16749415   0.455   2.839   6.470  1.6989  0.7561  0.7975
  145MOL   H16849416   0.426   2.895   6.187  0.8436  0.4979 -1.0755
  145MOL   H16949417   0.446   3.006   6.321  0.0496 -0.6370  0.1665
  145MOL   H17049418   0.643   2.881   6.132 -1.5022  1.2272 -0.3196
  145MOL   H17149419   0.678   3.018   6.255 -0.4543 -0.0995  1.2997
  145MOL   C17249420   0.721   2.519   6.362  0.0173  0.2489  0.5236
  145MOL   C17349421   0.642   2.491   6.233  0.0832  0.3661  0.0513
  145MOL   N17449422   0.724   2.415   6.141  0.1188  0.2549 -0.0487
  145MOL   C17549423   0.767   2.485   6.018 -0.1132 -0.2100 -0.2055
  145MOL   C17649424   0.839   2.375   5.931  0.4349  0.3247  0.6186
  145MOL   C17749425   0.828   2.241   6.014  0.4633 -0.0976  0.2451
  145MOL   C17849426   0.756   2.286   6.145  0.2895  1.2130  0.1061
  145MOL   O17949427   0.729   2.209   6.236  0.2571  0.6281 -0.3371
  145MOL   H18049428   0.729   2.424   6.416 -0.7564  0.2294  0.6064
  145MOL   H18149429   0.818   2.567   6.348  0.1604  0.8333  3.2115
  145MOL   H18249430   0.634   2.593   6.195 -0.5549  0.4329  0.3517
  145MOL   H18349431   0.677   2.534   5.981 -0.3787  0.4211  1.2314
  145MOL   H18449432   0.837   2.563   6.049  0.6889 -1.2462  0.6544
  145MOL   H18549433   0.947   2.374   5.912  0.1681 -1.8614 -1.0566
  145MOL   H18649434   0.782   2.355   5.840  1.5965  1.4443 -0.3828
  145MOL   H18749435   0.783   2.156   5.964  0.8110 -0.0616 -0.1336
  145MOL   H18849436   0.927   2.209   6.047 -0.0454 -0.0470  1.9087
  145MOL   C18949437   0.501   2.425   6.252  0.0950  0.2010  0.5844
  145MOL   C19049438   0.425   2.404   6.121  0.9211  0.9968 -0.0010
  145MOL   N19149439   0.299   2.327   6.146  0.0943 -0.5047  1.3084
  145MOL   C19249440   0.284   2.194   6.087  0.2651 -0.1500  0.0957
  145MOL   C19349441   0.142   2.156   6.120  0.2868  0.7728 -0.1135
  145MOL   C19449442   0.084   2.261   6.217 -0.3247  0.4294 -0.0269
  145MOL   C19549443   0.194   2.372   6.214 -0.3080  0.5062 -0.5385
  145MOL   O19649444   0.184   2.487   6.264 -0.0704 -0.2477 -0.4678
  145MOL   H19749445   0.439   2.493   6.310 -0.5885  2.8316 -3.0839
  145MOL   H19849446   0.503   2.329   6.303  1.0024 -1.6510 -2.7756
  145MOL   H19949447   0.484   2.346   6.050 -0.6800 -1.4167  0.5464
  145MOL   H20049448   0.300   2.190   5.979  0.5276  1.3188  0.0733
  145MOL   H20149449   0.364   2.139   6.138  0.3655  0.1182  0.2282
  145MOL   H20249450   0.087   2.152   6.026  0.1043  1.2771 -0.0299
  145MOL   H20349451   0.138   2.056   6.162 -0.3560 -0.2512 -2.5315
  145MOL   H20449452   7.893   2.301   6.185  0.8878  2.5812 -1.1017
  145MOL   H20549453   0.064   2.238   6.321  2.5182 -2.0259  0.0529
  145MOL   C20649454   0.402   2.541   6.053  0.7689 -0.3590 -0.0878
  145MOL   C20749455   0.322   2.526   5.924 -0.3306  0.3163 -0.1610
  145MOL   N20849456   0.275   2.660   5.887 -0.1888  0.6089 -0.4436
  145MOL   C20949457   0.137   2.680   5.925 -0.0259  0.1481  0.3005
  145MOL   C21049458   0.103   2.819   5.859 -0.5702  0.1524  0.3141
  145MOL   C21149459   0.239   2.882   5.828  1.2305 -0.1650  0.6620
  145MOL   C21249460   0.337   2.777   5.858  0.4320  0.6350  0.2375
  145MOL   O21349461   0.458   2.796   5.855 -0.0229 -0.1598 -0.1148
  145MOL   H21449462   0.485   2.611   6.056  0.7002 -0.2813 -0.0187
  145MOL   H21549463   0.335   2.595   6.120  1.9955  1.9618 -0.6755
  145MOL   H21649464   0.238   2.458   5.938  2.4559 -3.0092  1.1909
  145MOL   H21749465   0.078   2.604   5.874 -1.4352  1.8591 -0.6581
  145MOL   H21849466   0.123   2.679   6.033 -1.0256  0.3365  0.1765
  145MOL   H21949467   0.054   2.800   5.764 -0.3405 -2.9864  0.7719
  145MOL   H22049468   0.034   2.879   5.919  0.1605  2.5030 -1.1334
  145MOL   H22149469   0.242   2.919   5.725  2.7564 -0.7769  0.4686
  145MOL   H22249470   0.261   2.960   5.901 -0.3706 -0.3387  1.3417
  145MOL   C22349471   0.412   2.465   5.814 -0.0840  0.0812 -0.2965
  145MOL   C22449472   0.337   2.377   5.700  0.2643 -0.1439 -0.1232
  145MOL   N22549473   0.228   2.453   5.641 -0.0764  0.1382  0.2923
  145MOL   C22649474   0.098   2.384   5.623  1.0398 -0.2483  0.1796
  145MOL   C22749475   0.011   2.494   5.566  0.5484 -0.6189  0.0140
  145MOL   C22849476   0.099   2.596   5.497  0.0347  0.2780 -1.1108
  145MOL   C22949477   0.234   2.562   5.563 -0.3607  0.2989 -0.0481
  145MOL   O23049478   0.328   2.629   5.528  0.2162 -0.2685  0.0207
  145MOL   H23149479   0.487   2.407   5.869 -0.2679  0.6793  0.5926
  145MOL   H23249480   0.479   2.540   5.772 -0.9575  0.2868 -1.3293
  145MOL   H23349481   0.302   2.298   5.765  1.1262  0.3576  0.9731
  145MOL   H23449482   0.102   2.297   5.557 -1.9615 -0.2351 -0.0843
  145MOL   H23549483   0.061   2.339   5.715  0.8905 -1.3936 -0.4331
  145MOL   H23649484   7.859   2.453   5.483  2.4137 -1.1589 -1.0561
  145MOL   H23749485   7.848   2.544   5.633  0.0399 -1.0023 -0.2206
  145MOL   H23849486   0.103   2.586   5.388  2.8420 -0.3078 -0.9890
  145MOL   H23949487   0.064   2.696   5.523 -0.2042  0.3396 -1.6554
  145MOL   C24049488   0.435   2.322   5.594  0.4737  0.3893  0.3759
  145MOL   C24149489   0.534   2.215   5.644  0.3123  0.3561  0.1399
  145MOL   N24249490   0.470   2.114   5.735  0.0952  0.0451  0.1686
  145MOL   C24349491   0.555   2.069   5.840  0.1484  0.3172  0.1745
  145MOL   C24449492   0.475   1.948   5.898  0.0422  0.2115 -0.2740
  145MOL   C24549493   0.345   1.941   5.826 -0.4849 -0.4071  0.2350
  145MOL   C24649494   0.358   2.042   5.714 -0.3029 -0.2704  0.2321
  145MOL   O24749495   0.276   2.048   5.624 -0.1814  0.5169 -0.4031
  145MOL   H24849496   0.480   2.413   5.554 -2.5427  2.2125  1.0065
  145MOL   H24949497   0.372   2.271   5.521 -0.3907 -0.6315  1.7997
  145MOL   H25049498   0.605   2.278   5.699 -1.4337  2.7553 -0.2450
  145MOL   H25149499   0.647   2.020   5.805  1.5711  2.1280  1.2925
  145MOL   H25249500   0.571   2.142   5.919 -0.1029  0.6210 -0.0565
  145MOL   H25349501   0.528   1.853   5.890  1.3128  1.0776 -2.2637
  145MOL   H25449502   0.467   1.962   6.006  2.6312  2.0943 -0.2835
  145MOL   H25549503   0.332   1.842   5.781  1.2466 -0.5913  0.1089
  145MOL   H25649504   0.253   1.965   5.880 -0.9636  0.3812 -0.9175
  145MOL   C25749505   0.601   2.150   5.524 -0.2864 -0.4054  0.1696
  145MOL   C25849506   0.665   2.224   5.409 -0.7077 -0.0738  0.0462
  145MOL   N25949507   0.784   2.303   5.453 -0.4928 -0.7240 -0.6867
  145MOL   C26049508   0.776   2.451   5.460  0.5960  0.1529 -0.1571
  145MOL   C26149509   0.906   2.501   5.520 -0.0915 -0.2819 -0.1197
  145MOL   C26249510   1.004   2.379   5.514 -0.3953  0.4109  0.4948
  145MOL   C26349511   0.915   2.261   5.472 -0.0725  0.2152  0.7028
  145MOL   O26449512   0.952   2.142   5.458  0.7428  0.6471  0.1977
  145MOL   H26549513   0.520   2.102   5.468 -2.3625  0.1086  2.6254
  145MOL   H26649514   0.672   2.074   5.556  1.1938  0.3501 -1.2826
  145MOL   H26749515   0.590   2.293   5.372  0.7797  1.8118  0.4360
  145MOL   H26849516   0.759   2.488   5.359  1.0778  0.4639 -0.1213
  145MOL   H26949517   0.691   2.483   5.521 -0.3548 -0.5510 -1.1061
  145MOL   H27049518   0.948   2.576   5.453 -3.3804  1.1615 -0.6889
  145MOL   H27149519   0.883   2.542   5.618  1.6820 -0.8008  0.5212
  145MOL   H27249520   1.098   2.395   5.462  1.5234 -1.8148  3.1523
  145MOL   H27349521   1.034   2.344   5.612 -1.9693 -0.9641  0.5146
  145MOL   C27449522   0.696   2.142   5.277  0.7307 -0.1956 -0.7512
  145MOL   C27549523   0.563   2.116   5.205  0.5346  0.0367  0.1387
  145MOL   N27649524   0.513   2.231   5.122 -0.0334  0.1640 -0.7049
  145MOL   C27749525   0.379   2.281   5.153 -0.6154  0.0894 -0.1933
  145MOL   C27849526   0.339   2.364   5.024  0.0411 -0.0939 -0.3647
  145MOL   C27949527   0.473   2.389   4.947 -0.0747  0.2556  0.1271
  145MOL   C28049528   0.566   2.282   5.006  0.1431  0.3168 -0.2535
  145MOL   O28149529   0.676   2.252   4.963  0.2100  0.0196  0.0702
  145MOL   H28249530   0.754   2.052   5.299 -4.2174 -3.2926  0.5329
  145MOL   H28349531   0.761   2.190   5.205  0.7092  1.7135  0.4624
  145MOL   H28449532   0.478   2.101   5.273 -0.9500 -2.9340 -2.2491
  145MOL   H28549533   0.300   2.215   5.189  0.8584 -0.5734  1.9013
  145MOL   H28649534   0.402   2.341   5.241 -1.0044  1.7848 -1.2314
  145MOL   H28749535   0.273   2.308   4.959 -2.0537  0.1080  1.5474
  145MOL   H28849536   0.286   2.455   5.051  0.3297  0.5722 -2.0146
  145MOL   H28949537   0.470   2.394   4.839 -2.3494  1.6203  0.2287
  145MOL   H29049538   0.512   2.486   4.979  0.8358  0.4923 -1.6390
  145MOL   C29149539   0.565   1.985   5.128  0.5609  0.7332  0.4332
  145MOL   C29249540   0.553   1.855   5.214 -0.7571 -0.5854 -0.0833
  145MOL   N29349541   0.431   1.853   5.294 -0.5745 -0.2784  0.4710
  145MOL   C29449542   0.443   1.789   5.423  0.4434 -0.0338 -0.0027
  145MOL   C29549543   0.297   1.758   5.459  0.3670  0.3027  0.2075
  145MOL   C29649544   0.212   1.852   5.368 -0.2897 -0.3187 -0.6087
  145MOL   C29749545   0.304   1.882   5.260 -0.2409  0.6210  0.4963
  145MOL   O29849546   0.268   1.924   5.153 -0.6560 -0.1545 -0.5564
  145MOL   H29949547   0.648   1.983   5.058  0.8969  0.5834  0.8338
  145MOL   H30049548   0.485   1.978   5.053 -0.1311  1.5264  1.0873
  145MOL   H30149549   0.643   1.855   5.276 -0.6159 -2.9150 -0.2338
  145MOL   H30249550   0.509   1.704   5.439  2.3340  1.2508 -0.7861
  145MOL   H30349551   0.483   1.862   5.494 -0.3743  0.1260  0.3048
  145MOL   H30449552   0.277   1.655   5.429  1.8400 -0.1612  0.8209
  145MOL   H30549553   0.277   1.767   5.566 -1.0575  1.0510 -0.1052
  145MOL   H30649554   0.119   1.806   5.333 -1.2569 -1.2351  2.9696
  145MOL   H30749555   0.181   1.947   5.413  0.8004  0.3632 -1.2549
  145MOL   C30849556   0.559   1.730   5.124  0.4963  0.6168  0.3952
  145MOL   C30949557   0.700   1.710   5.062 -1.3798  0.6327  0.2851
  145MOL   N31049558   0.803   1.686   5.169 -0.8494  0.2145 -0.8350
  145MOL   C31149559   0.929   1.754   5.159  0.0403 -0.1379  0.4413
  145MOL   C31249560   1.009   1.708   5.279 -0.3323  0.1449 -0.3747
  145MOL   C31349561   0.927   1.600   5.347  0.5834  0.1059  0.1430
  145MOL   C31449562   0.803   1.588   5.265  0.2949  0.6959 -0.5511
  145MOL   O31549563   0.717   1.500   5.276  0.0423  0.3140  0.0960
  145MOL   H31649564   0.490   1.746   5.041 -1.2183 -1.3260  1.4026
  145MOL   H31749565   0.513   1.642   5.169  0.8589 -0.4148 -1.2302
  145MOL   H31849566   0.731   1.795   5.000  1.3203  0.9515  1.9786
  145MOL   H31949567   0.992   1.724   5.075  1.1315 -0.3933  1.3266
  145MOL   H32049568   0.922   1.862   5.157 -1.3622 -0.2019  1.1512
  145MOL   H32149569   1.107   1.681   5.240 -0.1785  0.0183  0.1109
  145MOL   H32249570   1.013   1.793   5.348 -1.3828  0.0029 -0.1344
  145MOL   H32349571   0.985   1.508   5.355 -1.2476 -1.2763 -2.0507
  145MOL   H32449572   0.901   1.638   5.446  0.4868 -0.6348  0.4047
  145MOL   C32549573   0.681   1.592   4.965  0.1079 -0.5335  0.2903
  145MOL   C32649574   0.610   1.622   4.835 -0.0180  0.0809  0.3379
  145MOL   N32749575   0.650   1.526   4.727  0.9670  0.2438 -0.0269
  145MOL   C32849576   0.551   1.426   4.680 -0.3343  0.3362  0.7767
  145MOL   C32949577   0.624   1.360   4.562  0.1228 -0.1713 -0.2132
  145MOL   C33049578   0.760   1.428   4.546 -0.6360  0.0843  0.4544
  145MOL   C33149579   0.755   1.534   4.648  0.4040  0.2507  0.2599
  145MOL   O33249580   0.835   1.623   4.650 -0.0667  0.0046  0.1250
  145MOL   H33349581   0.638   1.499   5.002 -1.2618 -0.3827 -0.8756
  145MOL   H33449582   0.779   1.557   4.935 -0.2117  1.4362 -3.3733
  145MOL   H33549583   0.638   1.723   4.808 -1.0434 -0.0381 -1.2321
  145MOL   H33649584   0.535   1.364   4.768  0.4012  0.1508  0.7770
  145MOL   H33749585   0.463   1.478   4.640  0.4781  1.2529  0.1621
  145MOL   H33849586   0.628   1.251   4.561  1.5169 -0.1239 -2.0754
  145MOL   H33949587   0.577   1.367   4.464 -0.3843 -0.1399  0.0295
  145MOL   H34049588   0.833   1.353   4.577 -0.2046 -0.3888 -1.6322
  145MOL   H34149589   0.769   1.460   4.443 -1.0609 -0.2918  0.2968
  145MOL   H34249590   0.503   1.617   4.859  0.7527  1.3739  4.4238
  146MOL     C149591   7.182   4.139   2.683  0.2627  0.3025 -0.3318
  146MOL     C249592   7.108   4.253   2.611  0.2355 -0.2001 -0.4457
  146MOL     N349593   7.191   4.327   2.515 -0.2155  0.0421  0.1925
  146MOL     C449594   7.227   4.461   2.553 -0.7801  0.7828  0.3032
  146MOL     C549595   7.316   4.517   2.434  0.4359  0.2379  0.4471
  146MOL     C649596   7.291   4.422   2.317  0.0254 -0.0268 -0.2219
  146MOL     C749597   7.231   4.296   2.387 -0.4088  0.3848  0.5971
  146MOL     O849598   7.216   4.182   2.335  0.3163  0.2432 -0.4019
  146MOL     H949599   7.206   4.066   2.605 -2.8435  0.4256 -1.4592
  146MOL    H1049600   7.281   4.169   2.719  0.5658 -0.6685 -0.3223
  146MOL    H1149601   7.095   4.325   2.692  0.6642  0.6263 -1.0959
  146MOL    H1249602   7.140   4.519   2.585 -1.6824 -1.6707  2.3998
  146MOL    H1349603   7.289   4.464   2.643 -1.6293  0.1817  0.9052
  146MOL    H1449604   7.289   4.622   2.421  2.1339  0.4869 -1.2526
  146MOL    H1549605   7.420   4.510   2.466 -0.0992 -1.2614  1.9578
  146MOL    H1649606   7.226   4.473   2.246  1.3687 -0.6642 -1.9707
  146MOL    H1749607   7.387   4.401   2.268  1.2677  1.7306  1.3699
  146MOL    H1849608   7.134   4.088   2.766 -1.4030  0.6878 -1.0317
  146MOL    C1949609   6.973   4.217   2.541  0.2942  0.9489 -0.1934
  146MOL    C2049610   6.890   4.340   2.501  0.6336 -0.5304  0.2121
  146MOL    N2149611   6.820   4.312   2.382  0.0962 -0.4435  0.3885
  146MOL    C2249612   6.876   4.358   2.254 -0.2861  0.4348 -0.3014
  146MOL    C2349613   6.783   4.312   2.141 -0.7334 -0.3931 -0.0093
  146MOL    C2449614   6.653   4.270   2.221  0.2058 -0.2299  0.0018
  146MOL    C2549615   6.692   4.266   2.370  0.2240 -0.2976 -0.2010
  146MOL    O2649616   6.615   4.226   2.463 -0.1479 -0.3925  0.0225
  146MOL    H2749617   6.913   4.153   2.607  0.6077 -0.7188 -1.5035
  146MOL    H2849618   6.999   4.155   2.456  0.2295 -0.7037  0.9716
  146MOL    H2949619   6.965   4.413   2.473  0.0171  0.2898  0.6899
  146MOL    H3049620   6.867   4.466   2.248 -2.6583  0.1709 -2.4571
  146MOL    H3149621   6.979   4.324   2.255  0.0842  1.5610 -0.0880
  146MOL    H3249622   6.758   4.389   2.068 -1.1089  2.3779  2.9026
  146MOL    H3349623   6.811   4.222   2.087 -1.3959 -1.6762  1.7100
  146MOL    H3449624   6.580   4.348   2.202 -0.5604 -0.9478 -0.0389
  146MOL    H3549625   6.605   4.176   2.195  2.2035 -1.2922  0.0555
  146MOL    C3649626   6.809   4.389   2.621  0.0626  0.0933  0.6302
  146MOL    C3749627   6.724   4.518   2.606  0.0352 -0.1135  0.0644
  146MOL    N3849628   6.670   4.562   2.736  0.3767 -0.0396  0.9465
  146MOL    C3949629   6.538   4.510   2.773 -0.1696 -0.2515 -0.4800
  146MOL    C4049630   6.527   4.541   2.927 -0.3684  0.0845 -0.2209
  146MOL    C4149631   6.661   4.600   2.968 -0.2622  0.3283 -0.3157
  146MOL    C4249632   6.739   4.607   2.840  0.5074 -0.1347  0.4778
  146MOL    O4349633   6.852   4.648   2.842 -0.0800  0.0021  0.0331
  146MOL    H4449634   6.879   4.413   2.700 -1.2564  1.4156  1.4180
  146MOL    H4549635   6.748   4.309   2.663 -1.9936  1.8653  1.1279
  146MOL    H4649636   6.639   4.491   2.544 -0.7066  0.4168  0.8354
  146MOL    H4749637   6.464   4.574   2.724 -1.7087 -1.2899  0.4304
  146MOL    H4849638   6.525   4.406   2.742 -1.2175 -0.3257  0.1806
  146MOL    H4949639   6.441   4.603   2.953 -0.0914  0.8330 -1.0753
  146MOL    H5049640   6.525   4.449   2.986 -1.9391 -0.3409 -0.9160
  146MOL    H5149641   6.647   4.699   3.013 -2.1166 -0.6917  1.3996
  146MOL    H5249642   6.716   4.534   3.035 -1.8150  1.1018  1.7945
  146MOL    C5349643   6.791   4.624   2.522 -0.6558  0.3605 -0.4462
  146MOL    C5449644   6.699   4.743   2.486  0.0973  0.7193 -0.1153
  146MOL    N5549645   6.786   4.856   2.447  0.3874 -0.2141  0.0344
  146MOL    C5649646   6.785   4.987   2.516 -1.1614  0.0205  0.2233
  146MOL    C5749647   6.870   5.079   2.429 -0.0932  0.4883 -0.1993
  146MOL    C5849648   6.924   4.993   2.323 -0.8640  0.6167  0.8925
  146MOL    C5949649   6.870   4.858   2.345 -0.6137 -0.2702  0.0829
  146MOL    O6049650   6.898   4.765   2.271  0.0036  0.4826 -0.0977
  146MOL    H6149651   6.826   4.576   2.431  1.0177  1.0771 -0.1986
  146MOL    H6249652   6.885   4.657   2.566 -0.8001  0.2006 -0.0118
  146MOL    H6349653   6.665   4.786   2.580 -2.7468 -0.2884 -0.6206
  146MOL    H6449654   6.684   5.027   2.529 -1.1098  0.5907 -1.0540
  146MOL    H6549655   6.830   4.960   2.612 -2.0432 -0.0891  0.6116
  146MOL    H6649656   6.811   5.147   2.367 -0.2171 -0.0738 -0.7005
  146MOL    H6749657   6.943   5.138   2.485 -0.4391  0.8215 -0.1012
  146MOL    H6849658   6.905   5.018   2.219  0.2186 -1.4067  0.1653
  146MOL    H6949659   7.030   4.972   2.338 -1.1561 -0.3902  1.6163
  146MOL    C7049660   6.581   4.703   2.386 -0.7255  0.4112  0.1973
  146MOL    C7149661   6.488   4.805   2.320 -0.2936  0.5765  0.2426
  146MOL    N7249662   6.562   4.900   2.232  0.2071 -0.3706 -0.1835
  146MOL    C7349663   6.553   5.047   2.252  0.5852  0.2318 -0.2315
  146MOL    C7449664   6.623   5.108   2.129  0.1922 -0.0841  0.2378
  146MOL    C7549665   6.663   4.995   2.037 -0.2482  0.3335 -0.5104
  146MOL    C7649666   6.625   4.871   2.114  0.0751  0.4858 -0.4596
  146MOL    O7749667   6.621   4.761   2.060  0.0573  0.1872 -0.7624
  146MOL    H7849668   6.518   4.624   2.428  1.1997 -1.2257  0.0642
  146MOL    H7949669   6.632   4.658   2.301  1.1799  0.5116  1.2772
  146MOL    H8049670   6.453   4.860   2.407  0.1943 -2.0526  2.1769
  146MOL    H8149671   6.446   5.064   2.252  0.9135  2.3894 -1.0093
  146MOL    H8249672   6.595   5.072   2.349 -3.0253 -0.7350  1.6896
  146MOL    H8349673   6.560   5.166   2.061  0.3725 -1.1060 -0.8113
  146MOL    H8449674   6.706   5.173   2.154  1.8581 -1.6639 -1.1060
  146MOL    H8549675   6.611   4.998   1.941  1.1025  1.6303 -1.2325
  146MOL    H8649676   6.769   5.004   2.012 -0.5706  1.8284 -1.4023
  146MOL    C8749677   6.386   4.728   2.235 -0.2222 -0.2410 -0.3527
  146MOL    C8849678   6.263   4.670   2.311 -0.1152  0.1468 -0.4866
  146MOL    N8949679   6.187   4.762   2.396 -0.1235  0.4072  0.3521
  146MOL    C9049680   6.128   4.882   2.337 -0.4993 -0.4291 -0.0834
  146MOL    C9149681   6.065   4.954   2.460  0.1256 -0.1968  0.3045
  146MOL    C9249682   6.071   4.855   2.577  0.2224 -0.9159 -0.1868
  146MOL    C9349683   6.150   4.744   2.525  0.2119  0.3242  0.6134
  146MOL    O9449684   6.186   4.653   2.599  0.7620 -0.1777 -0.7548
  146MOL    H9549685   6.426   4.644   2.179  0.0437  0.5437 -1.3562
  146MOL    H9649686   6.353   4.790   2.151 -1.0091  2.4887  1.9132
  146MOL    H9749687   6.302   4.604   2.389  0.3975  0.8135 -0.1742
  146MOL    H9849688   6.210   4.938   2.292  0.1365 -2.7599 -1.9394
  146MOL    H9949689   6.047   4.859   2.267  0.0180 -2.6080  0.0146
  146MOL   H10049690   6.122   5.042   2.490 -3.0435  1.4949  1.5668
  146MOL   H10149691   5.966   4.991   2.432 -0.9387 -2.2721  1.2280
  146MOL   H10249692   6.113   4.907   2.664 -2.2374  2.0899 -0.7133
  146MOL   H10349693   5.971   4.824   2.606 -1.0690  2.8864 -0.2580
  146MOL   C10449694   6.173   4.587   2.217  0.7199  0.0334 -0.0521
  146MOL   C10549695   6.211   4.433   2.175 -0.2160 -0.4597  0.5397
  146MOL   N10649696   6.200   4.341   2.289  0.1361  0.6574  0.3329
  146MOL   C10749697   6.324   4.286   2.337  0.0052  0.0033 -0.1630
  146MOL   C10849698   6.290   4.168   2.437  0.7460 -0.2563 -0.4202
  146MOL   C10949699   6.141   4.195   2.457 -0.5544  0.5059 -0.2767
  146MOL   C11049700   6.095   4.288   2.355 -0.0994  0.4064 -0.3632
  146MOL   O11149701   5.980   4.311   2.329  0.2335 -0.0219 -0.4557
  146MOL   H11249702   6.154   4.633   2.121 -1.4809 -0.9026 -0.0876
  146MOL   H11349703   6.079   4.564   2.267  0.2524 -0.6041 -1.2034
  146MOL   H11449704   6.314   4.438   2.140 -0.3244  0.8859  0.3878
  146MOL   H11549705   6.368   4.251   2.243 -1.2211  1.0331 -1.1313
  146MOL   H11649706   6.378   4.364   2.391 -0.6990  0.3360  0.0525
  146MOL   H11749707   6.296   4.077   2.378 -2.3251 -0.6814 -0.1563
  146MOL   H11849708   6.339   4.177   2.534  0.1433  1.5750 -0.2633
  146MOL   H11949709   6.117   4.245   2.551  1.1812  1.2621 -0.2267
  146MOL   H12049710   6.087   4.100   2.457  0.6471 -0.1928 -0.6280
  146MOL   C12149711   6.137   4.373   2.049 -0.2514  0.0875  0.5231
  146MOL   C12249712   6.182   4.426   1.908  0.2709  0.0315 -0.1562
  146MOL   N12349713   6.326   4.409   1.893  0.9691 -0.5630 -0.6748
  146MOL   C12449714   6.406   4.524   1.869 -0.6635  0.1495  0.3083
  146MOL   C12549715   6.547   4.477   1.895  0.0832  0.0660 -0.2543
  146MOL   C12649716   6.537   4.329   1.886 -0.6029 -0.1248  0.2462
  146MOL   C12749717   6.397   4.293   1.897 -0.5633 -0.6020  0.1596
  146MOL   O12849718   6.361   4.177   1.911 -0.1797 -0.2947 -0.1566
  146MOL   H12949719   6.033   4.394   2.074 -0.6733 -2.5592  1.1788
  146MOL   H13049720   6.149   4.264   2.049  0.6871  0.1788 -0.6045
  146MOL   H13149721   6.160   4.532   1.895  0.3775  0.0030 -0.5609
  146MOL   H13249722   6.381   4.610   1.930 -1.9454 -1.3962  2.0376
  146MOL   H13349723   6.393   4.554   1.765  0.2583  1.1779  0.4836
  146MOL   H13449724   6.600   4.513   1.807 -0.3357 -0.2190 -0.6227
  146MOL   H13549725   6.591   4.527   1.981  0.1265  2.1952 -1.4849
  146MOL   H13649726   6.593   4.285   1.804 -0.1328  2.2501 -0.7561
  146MOL   H13749727   6.581   4.281   1.973  0.4330  1.5795  0.7062
  146MOL   C13849728   6.117   4.357   1.785 -0.6681 -0.4595 -0.4058
  146MOL   C13949729   6.113   4.451   1.661  1.0071 -0.0919  0.2320
  146MOL   N14049730   6.143   4.381   1.535 -0.1415  0.4767  0.4144
  146MOL   C14149731   6.082   4.252   1.498  0.1470  0.8423  0.3430
  146MOL   C14249732   6.121   4.228   1.351  0.4716 -0.3293 -0.8080
  146MOL   C14349733   6.225   4.331   1.314  0.5728  0.2332  0.5263
  146MOL   C14449734   6.235   4.420   1.440  0.4318 -0.1918 -0.0572
  146MOL   O14549735   6.299   4.526   1.447 -0.0781  0.9310  0.6375
  146MOL   H14649736   6.015   4.325   1.806 -1.4397  1.8365 -0.5556
  146MOL   H14749737   6.161   4.260   1.762 -0.2911 -0.5859  0.7977
  146MOL   H14849738   6.193   4.525   1.675 -0.9259  2.1079 -0.0030
  146MOL   H14949739   6.124   4.177   1.565 -0.3091  0.7750  0.5587
  146MOL   H15049740   5.973   4.255   1.506  0.0022 -1.9668 -0.0612
  146MOL   H15149741   6.163   4.127   1.341 -0.6406 -0.7053 -1.9029
  146MOL   H15249742   6.031   4.229   1.289  0.3928  1.1312 -0.6822
  146MOL   H15349743   6.201   4.392   1.226 -0.1805 -0.6161  0.1360
  146MOL   H15449744   6.326   4.296   1.294  0.3734 -0.2639  0.3862
  146MOL   C15549745   5.987   4.541   1.646  0.3491  0.0241 -0.3226
  146MOL   C15649746   6.009   4.685   1.592  0.1511  1.1001  0.0243
  146MOL   N15749747   5.888   4.745   1.550 -0.4027 -0.0208  0.1896
  146MOL   C15849748   5.866   4.767   1.407 -0.3954 -0.0944 -0.1617
  146MOL   C15949749   5.725   4.828   1.389 -0.5583  0.0813 -0.4365
  146MOL   C16049750   5.672   4.849   1.528 -0.2287  0.4818  0.0993
  146MOL   C16149751   5.777   4.781   1.622  0.8679 -0.6182 -0.0969
  146MOL   O16249752   5.761   4.775   1.742 -0.3410 -0.2832  0.5062
  146MOL   H16349753   5.928   4.543   1.738  2.4055 -0.2608  1.0515
  146MOL   H16449754   5.914   4.500   1.576  0.4032 -1.3367  0.3970
  146MOL   H16549755   6.072   4.684   1.503 -2.3101  1.2404 -1.7918
  146MOL   H16649756   5.939   4.827   1.353  1.7777 -1.4125  1.2264
  146MOL   H16749757   5.874   4.669   1.358  0.5364 -0.4191  0.6253
  146MOL   H16849758   5.716   4.927   1.346 -1.0940 -0.1902 -0.9576
  146MOL   H16949759   5.664   4.758   1.332  2.6001 -3.1974  0.0029
  146MOL   H17049760   5.649   4.951   1.561 -0.6326  0.7419 -0.9694
  146MOL   H17149761   5.579   4.796   1.547  0.5136 -1.4089 -1.4228
  146MOL   C17249762   6.077   4.769   1.705 -0.1852  0.2997 -0.0837
  146MOL   C17349763   6.082   4.923   1.697  0.2355 -0.4788 -0.4478
  146MOL   N17449764   6.136   4.988   1.812  0.5434 -0.1533  0.2402
  146MOL   C17549765   6.056   5.076   1.888  0.6327  0.3052  0.4415
  146MOL   C17649766   6.147   5.134   1.992 -0.1339  1.2147  0.1956
  146MOL   C17749767   6.286   5.085   1.962 -0.3998  0.1436 -0.5775
  146MOL   C17849768   6.266   4.989   1.847 -0.0172 -0.4308 -0.1115
  146MOL   O17949769   6.358   4.922   1.799 -0.0799 -0.1703  0.4010
  146MOL   H18049770   6.180   4.738   1.722 -0.3780  0.1441  0.8129
  146MOL   H18149771   6.032   4.744   1.801  0.0216 -0.8687 -0.2856
  146MOL   H18249772   5.975   4.942   1.687  0.0268 -0.3751  1.6681
  146MOL   H18349773   6.025   5.161   1.827  0.1720  0.9451  1.5572
  146MOL   H18449774   5.973   5.029   1.941  0.9264 -1.8262 -0.8934
  146MOL   H18549775   6.127   5.092   2.091 -0.8578  1.8791  0.3420
  146MOL   H18649776   6.138   5.242   2.006 -0.4800  1.0697  1.1367
  146MOL   H18749777   6.358   5.162   1.935  1.2077 -1.4744 -1.0549
  146MOL   H18849778   6.335   5.033   2.044 -0.5515  1.1110  0.1348
  146MOL   C18949779   6.151   4.958   1.561 -0.3280  0.3663  0.3610
  146MOL   C19049780   6.123   5.103   1.529 -0.4912  0.5643 -0.1410
  146MOL   N19149781   6.210   5.150   1.423 -0.7460  0.0067 -0.1872
  146MOL   C19249782   6.339   5.221   1.458 -0.0699 -0.0863  0.1372
  146MOL   C19349783   6.396   5.264   1.326  0.5014  0.5003 -0.0160
  146MOL   C19449784   6.335   5.168   1.216 -0.5329 -0.4463  0.5096
  146MOL   C19549785   6.216   5.112   1.292  0.3659  0.0907  0.4819
  146MOL   O19649786   6.130   5.038   1.238  0.3871 -0.8775  0.0952
  146MOL   H19749787   6.111   4.893   1.482 -4.7679  1.5142  1.5221
  146MOL   H19849788   6.258   4.939   1.567  0.0102  2.3421  1.0089
  146MOL   H19949789   6.154   5.162   1.616 -0.8094 -0.4880  0.6915
  146MOL   H20049790   6.336   5.305   1.527  0.1527  0.1589 -0.1510
  146MOL   H20149791   6.401   5.144   1.504  1.2093  0.1708 -1.1238
  146MOL   H20249792   6.339   5.355   1.306 -1.4924 -0.9175 -0.9955
  146MOL   H20349793   6.503   5.280   1.323  0.5397  0.1068 -0.9936
  146MOL   H20449794   6.308   5.218   1.124  1.8247 -3.4860 -1.9595
  146MOL   H20549795   6.415   5.095   1.203 -2.1118 -2.2107  0.4192
  146MOL   C20649796   5.973   5.147   1.504  0.4967  0.0187  0.2419
  146MOL   C20749797   5.954   5.292   1.459  0.3021  0.2175 -1.3075
  146MOL   N20849798   5.819   5.320   1.411 -0.0102 -0.0537  0.8006
  146MOL   C20949799   5.802   5.354   1.268 -0.0647  0.5692  0.3812
  146MOL   C21049800   5.654   5.355   1.238  0.5012 -0.9559  0.0653
  146MOL   C21149801   5.587   5.318   1.368 -0.4426  0.0965  0.5677
  146MOL   C21249802   5.694   5.315   1.474  0.4279 -0.2580  0.2414
  146MOL   O21349803   5.660   5.308   1.592  0.7250 -0.4412 -0.4952
  146MOL   H21449804   5.906   5.135   1.589  0.9000 -2.5176  0.2537
  146MOL   H21549805   5.936   5.074   1.432  0.4517 -0.8059  1.0902
  146MOL   H21649806   6.027   5.317   1.381 -0.0788 -0.1548 -1.7914
  146MOL   H21749807   5.842   5.450   1.238 -0.3960  1.1085  1.6654
  146MOL   H21849808   5.863   5.283   1.212  0.4292 -0.2753  1.9802
  146MOL   H21949809   5.616   5.453   1.211 -0.2368 -1.5725 -1.1464
  146MOL   H22049810   5.616   5.305   1.149  0.0471 -1.7095  0.6723
  146MOL   H22149811   5.515   5.396   1.392 -0.7929  0.3204 -1.1455
  146MOL   H22249812   5.538   5.222   1.352 -0.1306 -0.4154  2.5670
  146MOL   C22349813   5.989   5.384   1.580 -0.2815 -0.2144 -0.4949
  146MOL   C22449814   6.023   5.529   1.540 -0.1058 -0.2683 -0.0133
  146MOL   N22549815   6.007   5.622   1.659 -0.2662  0.0260  0.1501
  146MOL   C22649816   5.910   5.735   1.666 -0.4414  0.6468 -0.3585
  146MOL   C22749817   5.951   5.818   1.782 -0.8526  0.2995 -0.1329
  146MOL   C22849818   6.027   5.721   1.876 -0.5139  0.3375  0.7524
  146MOL   C22949819   6.069   5.611   1.779  0.3775 -0.4501  0.9051
  146MOL   O23049820   6.159   5.528   1.801  0.0693  0.2732  0.2235
  146MOL   H23149821   6.075   5.350   1.639 -1.7881 -0.5409  1.6029
  146MOL   H23249822   5.912   5.384   1.657  0.7175  0.0373  0.5214
  146MOL   H23349823   5.953   5.568   1.467  1.2028  1.6388 -0.2889
  146MOL   H23449824   5.921   5.787   1.571 -0.9593 -2.9889 -2.5000
  146MOL   H23549825   5.803   5.718   1.679 -0.6796  3.1128  1.2138
  146MOL   H23649826   6.021   5.898   1.755  0.7576 -0.0868  2.7503
  146MOL   H23749827   5.859   5.862   1.822 -1.0598  0.5486 -0.8661
  146MOL   H23849828   6.094   5.785   1.934 -1.0901  1.4415  0.2219
  146MOL   H23949829   5.957   5.672   1.943 -2.7561 -0.6205 -2.1650
  146MOL   C24049830   6.164   5.541   1.481 -0.7528 -0.0792  0.5999
  146MOL   C24149831   6.203   5.689   1.440  0.5441 -0.1299  0.4814
  146MOL   N24249832   6.348   5.704   1.429 -0.0851 -0.4690 -0.6161
  146MOL   C24349833   6.429   5.733   1.547 -0.1420 -0.7540 -0.0508
  146MOL   C24449834   6.569   5.747   1.495  0.1026  0.1366 -0.0735
  146MOL   C24549835   6.568   5.678   1.357 -0.1179  0.1408  0.1096
  146MOL   C24649836   6.421   5.672   1.325  0.1681 -0.4926 -0.2459
  146MOL   O24749837   6.377   5.623   1.219  0.5867 -0.2424  0.1356
  146MOL   H24849838   6.178   5.481   1.391 -1.3710 -2.2148  1.8879
  146MOL   H24949839   6.237   5.510   1.555 -0.3804  0.0201  0.2808
  146MOL   H25049840   6.184   5.755   1.525  0.3131 -0.0391  0.3578
  146MOL   H25149841   6.400   5.833   1.581  0.2682 -0.2340 -1.1990
  146MOL   H25249842   6.418   5.659   1.626  0.4200 -2.4016 -1.4853
  146MOL   H25349843   6.592   5.854   1.494  0.4799  0.0679 -2.6948
  146MOL   H25449844   6.636   5.694   1.563 -0.8063 -1.0637 -0.1007
  146MOL   H25549845   6.628   5.717   1.274 -0.9841 -0.3533 -0.7594
  146MOL   H25649846   6.600   5.574   1.367 -2.1717 -0.4061  1.1694
  146MOL   C25749847   6.117   5.738   1.328 -0.1073 -0.3324 -0.0032
  146MOL   C25849848   6.159   5.878   1.273 -0.0418  0.8984 -0.2337
  146MOL   N25949849   6.091   5.901   1.141 -0.1396 -1.0066 -0.7416
  146MOL   C26049850   6.160   5.901   1.009 -0.6423 -0.3491 -0.5826
  146MOL   C26149851   6.055   5.955   0.905 -0.2760  0.2531  0.3463
  146MOL   C26249852   5.922   5.923   0.971  0.2689  0.1437  0.1236
  146MOL   C26349853   5.959   5.894   1.119 -0.5343  0.6306  0.2816
  146MOL   O26449854   5.873   5.882   1.205  0.3831  0.0164 -0.7315
  146MOL   H26549855   6.009   5.731   1.347 -0.2323  1.4809 -0.0211
  146MOL   H26649856   6.131   5.672   1.243  0.9034 -2.9750  2.1322
  146MOL   H26749857   6.264   5.886   1.248 -0.1981 -1.4078 -1.8494
  146MOL   H26849858   6.246   5.968   1.016 -1.1912  0.3918 -0.8653
  146MOL   H26949859   6.208   5.807   0.983  0.8809  0.3871 -0.4819
  146MOL   H27049860   6.051   6.063   0.890  1.0325  0.3467  0.5820
  146MOL   H27149861   6.067   5.912   0.805 -1.1086  0.4708  0.1495
  146MOL   H27249862   5.859   6.012   0.959 -1.1885 -0.6300  1.6807
  146MOL   H27349863   5.867   5.836   0.936 -0.3172  1.3253 -1.9403
  146MOL   C27449864   6.128   5.994   1.372  0.0497 -0.4327 -0.3907
  146MOL   C27549865   6.188   6.138   1.351  0.0974  0.2323  0.2735
  146MOL   N27649866   6.129   6.241   1.435  0.0605 -0.0255 -0.1504
  146MOL   C27749867   6.043   6.338   1.385  0.9718  0.3075 -0.1617
  146MOL   C27849868   6.001   6.419   1.510  0.9936  0.0410 -0.2140
  146MOL   C27949869   6.080   6.365   1.627  0.0360 -0.5052  0.0659
  146MOL   C28049870   6.146   6.246   1.566 -0.5224  0.3716  0.2075
  146MOL   O28149871   6.216   6.167   1.629  0.5445 -0.3596  0.0591
  146MOL   H28249872   6.141   5.964   1.476 -0.4623 -2.2630 -0.8345
  146MOL   H28349873   6.020   5.991   1.389  0.7423  2.0776  5.5113
  146MOL   H28449874   6.162   6.163   1.248 -1.8020 -1.5572  0.2974
  146MOL   H28549875   6.079   6.390   1.295  0.3693  1.1038  0.0486
  146MOL   H28649876   5.956   6.284   1.347 -0.3021  2.3583 -0.2506
  146MOL   H28749877   6.011   6.527   1.498 -0.7944  0.5758  2.5568
  146MOL   H28849878   5.893   6.402   1.516  0.8391  1.7922  3.2906
  146MOL   H28949879   6.149   6.442   1.663 -0.2404  0.3792 -1.2921
  146MOL   H29049880   6.009   6.335   1.704 -0.1180  0.7859  0.4307
  146MOL   C29149881   6.347   6.142   1.358  0.2050 -0.4570  0.4893
  146MOL   C29249882   6.427   6.171   1.227 -0.7271  0.1228 -0.4352
  146MOL   N29349883   6.394   6.305   1.171  0.0983  0.6582  0.5756
  146MOL   C29449884   6.405   6.440   1.232 -0.2528 -0.3536  0.3116
  146MOL   C29549885   6.355   6.542   1.135  0.5619 -0.3461 -0.1412
  146MOL   C29649886   6.316   6.466   1.013  0.8059  0.6338 -0.0033
  146MOL   C29749887   6.336   6.318   1.048 -0.6319 -0.8519  0.3564
  146MOL   O29849888   6.321   6.229   0.959 -0.0865 -0.2505 -0.1777
  146MOL   H29949889   6.373   6.044   1.399  0.7513 -0.2728  0.5865
  146MOL   H30049890   6.390   6.213   1.428  0.6587  0.1505 -0.3955
  146MOL   H30149891   6.391   6.097   1.156 -1.3730  0.9691 -1.0098
  146MOL   H30249892   6.343   6.453   1.321  2.0589 -1.0035  2.0560
  146MOL   H30349893   6.510   6.447   1.258 -0.2215  1.6514 -0.3220
  146MOL   H30449894   6.273   6.604   1.170  0.8783 -0.8034  1.4178
  146MOL   H30549895   6.435   6.612   1.109 -1.2160  1.2752 -1.4552
  146MOL   H30649896   6.217   6.496   0.976  1.1014  1.5538 -0.0790
  146MOL   H30749897   6.381   6.497   0.931  1.8610  1.9977  1.3056
  146MOL   C30849898   6.577   6.155   1.250 -0.2310  0.7048  0.4970
  146MOL   C30949899   6.648   6.027   1.201 -0.4347 -0.1472  0.0981
  146MOL   N31049900   6.617   6.005   1.064 -0.0175  0.4195 -0.0631
  146MOL   C31149901   6.526   5.902   1.021  0.5379 -0.3993 -0.0296
  146MOL   C31249902   6.496   5.923   0.875 -0.0285 -0.2959  0.9289
  146MOL   C31349903   6.613   6.018   0.832 -0.8624 -0.6416  0.4870
  146MOL   C31449904   6.676   6.069   0.962 -0.2664  0.3682  0.2435
  146MOL   O31549905   6.762   6.158   0.970 -0.8485 -0.1500 -0.2877
  146MOL   H31649906   6.603   6.173   1.354 -0.1919  0.5982  0.5063
  146MOL   H31749907   6.633   6.239   1.210 -0.1414  1.6951  2.6425
  146MOL   H31849908   6.600   5.942   1.250 -1.9258  0.3180 -0.5317
  146MOL   H31949909   6.575   5.805   1.027 -0.2813 -0.7413  1.2740
  146MOL   H32049910   6.443   5.874   1.086  0.8995 -2.5153 -0.4316
  146MOL   H32149911   6.500   5.824   0.831  0.0642 -0.8509  2.1592
  146MOL   H32249912   6.395   5.957   0.851  0.3541 -0.1130 -0.4473
  146MOL   H32349913   6.684   5.953   0.781  0.3357  0.8732  0.1767
  146MOL   H32449914   6.582   6.095   0.762  0.2795 -2.2712 -1.8721
  146MOL   C32549915   6.800   6.006   1.230 -0.1089 -1.0934  0.5677
  146MOL   C32649916   6.850   5.980   1.375 -0.4792 -0.2410  0.0088
  146MOL   N32749917   6.977   5.911   1.384 -0.3135 -0.2707  0.7492
  146MOL   C32849918   6.986   5.784   1.451 -0.0152 -0.1546 -0.4084
  146MOL   C32949919   7.132   5.743   1.437 -0.3041  0.0136 -0.6671
  146MOL   C33049920   7.201   5.875   1.398  0.0279  0.1086  0.1572
  146MOL   C33149921   7.091   5.970   1.356 -0.0300  0.1896 -0.3806
  146MOL   O33249922   7.115   6.083   1.311  0.5203 -0.3328 -0.2768
  146MOL   H33349923   6.857   6.096   1.207  1.1640 -2.4458 -1.6960
  146MOL   H33449924   6.836   5.921   1.173  1.6780 -0.3637  0.5464
  146MOL   H33549925   6.779   5.923   1.435  0.6823 -2.7820 -0.9200
  146MOL   H33649926   6.966   5.796   1.557  2.5746 -2.8429  0.4156
  146MOL   H33749927   6.912   5.721   1.400  0.0051  0.0312 -0.6705
  146MOL   H33849928   7.168   5.714   1.536 -1.1051  2.4305  0.3470
  146MOL   H33949929   7.145   5.663   1.363  0.8410  1.2205 -1.8035
  146MOL   H34049930   7.264   5.914   1.478  0.6321 -0.0401 -0.2393
  146MOL   H34149931   7.271   5.859   1.316  0.8892 -3.0795  1.4448
  146MOL   H34249932   6.851   6.076   1.425 -2.8536 -0.4187  0.4713
   7.90584   7.90584   7.90584
